Title
81333
    1CHL1    C3    1   2.556   5.429  10.621  0.5988  0.1388  0.1086
    1CHL1    H3    2   2.631   5.368  10.567 -0.2630  1.0261 -2.2051
    1CHL1    O3    3   2.532   5.388  10.749 -0.0684 -0.3074  0.4582
    1CHL1   H3'    4   2.452   5.434  10.773 -0.1204  0.4401 -1.0456
    1CHL1    C4    5   2.600   5.576  10.625  1.2093 -0.2124  0.9971
    1CHL1   H4A    6   2.522   5.638  10.674  2.3355  4.0279 -1.9519
    1CHL1   H4B    7   2.696   5.575  10.681  1.8260 -1.1752 -0.0352
    1CHL1    C5    8   2.619   5.627  10.481 -0.0757  0.2226 -0.4103
    1CHL1    C6    9   2.732   5.684  10.438 -0.8726  0.2563 -0.3425
    1CHL1    H6   10   2.816   5.714  10.502 -3.7066  2.7698  2.4822
    1CHL1    C7   11   2.745   5.732  10.295 -0.8367 -0.1974  0.4268
    1CHL1   H7A   12   2.784   5.835  10.305 -1.4169  0.5079 -3.1589
    1CHL1   H7B   13   2.837   5.692  10.246  0.0948  1.3427  0.8482
    1CHL1    C8   14   2.619   5.743  10.209 -0.1869  0.3508  0.3031
    1CHL1    H8   15   2.565   5.833  10.245  1.2325  1.2549  0.2521
    1CHL1   C14   16   2.657   5.759  10.060  0.6677  0.1665 -0.4293
    1CHL1   H14   17   2.711   5.664  10.037  1.5582  0.5467  0.0921
    1CHL1   C15   18   2.759   5.873  10.021 -0.3746  0.3330 -0.4882
    1CHL1  H15A   19   2.737   5.975  10.059  0.0791  0.8813 -1.6470
    1CHL1  H15B   20   2.860   5.830  10.039  0.0276  0.8867 -1.3348
    1CHL1   C16   21   2.738   5.872   9.869  0.5295 -0.7911 -0.0632
    1CHL1  H16A   22   2.719   5.973   9.828  1.4955 -0.0311  1.2968
    1CHL1  H16B   23   2.832   5.828   9.830  1.2661  0.8415 -0.1873
    1CHL1   C17   24   2.618   5.785   9.834 -0.8836 -0.0228 -0.1955
    1CHL1   H17   25   2.673   5.690   9.818 -0.0776  0.6460 -1.5998
    1CHL1   C13   26   2.542   5.769   9.964 -0.6779 -0.2401 -0.3828
    1CHL1   C18   27   2.465   5.897  10.004  0.6267 -0.1581 -0.3282
    1CHL1  H18A   28   2.422   5.889  10.106 -1.3361 -0.3623 -1.1194
    1CHL1  H18B   29   2.518   5.993   9.986  1.3642 -1.2005 -4.8591
    1CHL1  H18C   30   2.376   5.912   9.939 -0.7563  0.6582  1.6640
    1CHL1   C12   31   2.445   5.647   9.984  0.0838  0.9137 -0.6651
    1CHL1  H12A   32   2.358   5.663   9.917 -1.9309 -0.6194  1.4186
    1CHL1  H12B   33   2.495   5.552   9.954 -1.4577 -0.9472  2.1569
    1CHL1   C11   34   2.404   5.625  10.136 -0.2808  0.2062  0.0859
    1CHL1  H11A   35   2.335   5.706  10.171 -1.6647 -1.5826  1.7259
    1CHL1  H11B   36   2.341   5.533  10.139 -0.7866  0.5612  1.0359
    1CHL1    C9   37   2.525   5.616  10.236 -0.4153 -0.5972  0.2366
    1CHL1    H9   38   2.583   5.528  10.202  1.5671  0.2367  1.3236
    1CHL1   C10   39   2.499   5.602  10.382  0.1390 -0.0179  0.0073
    1CHL1   C19   40   2.393   5.701  10.427 -0.0848 -0.3128 -0.3438
    1CHL1  H19A   41   2.380   5.707  10.537  0.3427 -1.6741 -0.2040
    1CHL1  H19B   42   2.404   5.806  10.392 -2.4646  0.4580  0.9898
    1CHL1  H19C   43   2.291   5.671  10.395 -0.9973  1.0426  1.1182
    1CHL1    C1   44   2.443   5.452  10.397  0.0825 -0.1260 -0.1541
    1CHL1   H1A   45   2.353   5.441  10.333  0.6264  1.3120 -1.2139
    1CHL1   H1B   46   2.523   5.390  10.351  1.1849  0.1355  1.3266
    1CHL1    C2   47   2.425   5.404  10.540  0.8381  0.6595 -0.4552
    1CHL1   H2A   48   2.404   5.295  10.535  1.6052  0.4662  0.2427
    1CHL1   H2B   49   2.334   5.440  10.593 -0.1684 -3.5181  1.0711
    1CHL1   C20   50   2.542   5.835   9.713  0.4131  0.5969  0.6909
    1CHL1   H20   51   2.478   5.919   9.749  2.1912  1.8975  0.9797
    1CHL1   C21   52   2.443   5.730   9.655 -0.3732 -0.3719 -0.0367
    1CHL1  H21A   53   2.384   5.765   9.568  1.3653 -2.7206 -2.3198
    1CHL1  H21B   54   2.369   5.703   9.733  1.9575 -2.5519  1.5784
    1CHL1  H21C   55   2.484   5.635   9.614 -2.9039 -1.5883  0.0512
    1CHL1   C22   56   2.636   5.891   9.600  0.6210  0.8068  0.3156
    1CHL1  H22A   57   2.693   5.982   9.627  1.0784  0.3633  0.8887
    1CHL1  H22B   58   2.711   5.808   9.601 -3.0898 -2.8570  0.3622
    1CHL1   C23   59   2.581   5.917   9.464  1.0894 -0.4321 -0.4313
    1CHL1  H23A   60   2.532   5.827   9.422 -1.3419  0.8338 -0.4573
    1CHL1  H23B   61   2.501   5.987   9.497  0.9151 -0.7852 -0.1031
    1CHL1   C24   62   2.668   5.987   9.363  0.1693 -0.4462  1.1425
    1CHL1  H24A   63   2.698   6.081   9.414  1.8536  0.0937 -0.7257
    1CHL1  H24B   64   2.759   5.928   9.338  0.7259  1.6561 -2.4225
    1CHL1   C25   65   2.594   6.030   9.235  0.8005 -0.2170  0.9618
    1CHL1   H25   66   2.501   6.085   9.261  0.9974  0.5032  0.1684
    1CHL1   C26   67   2.676   6.137   9.156  0.0729 -0.5163  0.2256
    1CHL1  H26A   68   2.624   6.160   9.060  0.0988  0.7661  0.4966
    1CHL1  H26B   69   2.662   6.230   9.215 -0.3651  0.0934 -0.8147
    1CHL1  H26C   70   2.782   6.111   9.140  0.9436  1.9430  1.5237
    1CHL1   C27   71   2.552   5.910   9.144  0.0954 -0.6494 -0.2172
    1CHL1  H27A   72   2.523   5.940   9.041 -2.8883 -2.8543 -0.1608
    1CHL1  H27B   73   2.633   5.834   9.136  0.7306  0.1080 -1.1084
    1CHL1  H27C   74   2.466   5.853   9.186  1.1715 -2.1569  0.0324
    2CHL1    C3   75   3.685   2.074  10.271 -0.3141 -0.1772  0.1211
    2CHL1    H3   76   3.741   1.980  10.252  0.1501  0.3744 -1.3212
    2CHL1    O3   77   3.675   2.090  10.410 -0.0836  0.7361 -0.1425
    2CHL1   H3'   78   3.629   2.011  10.438  1.1667  0.2809  0.7061
    2CHL1    C4   79   3.757   2.189  10.213  0.5024 -0.0572  0.6995
    2CHL1   H4A   80   3.700   2.280  10.240  1.1899  0.6283 -0.1001
    2CHL1   H4B   81   3.857   2.196  10.261  0.7016  3.1780 -0.0237
    2CHL1    C5   82   3.780   2.187  10.060  0.4136  0.4986 -0.2381
    2CHL1    C6   83   3.898   2.189   9.991  0.6274 -0.8554 -0.2626
    2CHL1    H6   84   3.993   2.196  10.046 -0.5495 -0.0767  1.7619
    2CHL1    C7   85   3.907   2.199   9.845 -0.0950 -0.2150  0.1339
    2CHL1   H7A   86   3.985   2.274   9.819 -0.2232 -0.5844 -1.4234
    2CHL1   H7B   87   3.952   2.106   9.804  1.7633  1.5680 -2.1776
    2CHL1    C8   88   3.769   2.244   9.777 -0.2119  0.0349  0.0473
    2CHL1    H8   89   3.749   2.352   9.795  1.2404  0.3413 -0.0598
    2CHL1   C14   90   3.776   2.210   9.625 -0.0280  0.0472  0.6315
    2CHL1   H14   91   3.803   2.102   9.619  2.4019  0.6298  0.2309
    2CHL1   C15   92   3.887   2.272   9.543  1.0229 -0.6643  0.9375
    2CHL1  H15A   93   3.887   2.377   9.579 -0.7585 -0.9371  1.8281
    2CHL1  H15B   94   3.990   2.244   9.574  1.4915  1.6872  1.6664
    2CHL1   C16   95   3.833   2.261   9.398 -0.0083  0.5506  0.3180
    2CHL1  H16A   96   3.848   2.362   9.354  2.1108  0.1100 -0.0894
    2CHL1  H16B   97   3.890   2.186   9.339  1.0312  1.3663  0.2607
    2CHL1   C17   98   3.688   2.210   9.400  0.3775 -0.5637 -0.0149
    2CHL1   H17   99   3.686   2.099   9.389  0.6383 -0.6035  0.3386
    2CHL1   C13  100   3.648   2.237   9.543 -0.1829  0.1901  0.6186
    2CHL1   C18  101   3.609   2.384   9.561 -0.4069  0.2451 -0.0214
    2CHL1  H18A  102   3.509   2.392   9.515  0.0370 -0.2017 -1.1189
    2CHL1  H18B  103   3.585   2.421   9.663 -0.7905  2.4661 -0.8527
    2CHL1  H18C  104   3.665   2.468   9.514  0.1248  0.6253  1.2391
    2CHL1   C12  105   3.549   2.133   9.603 -0.6092 -0.1052 -0.0548
    2CHL1  H12A  106   3.450   2.126   9.552  0.7081 -0.3863 -2.7633
    2CHL1  H12B  107   3.597   2.033   9.605  0.7342  0.5385  1.8710
    2CHL1   C11  108   3.522   2.155   9.754 -0.6538  0.0098 -0.3491
    2CHL1  H11A  109   3.476   2.256   9.765  4.0163  2.2839  0.9462
    2CHL1  H11B  110   3.460   2.070   9.790 -0.6257 -0.3056 -1.0411
    2CHL1    C9  111   3.654   2.156   9.832 -0.0422  0.5303  0.0813
    2CHL1    H9  112   3.701   2.056   9.818  2.1161  0.8421  3.7774
    2CHL1   C10  113   3.639   2.170   9.983  0.1835  0.1506 -0.4787
    2CHL1   C19  114   3.550   2.295  10.004  0.2225 -0.2022  0.7887
    2CHL1  H19A  115   3.447   2.267   9.972  0.4564 -0.2433  0.0537
    2CHL1  H19B  116   3.530   2.315  10.112 -0.7332  1.8353  0.2995
    2CHL1  H19C  117   3.582   2.386   9.948 -0.7919 -1.0548 -1.2777
    2CHL1    C1  118   3.580   2.043  10.049  0.2622  0.6467 -0.0894
    2CHL1   H1A  119   3.482   2.029   9.998 -0.5138  0.3566  1.4157
    2CHL1   H1B  120   3.648   1.958  10.029 -0.0978  0.3619 -0.1060
    2CHL1    C2  121   3.554   2.060  10.202  0.2945 -0.4531  0.2075
    2CHL1   H2A  122   3.500   1.971  10.241  3.1109 -2.1393  0.4997
    2CHL1   H2B  123   3.480   2.142  10.214 -0.7702 -1.2821 -0.4646
    2CHL1   C20  124   3.603   2.273   9.288  0.7191  0.5869  0.4490
    2CHL1   H20  125   3.594   2.383   9.305 -0.3275  0.8286 -1.3175
    2CHL1   C21  126   3.454   2.215   9.292 -0.4382  0.2733 -0.0375
    2CHL1  H21A  127   3.406   2.268   9.207  3.4812  1.8122 -1.5531
    2CHL1  H21B  128   3.400   2.249   9.383  2.2140 -1.9349  2.5697
    2CHL1  H21C  129   3.456   2.104   9.284 -0.6784  0.3477 -1.3717
    2CHL1   C22  130   3.664   2.242   9.147 -0.3059 -0.1997 -0.4483
    2CHL1  H22A  131   3.775   2.248   9.146 -0.3636  1.2621 -0.2160
    2CHL1  H22B  132   3.644   2.137   9.117  1.3408 -0.8721  0.6734
    2CHL1   C23  133   3.612   2.329   9.035 -0.5604 -0.1767  0.9515
    2CHL1  H23A  134   3.501   2.331   9.031 -0.5286 -0.4888 -1.5626
    2CHL1  H23B  135   3.643   2.433   9.059  1.3138  0.1785 -2.3936
    2CHL1   C24  136   3.686   2.299   8.906 -0.3919  0.0280 -0.1554
    2CHL1  H24A  137   3.797   2.302   8.914 -0.3109  2.2560 -1.3452
    2CHL1  H24B  138   3.643   2.207   8.859  0.3093 -0.2655 -0.2531
    2CHL1   C25  139   3.664   2.412   8.807 -0.1493 -0.4493 -1.0454
    2CHL1   H25  140   3.706   2.503   8.853  0.1819 -1.8843  1.6683
    2CHL1   C26  141   3.737   2.377   8.672 -0.3041 -0.2464 -0.4883
    2CHL1  H26A  142   3.844   2.367   8.700 -0.5116 -0.1486  0.3528
    2CHL1  H26B  143   3.691   2.282   8.636 -2.0376  0.3341  0.0964
    2CHL1  H26C  144   3.721   2.454   8.593  0.1636 -1.2245 -1.5780
    2CHL1   C27  145   3.518   2.435   8.759  0.2958 -0.0402  0.2329
    2CHL1  H27A  146   3.449   2.467   8.841 -1.5420 -0.4289 -1.0923
    2CHL1  H27B  147   3.499   2.524   8.696 -0.8156 -0.0224  0.5671
    2CHL1  H27C  148   3.485   2.341   8.710  1.8781  0.1483 -1.2400
    3CHL1    C3  149   5.897   3.365  10.356 -0.4275 -0.2205 -0.2537
    3CHL1    H3  150   5.984   3.296  10.352 -2.4632 -2.9374 -0.2571
    3CHL1    O3  151   5.880   3.375  10.494  0.8012  0.1944 -0.1897
    3CHL1   H3'  152   5.952   3.431  10.524  1.1280 -0.7332  0.8250
    3CHL1    C4  153   5.942   3.504  10.292 -0.1181  0.0537  0.1345
    3CHL1   H4A  154   5.876   3.588  10.324 -0.2796  0.0649 -0.2235
    3CHL1   H4B  155   6.045   3.530  10.326  0.2197  1.6754 -1.8956
    3CHL1    C5  156   5.943   3.495  10.136 -0.4827 -0.6313 -0.5027
    3CHL1    C6  157   6.047   3.531  10.055  0.1705 -0.2726  0.5681
    3CHL1    H6  158   6.134   3.578  10.103 -0.3398  0.2693  0.9937
    3CHL1    C7  159   6.058   3.510   9.905 -0.5896 -0.5313  0.5668
    3CHL1   H7A  160   6.102   3.598   9.851  1.6936 -1.0243  1.5283
    3CHL1   H7B  161   6.136   3.434   9.881 -0.6674  0.0769 -1.9865
    3CHL1    C8  162   5.924   3.476   9.838 -0.0792  0.0312  0.1197
    3CHL1    H8  163   5.865   3.567   9.814  1.7710  1.5105  0.9307
    3CHL1   C14  164   5.944   3.419   9.700 -0.3135 -0.2079 -0.0492
    3CHL1   H14  165   5.989   3.318   9.705  0.8575  0.3004  0.0832
    3CHL1   C15  166   6.035   3.500   9.608  0.8042 -0.1323 -0.3019
    3CHL1  H15A  167   6.009   3.607   9.621  0.3805 -0.3192  0.4579
    3CHL1  H15B  168   6.139   3.472   9.633  0.1662 -0.8934  1.7501
    3CHL1   C16  169   5.991   3.442   9.470  0.4930  0.1198  0.7323
    3CHL1  H16A  170   5.975   3.526   9.399 -0.3073 -0.0266  0.7290
    3CHL1  H16B  171   6.078   3.392   9.423 -0.5493  0.7809 -2.0873
    3CHL1   C17  172   5.866   3.346   9.481 -0.5254  0.3148 -0.7246
    3CHL1   H17  173   5.913   3.246   9.489  3.6716  2.2520  1.9800
    3CHL1   C13  174   5.808   3.391   9.622 -0.1113 -0.0689  0.3682
    3CHL1   C18  175   5.717   3.516   9.602 -0.1131  0.5022 -0.3629
    3CHL1  H18A  176   5.674   3.553   9.697 -1.2076  0.7891 -0.9484
    3CHL1  H18B  177   5.766   3.606   9.559  0.0108  0.9976  0.7849
    3CHL1  H18C  178   5.628   3.490   9.540 -1.3579  1.7768  0.8073
    3CHL1   C12  179   5.738   3.281   9.706 -0.1349  0.1762 -0.2884
    3CHL1  H12A  180   5.641   3.252   9.661  1.1058 -2.2256 -1.6284
    3CHL1  H12B  181   5.796   3.187   9.720 -0.1671  0.2920  0.7424
    3CHL1   C11  182   5.712   3.333   9.852  0.3386  0.4072  0.2235
    3CHL1  H11A  183   5.635   3.413   9.847 -2.4565 -2.1695 -2.2668
    3CHL1  H11B  184   5.664   3.256   9.915  1.8206 -0.2003  0.6441
    3CHL1    C9  185   5.845   3.376   9.926 -0.3699 -0.0412 -0.4400
    3CHL1    H9  186   5.901   3.280   9.931  1.6072  1.0117 -1.1507
    3CHL1   C10  187   5.820   3.428  10.075  0.3461 -0.9280 -0.3125
    3CHL1   C19  188   5.717   3.546  10.070  0.2818 -0.1146 -0.1386
    3CHL1  H19A  189   5.690   3.570  10.175  0.9959 -0.1703  0.0612
    3CHL1  H19B  190   5.755   3.642  10.030 -1.4079  0.4026 -0.5736
    3CHL1  H19C  191   5.623   3.520  10.016  0.0900 -1.8652  0.9266
    3CHL1    C1  192   5.769   3.299  10.149 -0.3197 -0.7404 -0.9829
    3CHL1   H1A  193   5.661   3.293  10.126 -0.7886  0.1838  0.8251
    3CHL1   H1B  194   5.818   3.207  10.109  1.5248  0.2334 -1.0650
    3CHL1    C2  195   5.771   3.313  10.304  0.2321  0.5324  0.0023
    3CHL1   H2A  196   5.723   3.231  10.360 -0.0999  0.4206 -0.4324
    3CHL1   H2B  197   5.701   3.398  10.324  1.6487  1.8057 -0.2428
    3CHL1   C20  198   5.776   3.339   9.356  0.3949 -0.6001  0.1153
    3CHL1   H20  199   5.742   3.445   9.348  1.1127 -0.3202  0.7321
    3CHL1   C21  200   5.653   3.245   9.375 -0.6779 -0.0045 -0.8713
    3CHL1  H21A  201   5.593   3.244   9.281  1.8013  1.3303 -2.5739
    3CHL1  H21B  202   5.588   3.263   9.464  1.4720  2.8445  0.2614
    3CHL1  H21C  203   5.693   3.144   9.395  0.2465  0.3647 -0.8219
    3CHL1   C22  204   5.857   3.303   9.227 -0.1146  0.7243 -1.1772
    3CHL1  H22A  205   5.936   3.381   9.230  2.8155 -1.9523  2.8171
    3CHL1  H22B  206   5.907   3.204   9.240 -0.8453  0.5251  0.3372
    3CHL1   C23  207   5.780   3.286   9.099  0.3609 -0.4066 -0.2454
    3CHL1  H23A  208   5.720   3.196   9.121 -1.7574  1.1448  0.6709
    3CHL1  H23B  209   5.703   3.366   9.089 -1.9610 -1.8263  3.9693
    3CHL1   C24  210   5.878   3.249   8.988  0.0180 -0.8914 -0.9093
    3CHL1  H24A  211   5.948   3.332   8.964  0.1920 -0.6787  0.2600
    3CHL1  H24B  212   5.940   3.167   9.031 -1.6607 -1.1025  1.2651
    3CHL1   C25  213   5.805   3.209   8.853 -0.2537 -0.6495 -0.1705
    3CHL1   H25  214   5.764   3.108   8.874 -0.6743 -0.2549  0.9379
    3CHL1   C26  215   5.689   3.299   8.814 -0.5933  0.1871  0.1896
    3CHL1  H26A  216   5.648   3.270   8.715 -1.5978  0.9928  0.3458
    3CHL1  H26B  217   5.607   3.273   8.885  2.1534 -0.2105  3.5211
    3CHL1  H26C  218   5.721   3.405   8.821  1.2065 -0.3019 -0.1837
    3CHL1   C27  219   5.910   3.210   8.733 -0.3616 -0.2498  0.0702
    3CHL1  H27A  220   5.997   3.143   8.749 -0.8534 -1.1824 -0.9624
    3CHL1  H27B  221   5.861   3.187   8.635 -0.9796  2.0033 -0.1915
    3CHL1  H27C  222   5.960   3.308   8.720  3.2245 -1.6968  1.6468
    4CHL1    C3  223   0.826   4.038  10.344 -0.1303 -0.6085 -0.1282
    4CHL1    H3  224   0.877   4.137  10.349 -0.2944 -0.5289 -0.0242
    4CHL1    O3  225   0.816   3.982  10.475  0.2320  0.0190 -0.1358
    4CHL1   H3'  226   0.787   4.053  10.533  1.2364 -0.6728  1.2820
    4CHL1    C4  227   0.682   4.066  10.301 -0.1379  0.3074 -0.3671
    4CHL1   H4A  228   0.626   3.970  10.307 -0.5657  0.2426 -3.5964
    4CHL1   H4B  229   0.633   4.143  10.364  1.2060  1.3234 -0.5332
    4CHL1    C5  230   0.682   4.117  10.160 -0.0742  0.0354  0.5771
    4CHL1    C6  231   0.632   4.231  10.110 -0.4703 -0.0305  0.0784
    4CHL1    H6  232   0.588   4.305  10.179 -2.4010  0.3524 -1.4811
    4CHL1    C7  233   0.626   4.276   9.965 -0.3145 -0.2463 -0.9207
    4CHL1   H7A  234   0.524   4.320   9.965 -0.7628 -0.9660  2.6187
    4CHL1   H7B  235   0.691   4.359   9.931  0.0354 -0.1572 -0.0547
    4CHL1    C8  236   0.660   4.170   9.866 -0.0225 -0.0273  0.5054
    4CHL1    H8  237   0.565   4.113   9.859 -0.0096 -0.1558  1.2927
    4CHL1   C14  238   0.698   4.235   9.732  0.4511 -0.4048  0.3741
    4CHL1   H14  239   0.793   4.286   9.759 -0.0046  0.2950  0.6964
    4CHL1   C15  240   0.613   4.350   9.676 -0.3685 -0.4445  0.0021
    4CHL1  H15A  241   0.508   4.315   9.690 -0.8368  0.9497  0.1328
    4CHL1  H15B  242   0.632   4.447   9.726  0.2919  0.0773 -1.2326
    4CHL1   C16  243   0.647   4.345   9.525 -0.4068  0.0841 -0.0870
    4CHL1  H16A  244   0.555   4.325   9.464 -0.9977  0.8877  0.5202
    4CHL1  H16B  245   0.692   4.438   9.484  1.7557 -0.3760  1.1509
    4CHL1   C17  246   0.755   4.237   9.504  0.5270 -0.0057  0.3243
    4CHL1   H17  247   0.850   4.293   9.518  0.3555  0.5458 -0.6551
    4CHL1   C13  248   0.735   4.139   9.625  0.1317  0.2611  0.3854
    4CHL1   C18  249   0.613   4.054   9.592  0.5312  0.1773 -0.1832
    4CHL1  H18A  250   0.643   3.977   9.517 -0.9811  0.8851 -1.5572
    4CHL1  H18B  251   0.577   3.985   9.672  0.2667  0.5386  0.0111
    4CHL1  H18C  252   0.530   4.117   9.554 -0.1253  0.4556  1.6001
    4CHL1   C12  253   0.851   4.050   9.678 -0.1647 -0.7888 -0.1997
    4CHL1  H12A  254   0.882   3.986   9.592 -0.8233 -1.5213  0.0972
    4CHL1  H12B  255   0.933   4.124   9.693  1.5230 -2.5294 -0.3902
    4CHL1   C11  256   0.830   3.979   9.808  0.6504  0.1172  0.1031
    4CHL1  H11A  257   0.770   3.885   9.803  0.2604  0.3735 -0.1096
    4CHL1  H11B  258   0.935   3.952   9.833  0.5511 -0.4358 -0.0725
    4CHL1    C9  259   0.774   4.077   9.915  0.1326 -0.0435 -0.6596
    4CHL1    H9  260   0.862   4.144   9.924  2.4397 -2.8422 -0.8918
    4CHL1   C10  261   0.755   4.023  10.057 -0.0125 -0.3282  0.3042
    4CHL1   C19  262   0.666   3.890  10.050  0.4213  0.2864 -0.1431
    4CHL1  H19A  263   0.712   3.810   9.989 -1.4104  0.2160 -1.5246
    4CHL1  H19B  264   0.648   3.844  10.150 -1.6680 -0.7387 -0.9395
    4CHL1  H19C  265   0.564   3.916  10.012  0.3752  0.9363  0.3930
    4CHL1    C1  266   0.895   3.991  10.120 -0.0329 -0.3346 -0.0369
    4CHL1   H1A  267   0.934   3.910  10.056 -0.5653  0.7264 -1.7573
    4CHL1   H1B  268   0.964   4.077  10.118  0.3534 -0.6614 -1.3452
    4CHL1    C2  269   0.897   3.938  10.261  0.1095 -0.0643 -0.2554
    4CHL1   H2A  270   0.996   3.931  10.313  0.9827 -0.7084 -1.9296
    4CHL1   H2B  271   0.855   3.839  10.288  0.3930  0.1869  1.1900
    4CHL1   C20  272   0.754   4.166   9.369 -0.0304 -0.0866  0.0488
    4CHL1   H20  273   0.670   4.092   9.367 -2.6024  2.5117  2.4921
    4CHL1   C21  274   0.897   4.100   9.344  0.0345  0.2421  0.5187
    4CHL1  H21A  275   0.977   4.175   9.360 -0.9081  1.8624 -1.8842
    4CHL1  H21B  276   0.923   4.066   9.242 -0.2664 -3.1777  1.4568
    4CHL1  H21C  277   0.919   4.015   9.413  3.0802 -1.1862 -1.9394
    4CHL1   C22  278   0.715   4.267   9.252  0.8244  0.0141 -0.1846
    4CHL1  H22A  279   0.628   4.334   9.272  0.5129 -0.3356 -0.3624
    4CHL1  H22B  280   0.804   4.333   9.240 -0.9255  2.4471 -0.4682
    4CHL1   C23  281   0.684   4.199   9.119  0.6876 -0.4476  0.6978
    4CHL1  H23A  282   0.774   4.181   9.057  0.1559  0.6319 -0.4192
    4CHL1  H23B  283   0.658   4.095   9.149 -1.6952 -0.5479 -1.4192
    4CHL1   C24  284   0.565   4.263   9.038 -0.3352 -0.0628  0.6339
    4CHL1  H24A  285   0.475   4.258   9.103 -0.7200  3.9365  0.6585
    4CHL1  H24B  286   0.590   4.369   9.018  1.6710 -1.0269 -2.6974
    4CHL1   C25  287   0.535   4.192   8.897  0.5970  0.2844 -0.0678
    4CHL1   H25  288   0.626   4.212   8.836 -1.3400 -0.3681 -3.4747
    4CHL1   C26  289   0.516   4.042   8.912 -0.4847  0.1644 -1.0506
    4CHL1  H26A  290   0.483   3.992   8.819  1.4135  0.2476 -1.8200
    4CHL1  H26B  291   0.604   3.987   8.952 -0.8030  0.4487  0.0949
    4CHL1  H26C  292   0.427   4.022   8.975 -0.9088  3.0851 -0.6019
    4CHL1   C27  293   0.416   4.271   8.836  0.5405  0.2693  1.1377
    4CHL1  H27A  294   0.440   4.377   8.817 -1.4814  0.9762  2.2238
    4CHL1  H27B  295   0.382   4.205   8.753  0.3624 -2.1238  2.9774
    4CHL1  H27C  296   0.335   4.276   8.912 -0.1000 -3.0420  0.8272
    5CHL1    C3  297   1.261   3.092  10.214  0.5532  0.2151 -0.4308
    5CHL1    H3  298   1.288   2.984  10.209  1.2433  0.2611  1.4680
    5CHL1    O3  299   1.239   3.138  10.348  0.6597  0.1904 -0.3866
    5CHL1   H3'  300   1.325   3.117  10.384  1.3640  0.8371 -1.6342
    5CHL1    C4  301   1.385   3.177  10.157 -0.3632 -0.1454  0.1550
    5CHL1   H4A  302   1.356   3.278  10.194 -3.3517 -1.7022  2.5432
    5CHL1   H4B  303   1.471   3.135  10.212 -1.6429 -3.2110  0.0259
    5CHL1    C5  304   1.396   3.178  10.005  0.4250 -0.1309 -1.0597
    5CHL1    C6  305   1.520   3.183   9.950  0.5713  0.1656  0.4062
    5CHL1    H6  306   1.606   3.203  10.016 -0.0975  0.7603  1.1367
    5CHL1    C7  307   1.538   3.182   9.795  0.0415  0.2194  0.1794
    5CHL1   H7A  308   1.633   3.227   9.760  0.7088 -0.1942  1.3937
    5CHL1   H7B  309   1.550   3.074   9.772  1.2989 -0.1510  2.2883
    5CHL1    C8  310   1.414   3.233   9.722  0.2592 -0.7774  0.4166
    5CHL1    H8  311   1.410   3.343   9.740  1.3760 -0.6549  0.0046
    5CHL1   C14  312   1.425   3.206   9.570  0.1848  0.1040  0.6295
    5CHL1   H14  313   1.441   3.096   9.560  0.9496  0.0513  2.0833
    5CHL1   C15  314   1.548   3.256   9.498 -0.0129  0.1623  0.0661
    5CHL1  H15A  315   1.567   3.362   9.527 -2.3954  0.9611 -1.0437
    5CHL1  H15B  316   1.641   3.202   9.522 -0.5457 -1.6097 -1.5519
    5CHL1   C16  317   1.510   3.246   9.348 -0.0133  0.3780  0.6097
    5CHL1  H16A  318   1.528   3.344   9.298  0.8021 -1.3328 -2.6785
    5CHL1  H16B  319   1.565   3.169   9.292 -2.3804  0.0752 -1.4940
    5CHL1   C17  320   1.353   3.207   9.346  0.0782  0.8463  0.3364
    5CHL1   H17  321   1.350   3.096   9.338  0.3528  0.9862 -3.9140
    5CHL1   C13  322   1.301   3.239   9.484 -0.9045 -0.3000  0.0360
    5CHL1   C18  323   1.279   3.390   9.487  0.9341 -0.9054 -0.4851
    5CHL1  H18A  324   1.346   3.449   9.420  0.6842  3.5148  2.7446
    5CHL1  H18B  325   1.174   3.396   9.450  1.7927  0.8437 -2.9380
    5CHL1  H18C  326   1.290   3.427   9.591  0.2672 -0.7598 -0.4589
    5CHL1   C12  327   1.178   3.159   9.534  0.2037 -0.1118 -0.5463
    5CHL1  H12A  328   1.094   3.176   9.463  1.8570  2.7197 -1.9974
    5CHL1  H12B  329   1.216   3.056   9.515  0.2433 -0.4567  1.2059
    5CHL1   C11  330   1.156   3.174   9.684  0.1872 -0.4211  0.4582
    5CHL1  H11A  331   1.116   3.277   9.691  2.2465  0.6602 -2.0876
    5CHL1  H11B  332   1.076   3.105   9.720 -2.7810  1.6084 -1.7781
    5CHL1    C9  333   1.290   3.166   9.770  0.5984  0.0661  0.3179
    5CHL1    H9  334   1.320   3.060   9.752 -0.0912  0.3113 -2.7657
    5CHL1   C10  335   1.267   3.188   9.922  0.2738 -0.0837 -0.3176
    5CHL1   C19  336   1.225   3.339   9.947  0.6384 -0.4113  0.3052
    5CHL1  H19A  337   1.120   3.334   9.912 -0.2365 -0.7381  2.7836
    5CHL1  H19B  338   1.226   3.372  10.053 -0.0992  5.3505 -1.1375
    5CHL1  H19C  339   1.280   3.418   9.892 -1.6423  1.5323  0.6532
    5CHL1    C1  340   1.161   3.092   9.985  0.1212 -0.2931  0.4303
    5CHL1   H1A  341   1.066   3.103   9.930  1.2187 -0.6699 -1.6245
    5CHL1   H1B  342   1.184   2.986   9.961 -1.0007 -0.5280  0.3509
    5CHL1    C2  343   1.136   3.110  10.137  0.2721 -0.2324  0.1513
    5CHL1   H2A  344   1.064   3.036  10.178 -1.4463  1.6008  0.5777
    5CHL1   H2B  345   1.094   3.211  10.157  1.4900  0.4615 -0.6410
    5CHL1   C20  346   1.289   3.248   9.211 -0.0864 -0.3342  0.2935
    5CHL1   H20  347   1.275   3.358   9.221 -3.2500 -0.6974  0.9966
    5CHL1   C21  348   1.150   3.186   9.197 -0.7635 -0.3294 -1.1420
    5CHL1  H21A  349   1.074   3.230   9.264 -1.0061  0.7578 -2.1161
    5CHL1  H21B  350   1.157   3.075   9.208 -1.9932 -0.3184  0.0811
    5CHL1  H21C  351   1.099   3.210   9.101 -1.4387 -0.6925 -0.8839
    5CHL1   C22  352   1.371   3.206   9.089 -0.0789  0.4181  0.1753
    5CHL1  H22A  353   1.480   3.225   9.105  0.1285 -0.9795  0.5652
    5CHL1  H22B  354   1.353   3.098   9.075  0.3603  0.5287 -1.3432
    5CHL1   C23  355   1.329   3.277   8.955 -0.1631  0.4785 -0.4167
    5CHL1  H23A  356   1.361   3.207   8.875 -0.8021 -0.5806  0.2342
    5CHL1  H23B  357   1.218   3.283   8.950 -0.2072 -1.0619 -3.6064
    5CHL1   C24  358   1.397   3.412   8.936 -0.2280  0.1992 -0.0192
    5CHL1  H24A  359   1.348   3.485   9.004  1.0378 -0.0522  1.1813
    5CHL1  H24B  360   1.498   3.408   8.981 -0.5950 -1.9314  0.7097
    5CHL1   C25  361   1.408   3.470   8.792 -0.0593  0.2982 -0.0437
    5CHL1   H25  362   1.427   3.394   8.713 -0.3622 -0.2468  0.4068
    5CHL1   C26  363   1.278   3.521   8.743  0.6496  0.2809 -0.4127
    5CHL1  H26A  364   1.223   3.598   8.801  2.5891  1.2954  0.1728
    5CHL1  H26B  365   1.297   3.570   8.646  1.2977  1.0273  0.0798
    5CHL1  H26C  366   1.202   3.440   8.736 -0.4931  1.2502  0.3272
    5CHL1   C27  367   1.510   3.588   8.783  0.6399  0.1124  0.1698
    5CHL1  H27A  368   1.613   3.555   8.807  1.3636  2.0945  0.0143
    5CHL1  H27B  369   1.510   3.633   8.681  2.3667  0.1031  0.1342
    5CHL1  H27C  370   1.474   3.660   8.859  1.7008  0.1406  0.6556
    6CHL1    C3  371   4.960   0.008  10.243 -0.1458  0.6719 -0.6688
    6CHL1    H3  372   5.026  -0.079  10.221  1.1465  1.0460  1.4001
    6CHL1    O3  373   5.005   0.041  10.374 -0.6406 -0.4164  0.1177
    6CHL1   H3'  374   4.927   0.087  10.407 -0.0853  0.2480  0.5265
    6CHL1    C4  375   4.995   0.119  10.150  0.5107 -0.5720 -0.0731
    6CHL1   H4A  376   4.960   0.219  10.184 -0.0413  0.5858 -3.5779
    6CHL1   H4B  377   5.105   0.137  10.145  0.2626  1.0811 -0.3767
    6CHL1    C5  378   4.937   0.101  10.014  0.5234 -0.3924 -0.3002
    6CHL1    C6  379   5.019   0.094   9.907  0.0465 -0.8458  0.2222
    6CHL1    H6  380   5.122   0.130   9.920 -1.4241  3.3867  2.0681
    6CHL1    C7  381   4.975   0.054   9.775 -0.0864  0.4883 -0.0095
    6CHL1   H7A  382   5.025   0.098   9.686 -0.8997  0.0321 -0.7066
    6CHL1   H7B  383   5.001  -0.054   9.776 -2.7315 -0.2533 -1.3639
    6CHL1    C8  384   4.824   0.077   9.755 -0.3826  0.4587 -0.4807
    6CHL1    H8  385   4.803   0.187   9.754  2.6646  1.1556  0.9105
    6CHL1   C14  386   4.772   0.021   9.623  0.3190  0.4021  0.1851
    6CHL1   H14  387   4.782  -0.089   9.636 -0.0474  0.4361  0.7943
    6CHL1   C15  388   4.837   0.043   9.491 -0.0837 -0.3323  0.1776
    6CHL1  H15A  389   4.868   0.148   9.479  2.8325 -1.2474 -1.1339
    6CHL1  H15B  390   4.935  -0.010   9.494  0.7400  1.1791  0.5983
    6CHL1   C16  391   4.739  -0.003   9.387 -0.0900  0.3502 -0.3195
    6CHL1  H16A  392   4.734   0.092   9.329  0.7402  0.9833  0.6182
    6CHL1  H16B  393   4.785  -0.085   9.327 -0.0725  0.9553 -1.1536
    6CHL1   C17  394   4.608  -0.035   9.454  0.2862  0.1266  0.3142
    6CHL1   H17  395   4.604  -0.144   9.472  1.7617 -0.2369 -1.2246
    6CHL1   C13  396   4.621   0.035   9.598 -0.5319  0.3907 -0.4909
    6CHL1   C18  397   4.592   0.188   9.591  0.2960  0.1705 -0.0866
    6CHL1  H18A  398   4.654   0.234   9.511 -0.2358 -0.1486 -0.6914
    6CHL1  H18B  399   4.485   0.211   9.575  0.3300  0.4960  0.1430
    6CHL1  H18C  400   4.612   0.233   9.690  2.5302 -0.8034 -0.0279
    6CHL1   C12  401   4.541  -0.031   9.710  0.1980  0.7782 -0.0560
    6CHL1  H12A  402   4.435  -0.002   9.698 -0.5693 -2.0383 -0.9599
    6CHL1  H12B  403   4.552  -0.142   9.711  2.4945  0.9131 -1.7641
    6CHL1   C11  404   4.592   0.016   9.847 -0.3034 -0.8796  0.0036
    6CHL1  H11A  405   4.544   0.115   9.862 -1.7270 -1.3406 -1.1903
    6CHL1  H11B  406   4.549  -0.039   9.933 -2.3956  1.6476  0.7152
    6CHL1    C9  407   4.746   0.011   9.867 -0.0471 -0.2001  0.2529
    6CHL1    H9  408   4.780  -0.094   9.853  0.9459  0.3927 -2.5342
    6CHL1   C10  409   4.794   0.066  10.006  0.2312 -0.1997 -0.2029
    6CHL1   C19  410   4.723   0.199  10.040 -0.1682  0.5127 -0.0623
    6CHL1  H19A  411   4.762   0.260  10.124  0.5606  0.5440 -0.4196
    6CHL1  H19B  412   4.735   0.269   9.954 -2.5738  1.4601  0.2808
    6CHL1  H19C  413   4.616   0.183  10.067  0.2434 -0.4925  1.0066
    6CHL1    C1  414   4.757  -0.050  10.116  0.0237  0.5191  0.1050
    6CHL1   H1A  415   4.647  -0.058  10.128 -0.4507  1.7900 -2.5648
    6CHL1   H1B  416   4.803  -0.145  10.083 -0.7097  0.0739  0.3576
    6CHL1    C2  417   4.811  -0.026  10.259  0.2131  0.6110 -0.1685
    6CHL1   H2A  418   4.783  -0.109  10.328  0.6556 -0.0210 -0.7338
    6CHL1   H2B  419   4.752   0.061  10.294  2.7396  2.5769 -0.4917
    6CHL1   C20  420   4.480  -0.012   9.360  0.2859 -0.4983 -0.0047
    6CHL1   H20  421   4.468   0.094   9.329  0.8640 -0.0233  1.3146
    6CHL1   C21  422   4.359  -0.051   9.439  0.0909  0.1925  0.0089
    6CHL1  H21A  423   4.264  -0.052   9.381 -0.0499 -0.6692  0.2401
    6CHL1  H21B  424   4.332   0.040   9.498 -1.6654  0.7288 -1.5355
    6CHL1  H21C  425   4.367  -0.146   9.496  0.7193  1.9437  3.1169
    6CHL1   C22  426   4.495  -0.084   9.228  0.1935 -0.7055 -0.8209
    6CHL1  H22A  427   4.586  -0.051   9.173 -0.4842  0.7924 -1.0879
    6CHL1  H22B  428   4.509  -0.193   9.240 -1.7837 -1.3922 -3.6779
    6CHL1   C23  429   4.377  -0.051   9.131  0.5960 -0.1275 -0.6419
    6CHL1  H23A  430   4.272  -0.065   9.165  0.4385 -0.6113 -1.3027
    6CHL1  H23B  431   4.387   0.055   9.099 -2.8678  0.6599  0.4863
    6CHL1   C24  432   4.396  -0.123   8.999 -0.4951  0.3824  0.0811
    6CHL1  H24A  433   4.487  -0.083   8.951 -1.2843  1.9531 -0.1635
    6CHL1  H24B  434   4.408  -0.232   9.018 -0.2104  0.2060 -1.0955
    6CHL1   C25  435   4.282  -0.117   8.896 -0.2687  0.4512 -0.2445
    6CHL1   H25  436   4.186  -0.154   8.938  1.1133 -1.5190  1.3712
    6CHL1   C26  437   4.249   0.027   8.855 -0.4572  0.0212 -0.1497
    6CHL1  H26A  438   4.335   0.086   8.815  0.5984 -1.4492 -0.1363
    6CHL1  H26B  439   4.173   0.008   8.776 -3.1896  1.0228  2.0861
    6CHL1  H26C  440   4.193   0.075   8.938  0.2756 -0.3541  0.5695
    6CHL1   C27  441   4.314  -0.209   8.774 -0.1897  0.6117  0.0625
    6CHL1  H27A  442   4.410  -0.183   8.725  0.6121 -1.7998  0.2422
    6CHL1  H27B  443   4.317  -0.318   8.795 -1.2115  0.4515 -0.5303
    6CHL1  H27C  444   4.227  -0.192   8.707 -0.2318 -2.5269 -0.8221
    7CHL1    C3  445   1.995   1.965  10.480  0.3034  0.6973 -0.0904
    7CHL1    H3  446   1.890   1.931  10.489  0.9055 -1.0558  1.0196
    7CHL1    O3  447   2.070   1.935  10.594  0.1300  0.4470  0.1656
    7CHL1   H3'  448   2.016   1.969  10.666  0.3869 -0.7821  0.9757
    7CHL1    C4  449   2.050   1.872  10.367 -0.3522  0.5913  0.7071
    7CHL1   H4A  450   2.159   1.884  10.349 -0.5650  0.0085 -1.1732
    7CHL1   H4B  451   2.035   1.765  10.393  0.3382 -0.2798 -2.1484
    7CHL1    C5  452   1.979   1.908  10.235  0.4272 -0.5941 -0.1990
    7CHL1    C6  453   1.916   1.810  10.171  0.1153  0.1385 -0.0582
    7CHL1    H6  454   1.913   1.708  10.211 -0.4630  0.0306 -0.3726
    7CHL1    C7  455   1.837   1.828  10.043  0.1685  0.5024  0.1635
    7CHL1   H7A  456   1.858   1.747   9.970  1.1795  0.7776  0.1313
    7CHL1   H7B  457   1.729   1.842  10.063  0.4069 -0.0095  1.9549
    7CHL1    C8  458   1.873   1.963   9.972 -0.0109 -0.2823  0.2698
    7CHL1    H8  459   1.971   1.944   9.923  1.5148 -1.3770  3.4577
    7CHL1   C14  460   1.771   2.000   9.870 -0.2823 -1.0107 -0.4340
    7CHL1   H14  461   1.683   2.047   9.919  1.3525  2.2694 -0.4150
    7CHL1   C15  462   1.710   1.892   9.782 -0.8426  0.6667 -0.4593
    7CHL1  H15A  463   1.791   1.830   9.738  0.0106  1.4123  0.0364
    7CHL1  H15B  464   1.638   1.827   9.836  1.9328 -1.7192  0.5517
    7CHL1   C16  465   1.645   1.961   9.662 -0.1907 -0.2331  0.4968
    7CHL1  H16A  466   1.687   1.929   9.565 -2.2047 -0.8758 -0.2176
    7CHL1  H16B  467   1.535   1.942   9.657 -0.7254  1.9033  2.3258
    7CHL1   C17  468   1.673   2.115   9.685 -0.4892  0.1803 -0.0725
    7CHL1   H17  469   1.583   2.156   9.734  0.7504  1.8710  0.8809
    7CHL1   C13  470   1.807   2.118   9.781  0.2325 -0.3229 -0.5386
    7CHL1   C18  471   1.931   2.088   9.702 -0.8849  0.5674 -0.5886
    7CHL1  H18A  472   1.963   2.167   9.631  0.3781 -0.3836 -1.1204
    7CHL1  H18B  473   2.022   2.077   9.765 -0.9772  0.0752 -0.5340
    7CHL1  H18C  474   1.921   1.990   9.650 -0.1152  1.3340 -2.2819
    7CHL1   C12  475   1.831   2.240   9.877  0.5278  0.4044  0.0083
    7CHL1  H12A  476   1.878   2.326   9.825  1.3221  0.1567  0.2992
    7CHL1  H12B  477   1.733   2.266   9.923  1.4924  2.7836  0.8640
    7CHL1   C11  478   1.936   2.211   9.989 -0.1794 -0.1906  0.9033
    7CHL1  H11A  479   2.041   2.218   9.954  0.0971 -2.9787  0.9677
    7CHL1  H11B  480   1.936   2.295  10.061 -1.7551 -0.4899  1.3049
    7CHL1    C9  481   1.904   2.084  10.067  0.6071 -0.9903  0.3340
    7CHL1    H9  482   1.799   2.091  10.102  0.2229 -0.5301 -0.8610
    7CHL1   C10  483   1.979   2.058  10.196  0.4120 -0.1934  0.2053
    7CHL1   C19  484   2.128   2.085  10.150  0.4120  0.1814 -0.3134
    7CHL1  H19A  485   2.162   2.028  10.060  0.8969 -0.1287  0.0613
    7CHL1  H19B  486   2.136   2.194  10.131  0.2331 -0.0424 -1.8534
    7CHL1  H19C  487   2.195   2.064  10.236 -0.7721 -1.5077  0.2468
    7CHL1    C1  488   1.934   2.145  10.307  0.1523 -0.1020 -0.6369
    7CHL1   H1A  489   1.954   2.250  10.275  2.4987 -0.4767 -0.6236
    7CHL1   H1B  490   1.825   2.143  10.326 -0.1166  2.7258 -1.3631
    7CHL1    C2  491   2.002   2.115  10.444 -0.8904  0.7354 -0.2523
    7CHL1   H2A  492   1.951   2.178  10.521  0.2326  0.2927  0.8836
    7CHL1   H2B  493   2.103   2.159  10.433 -0.2167 -0.1460  1.9748
    7CHL1   C20  494   1.675   2.213   9.564  1.1756  0.4949  0.8313
    7CHL1   H20  495   1.778   2.227   9.525  0.9115 -2.3814 -1.1534
    7CHL1   C21  496   1.630   2.360   9.609 -0.1621 -0.5796  0.3779
    7CHL1  H21A  497   1.680   2.408   9.695  0.3299  2.7307 -1.5766
    7CHL1  H21B  498   1.523   2.354   9.636 -0.2555 -0.7899 -0.0205
    7CHL1  H21C  499   1.641   2.431   9.524  1.1077 -0.4826  0.6029
    7CHL1   C22  500   1.600   2.171   9.436 -0.5149  0.4752  0.2526
    7CHL1  H22A  501   1.625   2.065   9.414 -2.8657 -0.5006  1.8709
    7CHL1  H22B  502   1.491   2.174   9.457 -0.5081 -0.9454  0.5520
    7CHL1   C23  503   1.638   2.260   9.319  0.0589 -0.4930  0.2892
    7CHL1  H23A  504   1.582   2.353   9.342 -0.1509 -0.7312  0.7608
    7CHL1  H23B  505   1.747   2.282   9.324  0.5769 -2.3138 -1.5332
    7CHL1   C24  506   1.605   2.198   9.187  0.0515  0.7389  0.2803
    7CHL1  H24A  507   1.643   2.094   9.181  0.0195  0.7153  0.4771
    7CHL1  H24B  508   1.494   2.197   9.188  0.0530 -0.1683  0.9195
    7CHL1   C25  509   1.655   2.282   9.067 -0.0214 -0.7131 -0.0316
    7CHL1   H25  510   1.761   2.312   9.080  0.6862 -2.7934 -0.7586
    7CHL1   C26  511   1.645   2.225   8.928 -0.5548 -1.2314 -0.1381
    7CHL1  H26A  512   1.714   2.272   8.855 -0.6036  0.1471  0.6606
    7CHL1  H26B  513   1.663   2.115   8.930 -0.5117 -1.2204  1.3156
    7CHL1  H26C  514   1.541   2.228   8.891 -0.5690  1.9432 -0.1191
    7CHL1   C27  515   1.592   2.428   9.063 -0.4410 -0.5312  0.7544
    7CHL1  H27A  516   1.606   2.481   9.159 -4.6171  0.6853  0.9043
    7CHL1  H27B  517   1.633   2.490   8.980  1.8589 -1.6223  1.0183
    7CHL1  H27C  518   1.484   2.411   9.040 -0.1088  1.3089 -2.9106
    8CHL1    C3  519   2.958   5.260  10.413  0.6799  0.2714  0.1256
    8CHL1    H3  520   3.069   5.266  10.411  1.0027 -3.2676 -1.5062
    8CHL1    O3  521   2.920   5.257  10.550 -0.3312  0.1430 -0.1135
    8CHL1   H3'  522   2.914   5.351  10.570  0.1094  0.5938 -1.9319
    8CHL1    C4  523   2.885   5.393  10.360 -0.7358  0.5331 -0.0076
    8CHL1   H4A  524   2.777   5.399  10.384 -1.7420 -1.5637 -3.3853
    8CHL1   H4B  525   2.931   5.483  10.407  0.7130  0.1639 -0.6471
    8CHL1    C5  526   2.915   5.380  10.207 -0.0745  0.3353  0.2605
    8CHL1    C6  527   2.984   5.482  10.151  0.3852  0.1360  0.7481
    8CHL1    H6  528   3.018   5.564  10.217  0.1132  0.6395  0.2707
    8CHL1    C7  529   3.005   5.502  10.012  0.4302  1.2196 -0.2989
    8CHL1   H7A  530   2.967   5.600   9.974 -0.4675  2.2883  3.0144
    8CHL1   H7B  531   3.110   5.476   9.990  1.8460  2.7772  3.7521
    8CHL1    C8  532   2.908   5.397   9.933  0.2988  0.5820 -0.4640
    8CHL1    H8  533   2.808   5.445   9.935  0.7634  2.0407 -4.0679
    8CHL1   C14  534   2.962   5.388   9.788 -0.3502  0.6420 -0.8052
    8CHL1   H14  535   3.059   5.334   9.791 -0.7916 -0.1430  1.8146
    8CHL1   C15  536   3.010   5.512   9.707 -0.6990  0.2046 -0.3548
    8CHL1  H15A  537   2.932   5.591   9.711 -0.6815  0.2222 -0.3598
    8CHL1  H15B  538   3.104   5.563   9.738  0.3814 -0.8115 -1.8141
    8CHL1   C16  539   3.030   5.454   9.568  0.2197  0.0030  0.5524
    8CHL1  H16A  540   2.975   5.518   9.496  2.0361 -0.4790 -1.3570
    8CHL1  H16B  541   3.136   5.438   9.536  0.6580  0.7925  1.5282
    8CHL1   C17  542   2.952   5.317   9.566  0.0696  0.4995 -0.6479
    8CHL1   H17  543   3.029   5.237   9.560 -1.0809 -0.5831 -1.3730
    8CHL1   C13  544   2.879   5.306   9.698  0.2563  0.1109 -0.3178
    8CHL1   C18  545   2.738   5.379   9.700  0.4107  0.5986 -0.0492
    8CHL1  H18A  546   2.683   5.370   9.797 -2.1099 -0.9888 -1.5184
    8CHL1  H18B  547   2.759   5.484   9.671  1.7079 -0.1636 -2.0603
    8CHL1  H18C  548   2.678   5.327   9.623  2.0610 -2.3902  0.5172
    8CHL1   C12  549   2.876   5.159   9.757 -0.0995 -0.3549  0.1416
    8CHL1  H12A  550   2.821   5.083   9.697  0.9769  0.7555 -2.4077
    8CHL1  H12B  551   2.980   5.118   9.759 -0.7186 -2.2012 -1.5614
    8CHL1   C11  552   2.825   5.155   9.901 -0.0705 -0.1223 -0.7495
    8CHL1  H11A  553   2.718   5.185   9.904  0.3261  1.3114  0.7054
    8CHL1  H11B  554   2.832   5.053   9.944  0.2340 -0.1104 -0.7687
    8CHL1    C9  555   2.904   5.261   9.985  0.1216 -0.2398 -0.7558
    8CHL1    H9  556   3.008   5.223   9.986  0.3683  0.3546  1.5293
    8CHL1   C10  557   2.865   5.260  10.132 -0.4905 -0.0920  0.6708
    8CHL1   C19  558   2.710   5.267  10.141  0.3216  0.6624  0.3879
    8CHL1  H19A  559   2.672   5.169  10.104  0.5013  1.5858 -2.5472
    8CHL1  H19B  560   2.690   5.276  10.250  0.5580  0.0527  0.4885
    8CHL1  H19C  561   2.661   5.340  10.073  2.3268  1.1305 -0.6256
    8CHL1    C1  562   2.931   5.131  10.200  0.3058  0.6314 -0.7212
    8CHL1   H1A  563   2.866   5.050  10.161  0.4402  0.3946 -0.4625
    8CHL1   H1B  564   3.039   5.124  10.175  0.5287  0.6092  0.2122
    8CHL1    C2  565   2.916   5.133  10.350  0.5031  0.2031 -0.2254
    8CHL1   H2A  566   2.969   5.045  10.391  1.2855  1.4737  1.5626
    8CHL1   H2B  567   2.809   5.116  10.378  0.0866 -1.9375 -2.6367
    8CHL1   C20  568   2.866   5.297   9.435 -0.2167 -0.7559 -0.2675
    8CHL1   H20  569   2.782   5.370   9.428 -0.8574 -1.3672  0.7961
    8CHL1   C21  570   2.808   5.155   9.438 -0.3889  0.5401 -0.2485
    8CHL1  H21A  571   2.885   5.076   9.452 -1.7838 -0.8013  0.1168
    8CHL1  H21B  572   2.763   5.136   9.339 -0.1443  3.7763 -1.1195
    8CHL1  H21C  573   2.721   5.141   9.505 -1.5675  1.9749 -1.4200
    8CHL1   C22  574   2.949   5.329   9.302 -0.2725  0.2074 -0.2343
    8CHL1  H22A  575   3.027   5.406   9.319  0.7256 -0.7717 -0.2647
    8CHL1  H22B  576   2.997   5.231   9.281 -3.4471 -1.6985  0.7267
    8CHL1   C23  577   2.869   5.382   9.185 -0.6073  0.1733  0.4110
    8CHL1  H23A  578   2.782   5.316   9.165  0.4476 -0.3641 -3.1388
    8CHL1  H23B  579   2.827   5.479   9.219 -1.0941 -0.3715  1.4092
    8CHL1   C24  580   2.951   5.400   9.058 -0.2060  1.3146 -0.0754
    8CHL1  H24A  581   3.004   5.496   9.073  0.7482  1.7354 -4.6263
    8CHL1  H24B  582   3.023   5.316   9.047 -1.2815  0.4644 -0.9380
    8CHL1   C25  583   2.867   5.422   8.929 -1.0571 -0.4811  0.0514
    8CHL1   H25  584   2.795   5.338   8.929  0.3792 -1.8041  2.1992
    8CHL1   C26  585   2.798   5.561   8.931  0.2489 -0.0788  0.0553
    8CHL1  H26A  586   2.752   5.569   9.032  1.2602  0.5672  0.4819
    8CHL1  H26B  587   2.868   5.644   8.906  0.4119 -0.3667 -0.4451
    8CHL1  H26C  588   2.714   5.572   8.859  1.1503  2.4169 -0.7462
    8CHL1   C27  589   2.973   5.416   8.814  0.1055 -0.9724  0.2232
    8CHL1  H27A  590   2.931   5.394   8.713  1.0286  0.6122 -0.5524
    8CHL1  H27B  591   3.018   5.517   8.816 -2.3475  0.1900  1.2329
    8CHL1  H27C  592   3.038   5.330   8.838  0.4822 -0.2569  1.9015
    9CHL1    C3  593   5.675   0.400  10.222 -0.3910 -0.1105 -0.2966
    9CHL1    H3  594   5.739   0.487  10.247 -0.6227  0.2361 -0.8976
    9CHL1    O3  595   5.638   0.337  10.339  0.4366 -0.0645 -0.3979
    9CHL1   H3'  596   5.692   0.258  10.337  0.7546  0.0610  1.5970
    9CHL1    C4  597   5.547   0.455  10.157  0.1738 -0.5171  0.4564
    9CHL1   H4A  598   5.472   0.372  10.157 -0.3514 -0.0572 -0.1623
    9CHL1   H4B  599   5.488   0.524  10.221 -1.6777 -1.3777 -0.2371
    9CHL1    C5  600   5.569   0.517  10.021 -0.6338  0.0966  0.3011
    9CHL1    C6  601   5.522   0.634   9.990  0.0677 -0.1993  0.4155
    9CHL1    H6  602   5.463   0.691  10.064 -1.3400  1.8965 -2.1696
    9CHL1    C7  603   5.552   0.704   9.856 -0.0360  0.2467 -0.2217
    9CHL1   H7A  604   5.473   0.768   9.812 -1.0389 -2.1112 -2.1076
    9CHL1   H7B  605   5.640   0.769   9.875 -0.2424 -0.1885  2.5349
    9CHL1    C8  606   5.594   0.603   9.745  0.2869  0.1613 -0.0088
    9CHL1    H8  607   5.501   0.544   9.727 -0.7293  1.4333  0.9430
    9CHL1   C14  608   5.647   0.673   9.622 -0.1656  0.1274  0.1628
    9CHL1   H14  609   5.734   0.730   9.660  2.1762 -1.4587 -2.4063
    9CHL1   C15  610   5.562   0.791   9.553 -0.4899 -0.5899 -0.3441
    9CHL1  H15A  611   5.453   0.777   9.537 -0.3279  0.4439 -2.7471
    9CHL1  H15B  612   5.564   0.880   9.620  0.2790 -0.4913 -0.4816
    9CHL1   C16  613   5.627   0.807   9.418 -0.0697 -0.0964  0.3953
    9CHL1  H16A  614   5.554   0.797   9.335  0.5868 -0.4999 -0.1378
    9CHL1  H16B  615   5.678   0.904   9.404  0.9308 -0.7412 -0.5354
    9CHL1   C17  616   5.736   0.690   9.409 -0.7339 -0.0930 -0.0230
    9CHL1   H17  617   5.824   0.739   9.456 -0.4250 -0.2312 -0.4484
    9CHL1   C13  618   5.694   0.581   9.508  0.0094 -1.0959 -0.4029
    9CHL1   C18  619   5.580   0.495   9.457  0.1346  0.3971 -0.0600
    9CHL1  H18A  620   5.549   0.420   9.533 -2.3369  0.7396 -0.6403
    9CHL1  H18B  621   5.491   0.555   9.428  0.2541  0.5818 -0.0467
    9CHL1  H18C  622   5.610   0.436   9.368 -1.0766  1.0186 -0.9133
    9CHL1   C12  623   5.813   0.501   9.557 -0.0384 -0.5355 -0.5544
    9CHL1  H12A  624   5.826   0.429   9.474  3.4130 -0.5001 -0.1831
    9CHL1  H12B  625   5.894   0.574   9.579 -0.5444 -0.0363 -0.3101
    9CHL1   C11  626   5.779   0.421   9.689 -0.1985 -0.7189 -0.4104
    9CHL1  H11A  627   5.717   0.337   9.652 -2.9605  1.2658 -0.6152
    9CHL1  H11B  628   5.872   0.379   9.730 -0.9004 -0.7545  1.2266
    9CHL1    C9  629   5.702   0.506   9.798  1.1721 -0.2039 -0.2933
    9CHL1    H9  630   5.775   0.583   9.829  0.4061  0.7343 -0.7658
    9CHL1   C10  631   5.666   0.428   9.928 -0.3175 -0.2733  0.0841
    9CHL1   C19  632   5.585   0.299   9.879 -0.5178  0.2804 -0.0656
    9CHL1  H19A  633   5.516   0.261   9.957  0.7270 -2.0359 -0.0142
    9CHL1  H19B  634   5.514   0.320   9.796 -0.0276  0.4778 -0.4410
    9CHL1  H19C  635   5.658   0.220   9.851 -0.7362 -1.2348  3.2010
    9CHL1    C1  636   5.795   0.387  10.006 -0.4813 -0.6019 -0.0745
    9CHL1   H1A  637   5.856   0.317   9.946  2.6161 -1.4063  3.5921
    9CHL1   H1B  638   5.848   0.482  10.028  1.1976 -1.2416 -1.1498
    9CHL1    C2  639   5.757   0.306  10.131  0.1219 -0.8621 -0.4315
    9CHL1   H2A  640   5.857   0.279  10.172  1.8005  2.9120 -1.6251
    9CHL1   H2B  641   5.718   0.207  10.098  0.5159 -0.3401 -2.6420
    9CHL1   C20  642   5.786   0.648   9.267  0.3481  0.1605  0.5458
    9CHL1   H20  643   5.827   0.545   9.265 -0.2757 -0.0945 -0.8507
    9CHL1   C21  644   5.908   0.725   9.219  0.3193 -0.2601 -0.2793
    9CHL1  H21A  645   5.982   0.736   9.301 -0.4508 -0.6410  0.4842
    9CHL1  H21B  646   5.862   0.824   9.197 -0.3841 -0.5182 -0.0124
    9CHL1  H21C  647   5.944   0.684   9.122  0.6128  2.2806 -1.3333
    9CHL1   C22  648   5.675   0.653   9.153 -0.9174 -0.1836  0.1923
    9CHL1  H22A  649   5.587   0.592   9.185 -1.2527 -0.6339 -1.5013
    9CHL1  H22B  650   5.646   0.758   9.134  1.1045  0.2643 -0.6689
    9CHL1   C23  651   5.702   0.589   9.016  0.1503  0.1051  0.2456
    9CHL1  H23A  652   5.782   0.650   8.967 -0.0210 -0.9236 -1.3577
    9CHL1  H23B  653   5.723   0.480   9.026  2.7792  0.5037 -0.0033
    9CHL1   C24  654   5.575   0.607   8.924  0.1036 -0.2450 -0.5644
    9CHL1  H24A  655   5.492   0.550   8.971  0.9463 -0.6717  0.4550
    9CHL1  H24B  656   5.548   0.714   8.921 -1.2786 -0.5413  0.3669
    9CHL1   C25  657   5.584   0.551   8.787  0.1205  0.9807 -0.0796
    9CHL1   H25  658   5.675   0.583   8.733  2.3868  0.1352  2.9712
    9CHL1   C26  659   5.574   0.397   8.790 -0.1690  0.6205 -0.5846
    9CHL1  H26A  660   5.482   0.364   8.842  0.7055 -0.7803  0.1455
    9CHL1  H26B  661   5.576   0.371   8.682  3.0721  0.4975 -0.5966
    9CHL1  H26C  662   5.658   0.347   8.844 -1.0245  0.9388  1.1216
    9CHL1   C27  663   5.455   0.605   8.717 -0.6920  0.3872 -0.2662
    9CHL1  H27A  664   5.369   0.545   8.755 -0.5442  2.3672  3.7801
    9CHL1  H27B  665   5.433   0.710   8.744  1.2557  0.6520  0.4177
    9CHL1  H27C  666   5.460   0.607   8.606  1.7616 -2.3378 -0.3410
   10CHL1    C3  667   3.153   3.686  10.382 -0.0670 -0.1980  0.2929
   10CHL1    H3  668   3.198   3.784  10.356  0.6801 -0.5428  0.2803
   10CHL1    O3  669   3.155   3.665  10.522 -0.1256  0.5374  0.5214
   10CHL1   H3'  670   3.245   3.677  10.553 -0.6779  1.3851  1.8914
   10CHL1    C4  671   3.006   3.676  10.331 -0.7787 -0.1926  0.2545
   10CHL1   H4A  672   2.968   3.579  10.370 -4.8998  1.0293 -0.2317
   10CHL1   H4B  673   2.953   3.753  10.391  1.1420  0.2108  1.5340
   10CHL1    C5  674   2.982   3.675  10.185 -0.4902 -0.8029  0.6085
   10CHL1    C6  675   2.902   3.767  10.118  0.2186 -0.0602 -0.6333
   10CHL1    H6  676   2.835   3.833  10.175  0.5320 -0.9781  0.8539
   10CHL1    C7  677   2.883   3.770   9.972 -0.0247 -0.0469  0.7991
   10CHL1   H7A  678   2.773   3.772   9.952  0.0712 -2.3790 -0.3477
   10CHL1   H7B  679   2.921   3.865   9.930 -1.9033 -0.1073 -1.2524
   10CHL1    C8  680   2.942   3.647   9.899 -0.3248 -0.0674  0.2306
   10CHL1    H8  681   2.873   3.561   9.911  2.2609 -2.2469  0.4818
   10CHL1   C14  682   2.959   3.684   9.749  0.1435  0.3118 -0.1125
   10CHL1   H14  683   3.044   3.755   9.745  2.6086 -2.4809 -0.9059
   10CHL1   C15  684   2.846   3.749   9.669 -0.6088  0.4242 -0.4014
   10CHL1  H15A  685   2.756   3.685   9.675 -1.0910  0.8697 -2.1501
   10CHL1  H15B  686   2.828   3.854   9.701 -0.7117  0.6978 -1.3280
   10CHL1   C16  687   2.901   3.741   9.522 -0.7114  0.1538 -0.3042
   10CHL1  H16A  688   2.827   3.695   9.452 -2.1352  5.8133 -3.1947
   10CHL1  H16B  689   2.921   3.844   9.484 -3.8015  0.2870 -1.9384
   10CHL1   C17  690   3.028   3.647   9.529 -0.3692 -0.3816 -0.4154
   10CHL1   H17  691   3.119   3.711   9.530 -1.0174  0.5835  0.9445
   10CHL1   C13  692   3.026   3.577   9.663 -0.0206  0.0452 -0.8050
   10CHL1   C18  693   2.934   3.457   9.653  0.1718 -0.3725 -0.2550
   10CHL1  H18A  694   2.894   3.433   9.754  1.8072 -1.9308  0.0707
   10CHL1  H18B  695   2.844   3.486   9.594  0.3927  0.3208 -0.2629
   10CHL1  H18C  696   2.990   3.371   9.611 -0.3701 -1.3174  0.8978
   10CHL1   C12  697   3.160   3.541   9.726 -0.0418 -0.3271 -0.1062
   10CHL1  H12A  698   3.210   3.460   9.668  1.1334  1.1546 -1.2196
   10CHL1  H12B  699   3.223   3.631   9.736  2.1754 -1.6617 -1.2655
   10CHL1   C11  700   3.142   3.499   9.872 -0.5256 -0.4152 -0.1777
   10CHL1  H11A  701   3.083   3.406   9.884 -0.5259 -0.1738  2.2974
   10CHL1  H11B  702   3.247   3.487   9.909 -0.8049 -1.6628  0.2333
   10CHL1    C9  703   3.073   3.603   9.960  0.3117  0.2937 -0.5376
   10CHL1    H9  704   3.138   3.693   9.962  3.3120 -1.7418  0.4065
   10CHL1   C10  705   3.070   3.573  10.109  0.2949 -0.3720  0.0359
   10CHL1   C19  706   2.999   3.431  10.134 -0.0548 -0.3839 -0.5313
   10CHL1  H19A  707   3.064   3.356  10.084  1.6883  3.0152 -3.8753
   10CHL1  H19B  708   2.980   3.412  10.242  1.4270 -1.0565 -0.3601
   10CHL1  H19C  709   2.906   3.430  10.073  0.9825  2.0072 -2.3135
   10CHL1    C1  710   3.214   3.579  10.165  0.4827 -0.3161  0.3294
   10CHL1   H1A  711   3.267   3.497  10.111  2.1291  0.9686 -0.0753
   10CHL1   H1B  712   3.251   3.675  10.124 -0.4691 -1.0210 -2.3715
   10CHL1    C2  713   3.228   3.572  10.309 -0.1560  0.2857 -0.0981
   10CHL1   H2A  714   3.335   3.579  10.340 -0.2297  1.5242 -0.0770
   10CHL1   H2B  715   3.197   3.472  10.347 -0.4019 -0.2895 -1.7455
   10CHL1   C20  716   3.039   3.551   9.407 -0.8804  0.3284 -1.0181
   10CHL1   H20  717   2.953   3.480   9.407  0.1839 -1.0561 -2.8085
   10CHL1   C21  718   3.167   3.470   9.414 -0.6910 -0.0911  0.0878
   10CHL1  H21A  719   3.246   3.529   9.465 -1.7518  0.7466  0.8072
   10CHL1  H21B  720   3.199   3.425   9.318 -1.2388 -1.1639  0.3819
   10CHL1  H21C  721   3.154   3.378   9.476 -0.4551  0.6628  1.2860
   10CHL1   C22  722   3.054   3.620   9.274  0.4146  0.3367 -0.3976
   10CHL1  H22A  723   2.986   3.707   9.276 -0.4023 -0.3047  1.0065
   10CHL1  H22B  724   3.158   3.655   9.257  0.8453 -0.6573  0.1036
   10CHL1   C23  725   3.021   3.537   9.150 -0.9248  0.0042 -0.1243
   10CHL1  H23A  726   3.068   3.437   9.155 -0.4347  0.2503  0.2035
   10CHL1  H23B  727   2.910   3.531   9.153 -1.0605  1.7962 -0.2009
   10CHL1   C24  728   3.065   3.601   9.017  0.3002 -0.2622  0.0102
   10CHL1  H24A  729   2.992   3.684   9.005 -0.3280 -0.9026 -0.7004
   10CHL1  H24B  730   3.168   3.644   9.023 -0.5245  1.6918  1.3109
   10CHL1   C25  731   3.039   3.505   8.898 -0.2244 -0.3818 -0.3215
   10CHL1   H25  732   2.937   3.468   8.918  0.6282 -1.5685  2.2550
   10CHL1   C26  733   3.038   3.584   8.761  0.4414  0.0589  0.0157
   10CHL1  H26A  734   3.135   3.633   8.736  0.1813  0.1035 -0.9088
   10CHL1  H26B  735   3.020   3.515   8.677  0.7625  0.9187 -0.7715
   10CHL1  H26C  736   2.963   3.666   8.755  1.3982  0.8334 -2.8140
   10CHL1   C27  737   3.117   3.378   8.880  0.3756  0.0155  0.6405
   10CHL1  H27A  738   3.063   3.311   8.810  1.3155  0.1265 -0.2168
   10CHL1  H27B  739   3.223   3.386   8.847 -0.2476 -1.9109 -2.1596
   10CHL1  H27C  740   3.118   3.310   8.968  0.1443 -2.8951 -1.4583
   11CHL1    C3  741   5.218   1.989  10.174 -0.4393 -0.5774 -0.2980
   11CHL1    H3  742   5.107   1.997  10.176 -0.3043  2.3606  1.7953
   11CHL1    O3  743   5.277   1.962  10.301 -0.1910  0.7930 -0.4483
   11CHL1   H3'  744   5.218   1.894  10.333 -0.1967 -0.0863 -2.2272
   11CHL1    C4  745   5.273   1.882  10.081  0.3126 -0.0779  0.1847
   11CHL1   H4A  746   5.384   1.881  10.070  0.3479  0.7106  0.3588
   11CHL1   H4B  747   5.233   1.786  10.119 -0.0387  0.6065  1.6214
   11CHL1    C5  748   5.227   1.908   9.940  0.7248 -0.1848  0.0906
   11CHL1    C6  749   5.143   1.814   9.881 -0.1695 -0.7200 -0.5719
   11CHL1    H6  750   5.118   1.722   9.936 -2.0054  0.2330  0.2564
   11CHL1    C7  751   5.094   1.830   9.735 -0.3252 -0.1126  0.3947
   11CHL1   H7A  752   5.118   1.727   9.699  0.1180 -0.0241  0.4330
   11CHL1   H7B  753   4.983   1.842   9.737 -0.3373 -0.3162  1.6273
   11CHL1    C8  754   5.169   1.936   9.662  0.2313  0.1205 -0.0388
   11CHL1    H8  755   5.269   1.899   9.632 -0.7945 -0.3274 -3.3625
   11CHL1   C14  756   5.082   1.967   9.541 -0.0190  0.8101 -0.1294
   11CHL1   H14  757   4.989   2.020   9.569 -2.4039 -1.8338 -2.5478
   11CHL1   C15  758   5.052   1.854   9.444  0.3418  0.0230  0.0290
   11CHL1  H15A  759   5.151   1.805   9.444  0.0451 -0.5928  0.4744
   11CHL1  H15B  760   4.985   1.777   9.489  1.4996  0.7826  3.3054
   11CHL1   C16  761   5.012   1.921   9.313 -0.1977  0.0905 -0.5395
   11CHL1  H16A  762   5.061   1.870   9.227 -1.5155 -1.1939 -0.5636
   11CHL1  H16B  763   4.902   1.921   9.299 -0.2112 -1.2083 -0.5714
   11CHL1   C17  764   5.051   2.072   9.334  0.7914  0.0654 -0.3512
   11CHL1   H17  765   4.957   2.121   9.366 -1.7098 -1.7075 -4.2611
   11CHL1   C13  766   5.153   2.072   9.453 -0.7119  0.0730 -0.0427
   11CHL1   C18  767   5.293   2.021   9.406  0.0581 -0.0231 -0.1542
   11CHL1  H18A  768   5.291   1.931   9.342 -1.1218 -0.1944  0.1040
   11CHL1  H18B  769   5.348   2.092   9.340  2.3627 -0.4565  1.2219
   11CHL1  H18C  770   5.359   1.999   9.492 -0.4108 -1.4063 -0.1317
   11CHL1   C12  771   5.170   2.203   9.539 -0.5838 -0.2773  0.0820
   11CHL1  H12A  772   5.218   2.284   9.481 -0.5428 -1.2611 -1.2972
   11CHL1  H12B  773   5.068   2.226   9.576  0.7932  0.1383  4.1774
   11CHL1   C11  774   5.238   2.175   9.674 -0.2449  0.0622 -0.0996
   11CHL1  H11A  775   5.341   2.165   9.635 -1.0571 -0.1429 -2.3540
   11CHL1  H11B  776   5.227   2.272   9.726  0.8899  0.5431 -0.7076
   11CHL1    C9  777   5.185   2.057   9.747 -0.2262  0.3093 -0.4092
   11CHL1    H9  778   5.085   2.089   9.785 -0.9474 -0.5015 -1.5633
   11CHL1   C10  779   5.263   2.047   9.880 -0.0294 -0.4598  0.4607
   11CHL1   C19  780   5.414   2.040   9.855 -0.0975 -0.1511  0.0853
   11CHL1  H19A  781   5.439   1.970   9.772 -0.9993  2.2120 -2.3486
   11CHL1  H19B  782   5.464   2.136   9.829 -2.6334  0.9414 -1.0636
   11CHL1  H19C  783   5.469   2.022   9.949  0.5338  1.3056  0.0316
   11CHL1    C1  784   5.227   2.156   9.982 -0.0000  0.4081 -0.3364
   11CHL1   H1A  785   5.264   2.252   9.940  0.0235 -0.0195 -1.3316
   11CHL1   H1B  786   5.116   2.168   9.984 -0.1860 -1.1241 -0.4895
   11CHL1    C2  787   5.280   2.120  10.120  0.0181  0.1519 -0.7156
   11CHL1   H2A  788   5.261   2.193  10.202 -1.2968 -1.6270  0.6333
   11CHL1   H2B  789   5.390   2.110  10.111  0.1033 -0.8464  0.8946
   11CHL1   C20  790   5.102   2.145   9.210 -0.0261 -0.5227  0.0957
   11CHL1   H20  791   5.193   2.099   9.166  0.6914  0.3966  0.5705
   11CHL1   C21  792   5.132   2.299   9.220 -0.3105  0.6312 -0.7555
   11CHL1  H21A  793   5.198   2.329   9.303  0.4732 -0.0012 -1.1351
   11CHL1  H21B  794   5.041   2.362   9.229  0.2210  1.4111 -0.8006
   11CHL1  H21C  795   5.187   2.335   9.130  1.8002  0.1157  0.2864
   11CHL1   C22  796   4.998   2.133   9.095  0.0646  0.0273  0.7080
   11CHL1  H22A  797   4.949   2.033   9.097 -2.5665  1.2261  0.1602
   11CHL1  H22B  798   4.913   2.204   9.106  0.4906  0.9580 -1.4735
   11CHL1   C23  799   5.061   2.132   8.946  0.7823  0.2438 -0.4634
   11CHL1  H23A  800   5.075   2.237   8.914 -0.0778  0.4966 -0.0641
   11CHL1  H23B  801   5.158   2.079   8.946 -0.1182 -1.4938 -1.5904
   11CHL1   C24  802   4.962   2.073   8.840  0.1521 -0.3007 -0.3712
   11CHL1  H24A  803   4.963   1.963   8.830 -2.9584 -0.2804 -1.9750
   11CHL1  H24B  804   4.864   2.092   8.889 -0.1817  0.8960 -1.4476
   11CHL1   C25  805   4.976   2.136   8.707  0.6995 -0.2939  0.3385
   11CHL1   H25  806   4.956   2.245   8.720 -1.0732 -0.7349  1.5828
   11CHL1   C26  807   5.118   2.115   8.649  0.0397  0.3197  0.6777
   11CHL1  H26A  808   5.154   2.010   8.650 -0.4171  0.1388 -0.3861
   11CHL1  H26B  809   5.127   2.141   8.542  1.6816  2.7976  1.3470
   11CHL1  H26C  810   5.189   2.182   8.702  0.3823 -0.5903  1.3862
   11CHL1   C27  811   4.867   2.081   8.602  0.0113 -0.0172 -0.0692
   11CHL1  H27A  812   4.880   2.120   8.499 -1.0756 -0.6651 -0.4623
   11CHL1  H27B  813   4.882   1.971   8.597  2.3964  0.2362  0.1481
   11CHL1  H27C  814   4.767   2.100   8.645 -0.1263 -1.1543  0.1376
   12CHL1    C3  815   3.836   2.827  10.638  0.9018  0.1012  0.1597
   12CHL1    H3  816   3.726   2.821  10.624  0.7586  2.0942  0.2443
   12CHL1    O3  817   3.869   2.827  10.777  0.1996  0.2129 -0.5734
   12CHL1   H3'  818   3.965   2.832  10.786  0.0730 -0.2311  1.7674
   12CHL1    C4  819   3.898   2.705  10.566  0.0387  0.9216  0.1548
   12CHL1   H4A  820   4.003   2.695  10.600  0.0161 -3.5648 -0.5707
   12CHL1   H4B  821   3.867   2.606  10.606 -0.3446  0.6005 -0.8902
   12CHL1    C5  822   3.888   2.714  10.416 -0.1109  0.2451  0.6904
   12CHL1    C6  823   3.849   2.611  10.335 -0.5591 -0.1274 -0.3949
   12CHL1    H6  824   3.831   2.515  10.385 -0.7051  0.3262  0.4515
   12CHL1    C7  825   3.833   2.618  10.185 -0.0000  0.4858  0.0114
   12CHL1   H7A  826   3.856   2.515  10.148 -1.1387  0.1756  0.1215
   12CHL1   H7B  827   3.725   2.640  10.169 -0.9089 -0.3008  3.8700
   12CHL1    C8  828   3.911   2.724  10.116 -0.5341  0.2632 -0.3347
   12CHL1    H8  829   4.017   2.692  10.114 -0.8784 -0.9399  0.0793
   12CHL1   C14  830   3.853   2.738   9.978  0.4565  0.6069 -0.2641
   12CHL1   H14  831   3.746   2.764   9.991  0.3231  0.0086 -0.1204
   12CHL1   C15  832   3.861   2.617   9.879  0.2574 -0.5116  0.0665
   12CHL1  H15A  833   3.965   2.577   9.890  0.2486 -0.2108  1.3523
   12CHL1  H15B  834   3.788   2.534   9.894 -0.4151 -0.1592 -1.1385
   12CHL1   C16  835   3.844   2.677   9.739 -0.0001 -0.6842 -0.4699
   12CHL1  H16A  836   3.931   2.649   9.676 -0.3782 -2.3882 -0.2783
   12CHL1  H16B  837   3.752   2.660   9.679 -0.3192  1.6810 -0.7628
   12CHL1   C17  838   3.848   2.837   9.758  0.2805  0.6883 -0.5494
   12CHL1   H17  839   3.743   2.865   9.778 -0.0312  0.6806 -2.0776
   12CHL1   C13  840   3.919   2.852   9.895 -0.1107 -0.4224  0.0435
   12CHL1   C18  841   4.078   2.818   9.877 -0.6994  0.3272  0.5127
   12CHL1  H18A  842   4.143   2.901   9.842  0.3875 -1.6771 -2.7553
   12CHL1  H18B  843   4.122   2.780   9.972 -2.7330  0.8319  1.7067
   12CHL1  H18C  844   4.092   2.738   9.801 -0.3369 -1.1809  2.0999
   12CHL1   C12  845   3.900   2.983   9.978  0.6286  0.7829  0.2387
   12CHL1  H12A  846   3.945   3.072   9.929 -0.6343  0.4700 -1.5861
   12CHL1  H12B  847   3.790   2.992   9.976  0.5782  0.4614  0.9479
   12CHL1   C11  848   3.949   2.962  10.118 -0.4936 -0.0967  1.1570
   12CHL1  H11A  849   4.060   2.957  10.118 -0.3888 -1.4040 -2.7337
   12CHL1  H11B  850   3.923   3.056  10.171  2.6101  1.6971 -0.2222
   12CHL1    C9  851   3.886   2.851  10.194  1.1424 -0.2628 -0.0029
   12CHL1    H9  852   3.776   2.868  10.185  1.2897  0.6910 -0.1369
   12CHL1   C10  853   3.919   2.852  10.349 -0.5594 -0.0122  0.5582
   12CHL1   C19  854   4.068   2.884  10.383  0.6632 -0.2869 -0.1919
   12CHL1  H19A  855   4.138   2.830  10.315  0.8564 -1.0113  0.5545
   12CHL1  H19B  856   4.097   2.990  10.371 -0.3648 -0.0409 -0.5457
   12CHL1  H19C  857   4.105   2.852  10.483 -1.6319  0.8901  1.1116
   12CHL1    C1  858   3.834   2.954  10.423 -0.1449  0.5805  0.3573
   12CHL1   H1A  859   3.849   3.057  10.384  0.3488  0.1918 -0.5341
   12CHL1   H1B  860   3.731   2.917  10.403 -0.1890  0.9828 -0.1726
   12CHL1    C2  861   3.868   2.962  10.575  0.0299  0.0307  0.5521
   12CHL1   H2A  862   3.806   3.039  10.627 -2.4074 -2.0512  0.9088
   12CHL1   H2B  863   3.976   2.972  10.601  0.1568 -0.8009  0.3701
   12CHL1   C20  864   3.910   2.907   9.640  0.1686  0.0353 -0.3937
   12CHL1   H20  865   4.012   2.863   9.633  0.0077 -0.9247  2.2472
   12CHL1   C21  866   3.933   3.059   9.656  0.2315 -0.8645 -0.4320
   12CHL1  H21A  867   3.951   3.106   9.557  1.6518  2.6280  1.3206
   12CHL1  H21B  868   4.021   3.079   9.721  1.1415  0.5267 -2.0138
   12CHL1  H21C  869   3.851   3.118   9.702  0.0502 -0.7064 -0.9592
   12CHL1   C22  870   3.818   2.894   9.517  0.0602  0.8005 -0.0051
   12CHL1  H22A  871   3.769   2.794   9.513  1.8934 -0.1643  0.4927
   12CHL1  H22B  872   3.737   2.969   9.523  0.6834  1.5780 -1.0993
   12CHL1   C23  873   3.882   2.916   9.381  0.1083 -0.0491 -0.1823
   12CHL1  H23A  874   3.886   3.022   9.350 -0.5948  0.2842  0.8227
   12CHL1  H23B  875   3.986   2.875   9.378  0.4637  0.5998  1.6577
   12CHL1   C24  876   3.803   2.835   9.279 -0.2465 -0.1498 -0.7295
   12CHL1  H24A  877   3.792   2.725   9.296 -2.4744  0.0329 -0.6947
   12CHL1  H24B  878   3.700   2.875   9.288 -0.7322 -1.2702 -1.0515
   12CHL1   C25  879   3.844   2.868   9.134  0.2968  0.0110 -0.2286
   12CHL1   H25  880   3.855   2.979   9.131  1.9889 -0.1103 -0.0142
   12CHL1   C26  881   3.982   2.806   9.099 -0.0784 -0.0171 -0.5146
   12CHL1  H26A  882   3.982   2.695   9.097  1.4151 -0.0787  0.6862
   12CHL1  H26B  883   4.006   2.848   8.999  0.1682 -1.3010 -1.0128
   12CHL1  H26C  884   4.068   2.835   9.164 -2.2894 -0.4972  2.9017
   12CHL1   C27  885   3.749   2.811   9.040  0.3450 -0.2616 -0.0263
   12CHL1  H27A  886   3.788   2.812   8.936  3.0121 -1.8630  0.8660
   12CHL1  H27B  887   3.738   2.705   9.073 -1.2932  0.5155  2.1291
   12CHL1  H27C  888   3.651   2.860   9.054  0.8629  0.6361  0.5646
   13CHL1    C3  889   3.798   6.740  10.131 -0.0870 -0.5023  0.2089
   13CHL1    H3  890   3.687   6.748  10.125  0.0735  1.7803 -1.3591
   13CHL1    O3  891   3.830   6.720  10.266  0.0797  0.0746  0.1967
   13CHL1   H3'  892   3.819   6.808  10.301  1.1175  1.0596 -1.7855
   13CHL1    C4  893   3.839   6.621  10.046 -0.3687  0.4724 -0.3683
   13CHL1   H4A  894   3.942   6.586  10.069 -1.1648 -1.5026  0.4139
   13CHL1   H4B  895   3.786   6.531  10.086 -1.7314  1.0680 -0.7666
   13CHL1    C5  896   3.817   6.642   9.900  0.9064  0.0222 -0.6410
   13CHL1    C6  897   3.729   6.566   9.828 -0.3915  0.3676  0.1777
   13CHL1    H6  898   3.693   6.471   9.869 -2.7659  0.1513 -2.1531
   13CHL1    C7  899   3.698   6.573   9.682  0.3369 -0.0250 -0.5049
   13CHL1   H7A  900   3.715   6.474   9.633  0.4221  1.0612 -2.8168
   13CHL1   H7B  901   3.591   6.601   9.672 -0.2269 -1.4344  1.1957
   13CHL1    C8  902   3.796   6.672   9.616  0.0985 -0.3801 -0.7150
   13CHL1    H8  903   3.899   6.631   9.611  1.6682  2.5135  3.4678
   13CHL1   C14  904   3.745   6.704   9.475 -0.4577  0.1940  0.0444
   13CHL1   H14  905   3.657   6.763   9.507  1.9538  3.0773  1.8417
   13CHL1   C15  906   3.701   6.595   9.378  0.1985  0.3340 -0.3650
   13CHL1  H15A  907   3.776   6.513   9.378 -1.5074 -1.3372  0.7604
   13CHL1  H15B  908   3.616   6.533   9.414  2.3456 -2.0004  0.9654
   13CHL1   C16  909   3.698   6.673   9.246  0.1430  0.1254  0.0458
   13CHL1  H16A  910   3.748   6.606   9.172  0.9958  1.1176 -0.3019
   13CHL1  H16B  911   3.601   6.712   9.210  0.1101  1.1994  1.2525
   13CHL1   C17  912   3.779   6.811   9.265  0.3108 -0.4535 -0.4338
   13CHL1   H17  913   3.699   6.887   9.283  0.3784 -0.3121 -0.7275
   13CHL1   C13  914   3.846   6.797   9.397  0.0222 -0.0299 -0.0370
   13CHL1   C18  915   3.987   6.730   9.385  0.0141  0.8881  0.2258
   13CHL1  H18A  916   4.046   6.813   9.341 -0.4099  0.6147 -0.8943
   13CHL1  H18B  917   4.030   6.700   9.483  0.3968  0.9019  0.0668
   13CHL1  H18C  918   3.980   6.634   9.328 -0.7340 -0.3206  2.2610
   13CHL1   C12  919   3.860   6.927   9.479 -0.3788  0.2553  0.4522
   13CHL1  H12A  920   3.935   7.005   9.454 -1.2239  1.5518  1.7799
   13CHL1  H12B  921   3.762   6.979   9.478 -0.0153  0.9598  0.9607
   13CHL1   C11  922   3.910   6.897   9.618 -0.4709 -0.4152  0.6691
   13CHL1  H11A  923   4.013   6.855   9.610  0.2164  1.3637 -0.5159
   13CHL1  H11B  924   3.906   6.990   9.679 -1.9635  0.6063 -0.9224
   13CHL1    C9  925   3.825   6.795   9.699 -0.3289  0.4092 -0.2195
   13CHL1    H9  926   3.729   6.846   9.722  0.2567  1.6043 -0.3601
   13CHL1   C10  927   3.887   6.760   9.845 -0.4132 -0.4218 -0.1474
   13CHL1   C19  928   4.044   6.736   9.835  0.0441 -0.4561  0.9496
   13CHL1  H19A  929   4.082   6.667   9.757 -1.1064  0.9072 -0.9210
   13CHL1  H19B  930   4.098   6.829   9.806  1.7183 -0.8516  2.6007
   13CHL1  H19C  931   4.080   6.689   9.929  1.2006 -1.0313  0.2392
   13CHL1    C1  932   3.841   6.878   9.938 -0.7823 -0.2900 -0.0930
   13CHL1   H1A  933   3.920   6.954   9.920  1.6881 -2.5333  0.6968
   13CHL1   H1B  934   3.735   6.911   9.924 -1.0385 -1.0909 -0.0636
   13CHL1    C2  935   3.867   6.859  10.090 -0.6616  0.0146  0.5995
   13CHL1   H2A  936   3.832   6.951  10.142 -0.8306  0.5855 -0.4879
   13CHL1   H2B  937   3.978   6.855  10.101 -0.6644 -0.1470  0.5729
   13CHL1   C20  938   3.853   6.858   9.143  0.1673 -0.2258 -1.5018
   13CHL1   H20  939   3.939   6.788   9.131 -0.6320 -1.1596 -1.9119
   13CHL1   C21  940   3.919   6.997   9.157  0.4895  0.8715  0.2120
   13CHL1  H21A  941   3.986   7.023   9.072 -0.1188  1.8250  0.0112
   13CHL1  H21B  942   3.975   7.001   9.253 -0.1196 -0.3716  0.6353
   13CHL1  H21C  943   3.843   7.078   9.154  0.5602  0.9334 -0.0081
   13CHL1   C22  944   3.780   6.848   9.016  0.1788 -0.3115  0.1546
   13CHL1  H22A  945   3.760   6.742   8.987  1.2705 -0.1266 -1.3531
   13CHL1  H22B  946   3.673   6.878   9.026 -0.1593 -0.9817 -1.1594
   13CHL1   C23  947   3.838   6.924   8.893  0.4129  0.0857  0.4646
   13CHL1  H23A  948   3.828   7.033   8.911  0.0378  0.3647 -1.1945
   13CHL1  H23B  949   3.947   6.901   8.893 -0.0834 -2.7094  1.6429
   13CHL1   C24  950   3.759   6.879   8.766 -0.9148  0.2231  0.2844
   13CHL1  H24A  951   3.817   6.904   8.675 -1.0404 -0.0016  0.1435
   13CHL1  H24B  952   3.758   6.768   8.761 -0.6917  0.0987  2.0891
   13CHL1   C25  953   3.609   6.919   8.750 -0.2236  0.4416 -0.1765
   13CHL1   H25  954   3.551   6.931   8.844 -1.4204  1.7222 -1.0405
   13CHL1   C26  955   3.603   7.061   8.680  0.0861 -0.1036 -0.0069
   13CHL1  H26A  956   3.653   7.053   8.581  1.6302  0.5948  0.6728
   13CHL1  H26B  957   3.500   7.099   8.665  0.2858  0.0320 -1.1288
   13CHL1  H26C  958   3.663   7.125   8.749 -0.0047 -0.4150  0.3612
   13CHL1   C27  959   3.536   6.809   8.667 -0.0998  0.1610 -0.2678
   13CHL1  H27A  960   3.580   6.797   8.566  0.8824  2.0065 -0.1169
   13CHL1  H27B  961   3.533   6.715   8.726 -0.4084  0.2672 -0.1124
   13CHL1  H27C  962   3.429   6.835   8.658 -0.0880 -0.0020 -0.9107
   14CHL1    C3  963   6.456   3.540  10.418  0.0970  0.3057  0.0269
   14CHL1    H3  964   6.355   3.494  10.408  0.8641 -1.1858 -1.1414
   14CHL1    O3  965   6.512   3.525  10.554 -0.3860  0.1470  0.4275
   14CHL1   H3'  966   6.583   3.588  10.570  0.3098  0.1859 -2.3249
   14CHL1    C4  967   6.550   3.473  10.319 -0.8650 -0.9811 -0.0707
   14CHL1   H4A  968   6.651   3.506  10.351 -1.0713 -1.1545  0.7761
   14CHL1   H4B  969   6.563   3.364  10.335 -0.4765 -1.3140 -2.3034
   14CHL1    C5  970   6.522   3.502  10.173  0.0889  0.3633  0.0603
   14CHL1    C6  971   6.503   3.402  10.081 -0.1442  0.5666  0.3071
   14CHL1    H6  972   6.512   3.298  10.115  1.8556 -0.2783 -2.4357
   14CHL1    C7  973   6.474   3.424   9.932  0.1460  0.0763 -0.2648
   14CHL1   H7A  974   6.540   3.353   9.878  0.8045  2.9425 -3.5802
   14CHL1   H7B  975   6.365   3.419   9.913 -0.1615 -1.2545  1.5632
   14CHL1    C8  976   6.506   3.573   9.891 -0.6319 -0.1164 -0.0236
   14CHL1    H8  977   6.616   3.590   9.891 -0.7389  0.7154  1.6460
   14CHL1   C14  978   6.446   3.594   9.755 -0.1753  0.2815  0.6618
   14CHL1   H14  979   6.336   3.581   9.763 -0.0399 -2.0041 -0.3077
   14CHL1   C15  980   6.492   3.499   9.645  0.2110 -0.0770  0.0221
   14CHL1  H15A  981   6.603   3.501   9.646  0.2210  2.7366 -0.0609
   14CHL1  H15B  982   6.442   3.400   9.647  0.5602 -0.2500  0.7076
   14CHL1   C16  983   6.450   3.575   9.512  0.2255 -0.4293  0.4801
   14CHL1  H16A  984   6.546   3.566   9.457  0.4823 -0.0230  0.8479
   14CHL1  H16B  985   6.381   3.505   9.461  0.8929 -0.7346 -0.0180
   14CHL1   C17  986   6.401   3.720   9.556  0.3167 -0.2955  1.0010
   14CHL1   H17  987   6.292   3.715   9.572  0.4534 -3.5273  1.6265
   14CHL1   C13  988   6.458   3.740   9.692  1.3678 -0.0442  0.1652
   14CHL1   C18  989   6.612   3.791   9.684  0.5463  0.5806  0.4692
   14CHL1  H18A  990   6.666   3.772   9.779 -0.1064  1.1505  0.9654
   14CHL1  H18B  991   6.669   3.735   9.607 -1.2652 -1.3817  0.4761
   14CHL1  H18C  992   6.627   3.900   9.672 -0.5139  1.0547  2.8541
   14CHL1   C12  993   6.382   3.831   9.790  0.3415 -0.5148  0.0692
   14CHL1  H12A  994   6.396   3.939   9.767  0.3287 -0.6142 -0.4076
   14CHL1  H12B  995   6.272   3.818   9.790 -0.1554  2.6267 -1.7165
   14CHL1   C11  996   6.431   3.811   9.935 -0.1372  0.6133 -0.1371
   14CHL1  H11A  997   6.530   3.859   9.945  0.8188 -0.8192 -2.1309
   14CHL1  H11B  998   6.368   3.873  10.003  1.5218  1.3442  0.7752
   14CHL1    C9  999   6.436   3.668   9.993  0.2442 -0.1506  0.2934
   14CHL1    H9 1000   6.331   3.634  10.000  0.0505  0.7534  3.5985
   14CHL1   C10 1001   6.498   3.652  10.133  0.1667  0.5815 -0.7806
   14CHL1   C19 1002   6.639   3.707  10.141  0.1426 -0.3752  0.0912
   14CHL1  H19A 1003   6.636   3.816  10.121  1.9188  0.0739  1.9541
   14CHL1  H19B 1004   6.684   3.684  10.240 -0.1385 -0.6296  0.1607
   14CHL1  H19C 1005   6.698   3.657  10.061  0.0349  1.2974 -1.0912
   14CHL1    C1 1006   6.403   3.721  10.236 -0.1868 -0.3448 -0.6026
   14CHL1   H1A 1007   6.410   3.832  10.224 -0.1920 -0.4278 -1.4351
   14CHL1   H1B 1008   6.299   3.699  10.206  0.5262 -1.5948 -2.3366
   14CHL1    C2 1009   6.439   3.689  10.393  0.5485 -0.2259 -0.8645
   14CHL1   H2A 1010   6.361   3.749  10.445  0.6828  2.6040 -3.6439
   14CHL1   H2B 1011   6.537   3.737  10.412  1.1509 -1.0988 -1.6834
   14CHL1   C20 1012   6.427   3.828   9.447  0.5929  0.3262 -0.8131
   14CHL1   H20 1013   6.536   3.822   9.426  0.6010  0.6854 -0.8799
   14CHL1   C21 1014   6.389   3.967   9.487  0.5169 -0.3407 -0.2035
   14CHL1  H21A 1015   6.373   4.029   9.396 -0.9615 -0.8539 -0.3166
   14CHL1  H21B 1016   6.466   4.014   9.552 -1.3748  0.7518  1.3413
   14CHL1  H21C 1017   6.302   3.973   9.556 -0.4024  0.2967 -1.3852
   14CHL1   C22 1018   6.366   3.791   9.308  0.4494 -0.0814 -0.0113
   14CHL1  H22A 1019   6.386   3.868   9.230 -1.4034  0.9305  0.4588
   14CHL1  H22B 1020   6.412   3.698   9.270  2.3531  1.5953 -2.1419
   14CHL1   C23 1021   6.211   3.760   9.310 -0.8706 -0.1960  0.3758
   14CHL1  H23A 1022   6.204   3.665   9.368 -1.1224 -1.6587 -1.9222
   14CHL1  H23B 1023   6.155   3.836   9.369  0.0700  0.8784 -0.0888
   14CHL1   C24 1024   6.146   3.736   9.177  0.0400 -0.7587  0.0754
   14CHL1  H24A 1025   6.158   3.825   9.112 -0.5614 -2.6491 -2.8462
   14CHL1  H24B 1026   6.205   3.657   9.125  1.6937  0.8148 -0.5432
   14CHL1   C25 1027   5.999   3.687   9.176  0.9225  0.6160 -0.8084
   14CHL1   H25 1028   6.000   3.585   9.219  0.9242  1.5636  1.5647
   14CHL1   C26 1029   5.902   3.769   9.256 -0.3132  0.0741 -0.0524
   14CHL1  H26A 1030   5.797   3.733   9.252 -0.1534 -0.2869 -1.8721
   14CHL1  H26B 1031   5.941   3.780   9.360  1.4263 -1.2702 -0.5109
   14CHL1  H26C 1032   5.907   3.872   9.215  0.4251  0.8863  1.9327
   14CHL1   C27 1033   5.961   3.675   9.026 -0.0046 -0.2950  0.5727
   14CHL1  H27A 1034   6.047   3.648   8.962 -0.5511 -0.4141 -0.1325
   14CHL1  H27B 1035   5.877   3.603   9.015 -0.3940  0.2736 -0.2742
   14CHL1  H27C 1036   5.926   3.776   8.996  0.1996 -0.0773  1.0543
   15CHL1    C3 1037   1.094   6.277  10.232 -0.7884  0.8461 -0.0603
   15CHL1    H3 1038   1.036   6.183  10.246  1.2187 -0.2785  1.2516
   15CHL1    O3 1039   1.126   6.313  10.364 -0.4140 -0.0509 -0.1422
   15CHL1   H3' 1040   1.038   6.323  10.401  0.1410 -0.1324  1.2292
   15CHL1    C4 1041   1.232   6.251  10.168  0.5245 -0.5361 -0.0989
   15CHL1   H4A 1042   1.293   6.342  10.188 -0.2994  0.0314 -0.1202
   15CHL1   H4B 1043   1.275   6.166  10.226 -0.4352  0.3654  2.0443
   15CHL1    C5 1044   1.222   6.219  10.025  0.4003 -0.4072 -0.1814
   15CHL1    C6 1045   1.282   6.110   9.965 -1.4249 -1.1223 -0.1682
   15CHL1    H6 1046   1.338   6.051  10.039 -1.4244 -0.1381  0.6537
   15CHL1    C7 1047   1.286   6.075   9.824  0.5717  0.6344 -0.3803
   15CHL1   H7A 1048   1.390   6.062   9.786  0.7109  0.9876 -0.1320
   15CHL1   H7B 1049   1.222   5.985   9.814 -0.4737  1.2361  0.6252
   15CHL1    C8 1050   1.228   6.198   9.730  0.5230  0.5258 -1.3250
   15CHL1    H8 1051   1.311   6.270   9.710 -0.4004  1.9154 -0.3664
   15CHL1   C14 1052   1.180   6.138   9.600  0.7841 -0.1194 -0.1126
   15CHL1   H14 1053   1.087   6.084   9.627 -0.0368  1.9409  1.5619
   15CHL1   C15 1054   1.267   6.039   9.513 -0.7094 -0.0928 -0.2037
   15CHL1  H15A 1055   1.359   6.101   9.517  0.4242 -1.8239  2.0834
   15CHL1  H15B 1056   1.286   5.945   9.569  0.6072  0.8683  1.0208
   15CHL1   C16 1057   1.205   6.041   9.376  0.0420  0.7969 -0.4719
   15CHL1  H16A 1058   1.284   6.059   9.300  1.4028  1.9121  1.1622
   15CHL1  H16B 1059   1.154   5.948   9.341  0.3780  0.9688 -1.4614
   15CHL1   C17 1060   1.088   6.151   9.376  0.5480  0.3067  0.9828
   15CHL1   H17 1061   0.993   6.109   9.415  1.5453 -1.1334  1.9912
   15CHL1   C13 1062   1.122   6.238   9.492 -0.4414  0.5588 -0.0677
   15CHL1   C18 1063   1.240   6.333   9.457 -0.2026 -0.4070  0.2598
   15CHL1  H18A 1064   1.338   6.285   9.436  0.9270  1.9397 -0.1520
   15CHL1  H18B 1065   1.222   6.392   9.365 -0.8673 -0.7849  0.1464
   15CHL1  H18C 1066   1.263   6.413   9.531  0.4000 -0.4770  0.1588
   15CHL1   C12 1067   1.004   6.310   9.559  0.4056 -0.2780 -0.1690
   15CHL1  H12A 1068   0.973   6.399   9.500  0.3093  1.0994  1.8616
   15CHL1  H12B 1069   0.917   6.241   9.565  0.4977 -0.3430  0.4434
   15CHL1   C11 1070   1.035   6.363   9.693 -0.4026  0.1422 -1.0786
   15CHL1  H11A 1071   1.102   6.448   9.671 -0.3962  0.5566  0.4394
   15CHL1  H11B 1072   0.939   6.394   9.740 -1.1283 -0.6882 -1.9437
   15CHL1    C9 1073   1.109   6.262   9.795  0.2105 -0.1359  0.2305
   15CHL1    H9 1074   1.040   6.176   9.809  0.3970 -0.7527 -2.2202
   15CHL1   C10 1075   1.139   6.319   9.945  0.6962 -0.6222  0.8734
   15CHL1   C19 1076   1.225   6.443   9.918  0.0013  0.0861 -0.8096
   15CHL1  H19A 1077   1.255   6.484  10.017 -0.0244 -1.4723 -0.1269
   15CHL1  H19B 1078   1.322   6.418   9.870 -0.2285  0.2513 -1.3581
   15CHL1  H19C 1079   1.169   6.519   9.861 -2.7197  1.3080  3.0596
   15CHL1    C1 1080   1.006   6.356  10.023  0.1311 -0.1780 -0.0060
   15CHL1   H1A 1081   0.984   6.454   9.976  2.2004  0.3027 -0.0905
   15CHL1   H1B 1082   0.923   6.288   9.995 -1.2188  1.1827  0.5764
   15CHL1    C2 1083   1.029   6.391  10.166  0.6964  0.6768  0.1609
   15CHL1   H2A 1084   0.932   6.421  10.212 -0.4093 -2.1287 -0.1244
   15CHL1   H2B 1085   1.096   6.478  10.178  1.5948  0.0351 -0.1181
   15CHL1   C20 1086   1.044   6.213   9.236 -0.4584 -0.1358  0.0916
   15CHL1   H20 1087   1.008   6.317   9.253  1.1506  0.3601  0.6991
   15CHL1   C21 1088   0.927   6.130   9.177 -0.5347  0.0681 -0.6694
   15CHL1  H21A 1089   0.855   6.120   9.261  2.0492 -0.5317  1.6256
   15CHL1  H21B 1090   0.974   6.032   9.157  1.2874  0.3670  1.6782
   15CHL1  H21C 1091   0.885   6.183   9.089  2.5816  1.0454 -1.7011
   15CHL1   C22 1092   1.159   6.227   9.128 -0.1573 -0.0696 -0.2178
   15CHL1  H22A 1093   1.238   6.285   9.180 -1.0534  1.6056 -0.6578
   15CHL1  H22B 1094   1.192   6.127   9.093  1.7789 -0.0300  1.3111
   15CHL1   C23 1095   1.121   6.312   9.002 -0.6891 -0.1473 -0.0041
   15CHL1  H23A 1096   1.050   6.256   8.938 -3.3633  0.0967  2.5289
   15CHL1  H23B 1097   1.068   6.401   9.043  0.5810  0.9283 -0.6097
   15CHL1   C24 1098   1.253   6.366   8.932 -0.3299 -0.2087  0.3657
   15CHL1  H24A 1099   1.309   6.430   9.005 -1.4167 -1.2498  2.2026
   15CHL1  H24B 1100   1.313   6.281   8.895 -0.0618  0.5056 -0.8831
   15CHL1   C25 1101   1.232   6.462   8.814  0.1591  0.4439 -1.0267
   15CHL1   H25 1102   1.181   6.552   8.854  1.9229  1.3398 -0.7144
   15CHL1   C26 1103   1.367   6.517   8.765  0.6029 -0.2838  0.4892
   15CHL1  H26A 1104   1.411   6.577   8.848  1.0112 -0.3886  0.3483
   15CHL1  H26B 1105   1.427   6.425   8.748  0.0500 -0.3689 -1.1269
   15CHL1  H26C 1106   1.347   6.565   8.667 -0.8536 -4.5048 -1.5297
   15CHL1   C27 1107   1.150   6.401   8.694 -0.0121 -0.1578 -0.0612
   15CHL1  H27A 1108   1.056   6.356   8.734  0.1557  0.5898  1.2337
   15CHL1  H27B 1109   1.141   6.470   8.608  1.8365  0.1868 -0.0125
   15CHL1  H27C 1110   1.199   6.306   8.663  0.4604  0.0647 -0.0070
   16CHL1    C3 1111   1.767   1.174  10.458  0.3754  0.0854 -0.1658
   16CHL1    H3 1112   1.836   1.260  10.476  0.8985 -0.5219  0.8136
   16CHL1    O3 1113   1.747   1.112  10.590  0.3893 -0.3690  0.3328
   16CHL1   H3' 1114   1.736   1.017  10.582  1.4400 -0.3786 -1.9386
   16CHL1    C4 1115   1.629   1.207  10.396  0.5150  0.5784  0.7253
   16CHL1   H4A 1116   1.569   1.114  10.398  1.0413  0.2153  0.2614
   16CHL1   H4B 1117   1.578   1.263  10.477  0.4893 -0.8113  1.7078
   16CHL1    C5 1118   1.647   1.270  10.262 -0.8123 -0.5059  0.2639
   16CHL1    C6 1119   1.596   1.390  10.242  0.8039 -0.2348  0.7467
   16CHL1    H6 1120   1.539   1.446  10.318 -0.5328 -1.5572  0.7667
   16CHL1    C7 1121   1.591   1.459  10.109  1.1773  0.2194  0.9927
   16CHL1   H7A 1122   1.493   1.506  10.085  0.3687 -2.2033 -0.8275
   16CHL1   H7B 1123   1.665   1.542  10.105  0.2198  1.0659  0.0487
   16CHL1    C8 1124   1.628   1.357   9.988  0.5827 -0.1175  0.5749
   16CHL1    H8 1125   1.535   1.299   9.972 -0.3794  1.4901  0.1526
   16CHL1   C14 1126   1.656   1.437   9.857 -0.2524  1.0738  0.4175
   16CHL1   H14 1127   1.748   1.497   9.867  1.7318 -1.2958 -2.1174
   16CHL1   C15 1128   1.547   1.530   9.818 -0.0329 -0.2977 -0.1870
   16CHL1  H15A 1129   1.451   1.477   9.836 -1.0026  2.0210  2.0844
   16CHL1  H15B 1130   1.551   1.614   9.891  0.8456 -2.7158  2.7370
   16CHL1   C16 1131   1.566   1.556   9.671 -0.2632 -0.0081 -0.1390
   16CHL1  H16A 1132   1.478   1.514   9.618 -1.0366 -0.7977  1.7108
   16CHL1  H16B 1133   1.584   1.662   9.640  2.7248  0.0283  1.3549
   16CHL1   C17 1134   1.696   1.472   9.637  0.0134 -0.5604  0.1030
   16CHL1   H17 1135   1.783   1.536   9.661  0.7582 -1.1492 -0.9701
   16CHL1   C13 1136   1.695   1.355   9.741 -0.3314  0.1760  0.1487
   16CHL1   C18 1137   1.593   1.247   9.696  0.4563 -0.1066 -0.7488
   16CHL1  H18A 1138   1.493   1.282   9.663  0.8337 -1.8024 -4.1192
   16CHL1  H18B 1139   1.626   1.195   9.603 -1.8540  0.6334 -2.0823
   16CHL1  H18C 1140   1.571   1.180   9.782  0.7241  0.5427 -0.1668
   16CHL1   C12 1141   1.823   1.280   9.783 -0.2064  0.2931 -1.1227
   16CHL1  H12A 1142   1.851   1.210   9.701 -1.6249 -1.4051 -0.2415
   16CHL1  H12B 1143   1.905   1.351   9.808 -1.1110  0.6564  1.0432
   16CHL1   C11 1144   1.809   1.191   9.910  0.1436 -0.3750 -0.2972
   16CHL1  H11A 1145   1.743   1.110   9.870  1.0541 -0.6561 -1.2557
   16CHL1  H11B 1146   1.897   1.130   9.939 -1.2854 -2.3768  0.0616
   16CHL1    C9 1147   1.747   1.268  10.026 -0.2264  0.4567 -1.1207
   16CHL1    H9 1148   1.828   1.339  10.052  2.5554 -2.0230 -2.3902
   16CHL1   C10 1149   1.731   1.195  10.162 -0.6311  0.1312 -0.2518
   16CHL1   C19 1150   1.653   1.065  10.127  0.4164  0.6367  0.4758
   16CHL1  H19A 1151   1.721   1.006  10.062 -1.5507 -3.9472  2.1028
   16CHL1  H19B 1152   1.633   1.002  10.217 -1.8251  0.9711  0.2679
   16CHL1  H19C 1153   1.555   1.096  10.086  0.8397 -0.4775 -1.4859
   16CHL1    C1 1154   1.867   1.152  10.223 -0.9075  0.2315  0.0886
   16CHL1   H1A 1155   1.918   1.075  10.161  1.1956 -0.1227  2.1047
   16CHL1   H1B 1156   1.933   1.241  10.235 -0.4976  0.0478 -0.7361
   16CHL1    C2 1157   1.851   1.090  10.362 -0.6543 -0.8800 -0.0556
   16CHL1   H2A 1158   1.952   1.079  10.406  0.0192  1.9340 -0.7144
   16CHL1   H2B 1159   1.804   0.989  10.363  1.3682 -1.8814  0.0013
   16CHL1   C20 1160   1.702   1.431   9.492 -0.0422  0.0966  0.2965
   16CHL1   H20 1161   1.612   1.369   9.470 -0.6787  1.3082 -0.6724
   16CHL1   C21 1162   1.833   1.359   9.453 -0.2045 -0.3262 -0.0612
   16CHL1  H21A 1163   1.922   1.409   9.497 -0.6801  0.1253  0.4038
   16CHL1  H21B 1164   1.832   1.355   9.342 -0.7364  0.4314 -0.0860
   16CHL1  H21C 1165   1.810   1.258   9.493  0.3787 -0.0691  0.9591
   16CHL1   C22 1166   1.684   1.552   9.395  0.6326 -0.2259  0.2137
   16CHL1  H22A 1167   1.659   1.503   9.299 -2.6898 -1.1185  1.4013
   16CHL1  H22B 1168   1.589   1.608   9.407  1.3274  1.4316 -1.6248
   16CHL1   C23 1169   1.805   1.652   9.384 -0.5731 -0.5682 -0.6476
   16CHL1  H23A 1170   1.802   1.720   9.472  1.3556 -0.1938 -0.8363
   16CHL1  H23B 1171   1.896   1.589   9.380 -1.9932 -2.9704  1.3122
   16CHL1   C24 1172   1.795   1.731   9.258  0.0046 -0.2392 -0.1035
   16CHL1  H24A 1173   1.782   1.663   9.171  2.2681 -1.2693  0.2939
   16CHL1  H24B 1174   1.703   1.793   9.250  0.3333  0.1751 -0.8252
   16CHL1   C25 1175   1.910   1.822   9.233 -0.9587 -0.1378 -0.2148
   16CHL1   H25 1176   2.002   1.760   9.230  1.1425  2.7945 -0.4974
   16CHL1   C26 1177   1.910   1.880   9.098 -0.2643 -0.0174  0.2829
   16CHL1  H26A 1178   1.923   1.806   9.015 -0.0921  2.1060 -1.6724
   16CHL1  H26B 1179   1.815   1.931   9.072 -0.6402 -0.2408  1.1931
   16CHL1  H26C 1180   1.998   1.948   9.090 -0.7124  0.3471 -3.0852
   16CHL1   C27 1181   1.915   1.937   9.339 -0.3892 -0.1486  0.2152
   16CHL1  H27A 1182   1.929   1.896   9.441 -1.5616  1.4305  1.0445
   16CHL1  H27B 1183   2.007   1.996   9.316  0.6850 -2.0297 -0.6347
   16CHL1  H27C 1184   1.819   1.993   9.341  0.1066  1.0377 -2.9912
   17CHL1    C3 1185   4.997   5.913  10.335 -0.0315  0.5442 -0.0897
   17CHL1    H3 1186   4.896   5.935  10.375 -0.4630 -1.0016 -0.2572
   17CHL1    O3 1187   5.088   5.889  10.441 -0.6760 -0.0047  0.1128
   17CHL1   H3' 1188   5.101   5.971  10.489 -1.8151  0.3536 -0.1565
   17CHL1    C4 1189   4.989   5.783  10.259 -0.1979  0.2530  0.3412
   17CHL1   H4A 1190   5.089   5.735  10.256 -0.8889 -1.6352  3.1043
   17CHL1   H4B 1191   4.939   5.714  10.331  0.8526 -0.6667  0.2083
   17CHL1    C5 1192   4.928   5.783  10.120 -0.2865 -0.8824  1.1917
   17CHL1    C6 1193   4.834   5.698  10.083 -0.3696  0.0248 -0.4282
   17CHL1    H6 1194   4.786   5.633  10.158 -1.5446  1.0489 -0.2842
   17CHL1    C7 1195   4.780   5.687   9.944  0.4708  0.1637  0.6675
   17CHL1   H7A 1196   4.754   5.582   9.916  0.5836  1.1087 -3.6534
   17CHL1   H7B 1197   4.689   5.751   9.937  1.5935  1.8603  1.1587
   17CHL1    C8 1198   4.875   5.750   9.836 -0.1535  0.5656 -0.8100
   17CHL1    H8 1199   4.964   5.685   9.821 -1.6576 -1.1785 -2.8996
   17CHL1   C14 1200   4.806   5.755   9.703 -0.7293 -0.0680 -0.9443
   17CHL1   H14 1201   4.710   5.810   9.715 -0.2755  0.3527  1.3268
   17CHL1   C15 1202   4.773   5.621   9.646  0.0617  0.5612  0.0533
   17CHL1  H15A 1203   4.850   5.542   9.655  0.0574  0.6513  1.0850
   17CHL1  H15B 1204   4.679   5.586   9.695  0.9724 -1.0887  0.7024
   17CHL1   C16 1205   4.754   5.654   9.493 -0.1805  0.0283  0.1196
   17CHL1  H16A 1206   4.821   5.592   9.431 -1.2166  0.0937 -1.1072
   17CHL1  H16B 1207   4.648   5.638   9.463 -0.8917 -0.6881  2.7109
   17CHL1   C17 1208   4.793   5.808   9.472 -0.5770 -0.0367 -0.3685
   17CHL1   H17 1209   4.701   5.869   9.488 -0.3307  0.3203 -0.2968
   17CHL1   C13 1210   4.885   5.834   9.596  0.0990 -0.1466  0.4094
   17CHL1   C18 1211   5.023   5.775   9.572 -0.3875  0.1295  0.5001
   17CHL1  H18A 1212   5.015   5.692   9.498 -0.3036 -0.9423  1.6553
   17CHL1  H18B 1213   5.097   5.848   9.532 -1.7495  0.9735 -0.5353
   17CHL1  H18C 1214   5.072   5.739   9.666 -2.3298  2.8624  2.7233
   17CHL1   C12 1215   4.897   5.981   9.662 -0.3697 -0.3583 -0.1010
   17CHL1  H12A 1216   4.943   6.041   9.580 -0.2568 -0.5489 -0.1782
   17CHL1  H12B 1217   4.793   6.013   9.684 -0.3556 -0.9810  0.9490
   17CHL1   C11 1218   4.985   5.986   9.789 -0.2295  0.0732 -0.1264
   17CHL1  H11A 1219   5.087   5.946   9.771 -0.5444 -1.1740  0.7629
   17CHL1  H11B 1220   4.993   6.090   9.826 -1.5543  0.4985 -0.9639
   17CHL1    C9 1221   4.915   5.894   9.897  0.6215 -0.2392  0.5623
   17CHL1    H9 1222   4.822   5.952   9.916  1.1251  2.3848 -3.6299
   17CHL1   C10 1223   4.991   5.874  10.027  0.2732 -0.4252 -0.1651
   17CHL1   C19 1224   5.135   5.822   9.995 -0.1257 -0.3245 -1.4051
   17CHL1  H19A 1225   5.133   5.729   9.934 -1.4918 -0.7572 -0.7352
   17CHL1  H19B 1226   5.194   5.900   9.941  0.0112  0.8990  0.4338
   17CHL1  H19C 1227   5.193   5.799  10.086  0.9548  1.9760 -1.4394
   17CHL1    C1 1228   4.990   6.011  10.101  0.0503 -0.4810  0.1669
   17CHL1   H1A 1229   5.043   6.089  10.042 -1.7976  1.3010  0.7288
   17CHL1   H1B 1230   4.880   6.028  10.099  0.1465  0.1219 -1.1788
   17CHL1    C2 1231   5.048   6.017  10.240 -0.7463 -0.2009 -0.3376
   17CHL1   H2A 1232   5.026   6.115  10.288 -1.7263 -0.4210 -0.3178
   17CHL1   H2B 1233   5.157   6.033  10.234 -0.6176 -1.2703 -1.0965
   17CHL1   C20 1234   4.838   5.822   9.323 -0.2716  0.1651 -0.9261
   17CHL1   H20 1235   4.917   5.748   9.298 -0.0482  0.9524 -2.7509
   17CHL1   C21 1236   4.902   5.962   9.305 -0.7351  0.5723 -0.4760
   17CHL1  H21A 1237   5.000   5.963   9.357 -0.4446 -1.4708 -0.9048
   17CHL1  H21B 1238   4.830   6.042   9.335 -0.8554 -0.2580  1.6611
   17CHL1  H21C 1239   4.931   5.984   9.200 -0.0309  1.4637 -0.1124
   17CHL1   C22 1240   4.718   5.799   9.228 -0.2467 -0.5370  0.4311
   17CHL1  H22A 1241   4.662   5.709   9.261 -2.2058  0.4963  0.0604
   17CHL1  H22B 1242   4.642   5.879   9.240 -2.0939 -2.2472  0.6041
   17CHL1   C23 1243   4.758   5.775   9.080 -0.1965 -0.1922 -0.4985
   17CHL1  H23A 1244   4.792   5.869   9.030 -0.2791  0.5673  0.8433
   17CHL1  H23B 1245   4.843   5.705   9.073 -0.0802 -0.0356 -0.6866
   17CHL1   C24 1246   4.644   5.730   8.993  0.8635  0.5552  0.7524
   17CHL1  H24A 1247   4.598   5.640   9.040 -1.0910 -0.2415 -2.3857
   17CHL1  H24B 1248   4.561   5.804   8.990 -1.7091 -2.0720 -3.5221
   17CHL1   C25 1249   4.671   5.695   8.847  0.2185 -0.2082  0.3123
   17CHL1   H25 1250   4.729   5.771   8.790  0.7342  0.3087  1.4949
   17CHL1   C26 1251   4.753   5.562   8.840  0.7834 -0.0087 -0.7682
   17CHL1  H26A 1252   4.698   5.497   8.911  1.6799  0.6486  0.5761
   17CHL1  H26B 1253   4.736   5.527   8.736 -3.4625 -0.8824  0.0362
   17CHL1  H26C 1254   4.857   5.574   8.876  0.2079  0.5735  0.7592
   17CHL1   C27 1255   4.536   5.666   8.784  0.0580  0.1020  0.7581
   17CHL1  H27A 1256   4.475   5.758   8.794  1.1568  0.9615 -0.1814
   17CHL1  H27B 1257   4.544   5.648   8.674 -0.3927  2.2070  0.3375
   17CHL1  H27C 1258   4.496   5.573   8.831  0.8397 -0.3742  0.4919
   18CHL1    C3 1259   3.829   4.497  10.332  0.1372  0.1440 -0.1167
   18CHL1    H3 1260   3.886   4.411  10.291 -1.1867 -1.1507  0.6578
   18CHL1    O3 1261   3.848   4.496  10.473 -0.0233 -0.2152  0.2102
   18CHL1   H3' 1262   3.797   4.572  10.503  0.9433 -0.2156  2.0237
   18CHL1    C4 1263   3.890   4.624  10.258  0.3518 -0.4982  0.6019
   18CHL1   H4A 1264   3.856   4.717  10.309  2.2560  1.1417 -0.9468
   18CHL1   H4B 1265   4.000   4.623  10.278  0.4433  0.5140  0.2303
   18CHL1    C5 1266   3.859   4.635  10.106  0.6725 -1.0195 -0.5126
   18CHL1    C6 1267   3.958   4.655  10.019 -0.1409  0.1959 -0.5189
   18CHL1    H6 1268   4.064   4.658  10.047 -0.3410 -0.9432  0.4379
   18CHL1    C7 1269   3.951   4.654   9.872 -0.0665  0.1709  0.2890
   18CHL1   H7A 1270   4.006   4.732   9.816  0.6358  0.0473  0.7815
   18CHL1   H7B 1271   3.995   4.558   9.837  2.6844  1.7120 -0.8359
   18CHL1    C8 1272   3.801   4.661   9.829 -0.0773 -0.6596 -0.1712
   18CHL1    H8 1273   3.766   4.764   9.855 -1.1314 -1.4580  1.8094
   18CHL1   C14 1274   3.782   4.629   9.687  0.8610  0.3804 -0.0675
   18CHL1   H14 1275   3.820   4.526   9.673  1.9192  0.3427  2.4388
   18CHL1   C15 1276   3.865   4.707   9.590  0.2382 -0.4451  0.2370
   18CHL1  H15A 1277   3.877   4.814   9.620 -0.8877 -0.3952  0.5499
   18CHL1  H15B 1278   3.965   4.659   9.588  1.0161  1.0880  0.4460
   18CHL1   C16 1279   3.796   4.695   9.457 -0.7241  0.3079  0.5822
   18CHL1  H16A 1280   3.755   4.791   9.420 -0.7526 -0.7307 -2.2757
   18CHL1  H16B 1281   3.862   4.664   9.373 -0.0586  0.7023  0.9520
   18CHL1   C17 1282   3.672   4.596   9.482 -0.1355  0.2428 -0.1047
   18CHL1   H17 1283   3.712   4.494   9.469 -2.4132 -0.7286  0.0899
   18CHL1   C13 1284   3.640   4.618   9.626  0.3266 -0.2619  0.0271
   18CHL1   C18 1285   3.564   4.752   9.638 -0.0291 -0.1969 -0.6868
   18CHL1  H18A 1286   3.467   4.752   9.583 -0.7983 -2.6598  0.5599
   18CHL1  H18B 1287   3.538   4.773   9.744  0.5525  0.2896 -0.6359
   18CHL1  H18C 1288   3.632   4.835   9.611 -1.7705  1.8019  0.7291
   18CHL1   C12 1289   3.567   4.510   9.693 -0.2666 -0.3270 -0.9800
   18CHL1  H12A 1290   3.463   4.504   9.656 -0.5310  1.4320 -0.6201
   18CHL1  H12B 1291   3.617   4.412   9.674 -0.6812 -0.8509  0.5059
   18CHL1   C11 1292   3.570   4.535   9.851  0.0106 -0.3157  0.8047
   18CHL1  H11A 1293   3.498   4.618   9.861 -0.5040  0.0742 -4.0416
   18CHL1  H11B 1294   3.536   4.441   9.899  0.3808 -0.2787  1.1500
   18CHL1    C9 1295   3.713   4.570   9.914 -0.1352 -0.2999  0.4044
   18CHL1    H9 1296   3.769   4.474   9.906 -0.6535 -0.5139 -0.9180
   18CHL1   C10 1297   3.714   4.610  10.065  0.5800 -0.0038  0.1250
   18CHL1   C19 1298   3.629   4.742  10.082 -0.4607 -0.1897  0.5399
   18CHL1  H19A 1299   3.651   4.822  10.008 -0.8012  0.6472  1.3304
   18CHL1  H19B 1300   3.521   4.725  10.061 -0.2207 -2.0319  0.5662
   18CHL1  H19C 1301   3.632   4.770  10.189 -0.8417  0.8216  0.2930
   18CHL1    C1 1302   3.655   4.487  10.148  0.4872 -0.5607  0.4596
   18CHL1   H1A 1303   3.549   4.476  10.119  1.0468 -1.3314 -1.3839
   18CHL1   H1B 1304   3.697   4.393  10.108  0.7567  0.7399 -2.5469
   18CHL1    C2 1305   3.680   4.486  10.299  0.3749  0.3256 -0.0768
   18CHL1   H2A 1306   3.637   4.394  10.344 -0.7172  0.8294 -0.0471
   18CHL1   H2B 1307   3.634   4.579  10.339  1.8879  0.8385  0.5459
   18CHL1   C20 1308   3.570   4.624   9.368  0.1781 -0.0236 -0.0085
   18CHL1   H20 1309   3.537   4.728   9.389  0.1514 -0.1587  0.6321
   18CHL1   C21 1310   3.437   4.540   9.371 -0.6749 -0.9561 -0.2950
   18CHL1  H21A 1311   3.371   4.586   9.295 -0.4912  2.2252  1.3025
   18CHL1  H21B 1312   3.391   4.532   9.472  0.0358  2.4055  0.3916
   18CHL1  H21C 1313   3.470   4.439   9.337  2.7014  0.3552 -1.3306
   18CHL1   C22 1314   3.628   4.620   9.226 -0.4429 -0.5118  0.5136
   18CHL1  H22A 1315   3.708   4.697   9.220 -1.3010  0.3178 -0.9050
   18CHL1  H22B 1316   3.667   4.518   9.205  1.8694  0.4370 -0.0632
   18CHL1   C23 1317   3.533   4.668   9.114 -0.0837  0.2881 -0.3288
   18CHL1  H23A 1318   3.434   4.618   9.104  0.5322 -0.8107 -1.2737
   18CHL1  H23B 1319   3.517   4.776   9.131 -5.8743 -0.4771  0.9095
   18CHL1   C24 1320   3.594   4.656   8.979 -0.3363 -0.4024  0.4928
   18CHL1  H24A 1321   3.703   4.676   8.976 -0.6390  1.6062  1.4156
   18CHL1  H24B 1322   3.578   4.552   8.943 -0.6074  0.2028 -1.2189
   18CHL1   C25 1323   3.537   4.749   8.870 -0.3922 -0.5304 -0.5932
   18CHL1   H25 1324   3.551   4.854   8.904 -0.0867 -1.1275  1.1987
   18CHL1   C26 1325   3.626   4.736   8.745  0.1582  0.1719  0.2174
   18CHL1  H26A 1326   3.708   4.811   8.752 -0.5386  1.1350 -1.4858
   18CHL1  H26B 1327   3.673   4.635   8.735  0.8660  0.4131  0.9556
   18CHL1  H26C 1328   3.572   4.766   8.654  0.0907  0.3931  0.3301
   18CHL1   C27 1329   3.392   4.732   8.837  0.4455 -0.0852 -0.7181
   18CHL1  H27A 1330   3.327   4.753   8.925  1.3596  1.9292 -0.4514
   18CHL1  H27B 1331   3.360   4.805   8.760  0.4365  0.1563 -0.4866
   18CHL1  H27C 1332   3.368   4.633   8.793 -2.5488  0.3563 -0.3343
   19CHL1    C3 1333   0.359   2.043  10.148  0.0977  0.1022 -0.2344
   19CHL1    H3 1334   0.371   2.153  10.161 -1.9188  0.2401  0.8019
   19CHL1    O3 1335   0.364   1.977  10.276 -0.0429  0.3647  0.2758
   19CHL1   H3' 1336   0.321   1.893  10.257 -0.8848  0.7188  0.5690
   19CHL1    C4 1337   0.222   2.036  10.085 -0.1506  0.5762 -0.2646
   19CHL1   H4A 1338   0.187   1.931  10.095  0.5598  0.3936  0.3868
   19CHL1   H4B 1339   0.163   2.106  10.147 -0.5530  0.2927 -0.3216
   19CHL1    C5 1340   0.207   2.072   9.942  0.7195 -0.1959  0.2747
   19CHL1    C6 1341   0.100   2.156   9.910  0.4819  0.4936 -0.4194
   19CHL1    H6 1342   0.026   2.189   9.984 -0.3636 -1.9567 -0.0772
   19CHL1    C7 1343   0.077   2.190   9.770 -0.1180 -0.0162  0.3957
   19CHL1   H7A 1344  -0.026   2.189   9.729  0.9338 -0.6907 -2.4141
   19CHL1   H7B 1345   0.116   2.292   9.755 -0.1362  0.1908  1.6401
   19CHL1    C8 1346   0.149   2.102   9.672 -0.6340  0.3758 -0.4553
   19CHL1    H8 1347   0.098   2.003   9.671 -1.4852  0.7889  0.4533
   19CHL1   C14 1348   0.140   2.170   9.536 -0.0910  0.3760 -0.3760
   19CHL1   H14 1349   0.173   2.273   9.562 -4.5258  1.8114  0.3554
   19CHL1   C15 1350  -0.001   2.191   9.477  0.1434 -0.1197 -0.5904
   19CHL1  H15A 1351  -0.052   2.093   9.486 -1.0865  0.6804  2.1891
   19CHL1  H15B 1352  -0.067   2.269   9.521 -1.8345 -1.4953 -0.9893
   19CHL1   C16 1353   0.026   2.219   9.332 -0.3568  0.0868 -0.7757
   19CHL1  H16A 1354  -0.048   2.167   9.267 -1.7657  1.2994 -0.1934
   19CHL1  H16B 1355   0.007   2.327   9.314  1.0286  0.5250  0.1866
   19CHL1   C17 1356   0.172   2.185   9.308 -0.3068  0.3516  0.3332
   19CHL1   H17 1357   0.219   2.284   9.322 -0.7963  0.3173  2.8104
   19CHL1   C13 1358   0.225   2.103   9.430  0.3109 -0.0437 -0.2085
   19CHL1   C18 1359   0.179   1.955   9.410  0.3481  0.0555  0.8289
   19CHL1  H18A 1360   0.074   1.939   9.377  0.8141  1.7228 -1.7706
   19CHL1  H18B 1361   0.242   1.904   9.333  1.3679  1.7404  0.4964
   19CHL1  H18C 1362   0.189   1.894   9.502 -0.7540 -0.1199  0.8468
   19CHL1   C12 1363   0.370   2.104   9.464 -0.5732 -0.4869  0.1350
   19CHL1  H12A 1364   0.426   2.035   9.398 -1.8621 -1.6514  0.2334
   19CHL1  H12B 1365   0.397   2.212   9.457 -1.4098 -0.3724 -2.1658
   19CHL1   C11 1366   0.390   2.032   9.598 -0.2919 -0.0856 -0.5728
   19CHL1  H11A 1367   0.377   1.922   9.599  0.6411 -0.2275  1.2733
   19CHL1  H11B 1368   0.494   2.057   9.628 -0.4973  0.3184 -0.1809
   19CHL1    C9 1369   0.298   2.088   9.713 -0.3952 -0.5948  0.2814
   19CHL1    H9 1370   0.340   2.189   9.729  0.6143 -1.1435  1.2465
   19CHL1   C10 1371   0.311   2.020   9.851 -0.1064  0.0478  0.1625
   19CHL1   C19 1372   0.285   1.865   9.836  0.2871 -0.1433  0.3741
   19CHL1  H19A 1373   0.369   1.817   9.781 -1.6354 -1.9979 -1.1114
   19CHL1  H19B 1374   0.279   1.806   9.930 -1.7184 -0.9133 -0.1952
   19CHL1  H19C 1375   0.196   1.831   9.779 -0.0444  0.2970  0.6247
   19CHL1    C1 1376   0.454   2.055   9.912  0.3098  0.3787  0.8642
   19CHL1   H1A 1377   0.531   2.027   9.837  0.3022  1.1433  0.5595
   19CHL1   H1B 1378   0.470   2.162   9.935  0.4810  0.8398 -1.2152
   19CHL1    C2 1379   0.468   1.989  10.051  0.2901  0.3936  0.3813
   19CHL1   H2A 1380   0.569   2.015  10.090  1.0799  2.1085 -2.5037
   19CHL1   H2B 1381   0.455   1.879  10.049  2.5320 -0.0301  3.0901
   19CHL1   C20 1382   0.199   2.130   9.163 -0.2849 -0.4873 -0.1002
   19CHL1   H20 1383   0.131   2.042   9.158 -0.4973 -0.4173  1.3162
   19CHL1   C21 1384   0.343   2.083   9.129 -0.2835  0.3859 -0.4118
   19CHL1  H21A 1385   0.378   2.010   9.206  1.2179  1.8201  0.3459
   19CHL1  H21B 1386   0.412   2.169   9.140  0.0994  0.0112  0.2580
   19CHL1  H21C 1387   0.354   2.030   9.032 -1.2978 -2.2783  0.8122
   19CHL1   C22 1388   0.153   2.230   9.052 -0.0174  0.1906  0.2859
   19CHL1  H22A 1389   0.060   2.279   9.087  0.7159  0.9607  1.1988
   19CHL1  H22B 1390   0.227   2.313   9.046  0.5781 -0.1401  2.3720
   19CHL1   C23 1391   0.142   2.162   8.915 -0.1119  0.2832 -0.2042
   19CHL1  H23A 1392   0.245   2.174   8.874 -0.2451  0.3440 -0.5255
   19CHL1  H23B 1393   0.107   2.057   8.927 -0.6079  0.4690  0.0147
   19CHL1   C24 1394   0.035   2.230   8.828  0.5458  0.2385  0.5292
   19CHL1  H24A 1395  -0.044   2.260   8.899 -0.0884  0.0523 -0.0900
   19CHL1  H24B 1396   0.066   2.331   8.794 -0.6899 -0.3341 -2.7023
   19CHL1   C25 1397  -0.031   2.135   8.727  0.5041 -0.7944 -0.0337
   19CHL1   H25 1398  -0.075   2.047   8.779 -0.5862 -0.1593  0.1440
   19CHL1   C26 1399  -0.157   2.194   8.655 -0.6932  0.0813  0.3615
   19CHL1  H26A 1400  -0.139   2.192   8.546 -3.6012 -2.2137 -0.1981
   19CHL1  H26B 1401  -0.253   2.141   8.671 -0.3360 -1.1139 -1.2368
   19CHL1  H26C 1402  -0.166   2.301   8.684  1.7032  0.3902  0.2230
   19CHL1   C27 1403   0.063   2.081   8.618  0.3263  0.2259 -0.0929
   19CHL1  H27A 1404   0.074   2.156   8.537  2.6666  0.0007 -0.0568
   19CHL1  H27B 1405   0.159   2.063   8.671 -0.4671  1.5486  1.9297
   19CHL1  H27C 1406   0.033   1.982   8.576  0.8527  0.3188 -0.7034
   20CHL1    C3 1407   3.495   0.986  10.355  0.2894 -0.0066 -0.6960
   20CHL1    H3 1408   3.523   0.884  10.319 -0.0060 -0.3953  0.1584
   20CHL1    O3 1409   3.474   0.989  10.498  0.0348 -0.4881 -0.1230
   20CHL1   H3' 1410   3.399   1.047  10.514  1.7529  1.7012  0.6295
   20CHL1    C4 1411   3.611   1.078  10.328 -0.0366  0.6812 -0.6856
   20CHL1   H4A 1412   3.574   1.171  10.376 -0.8534 -1.1141  2.4061
   20CHL1   H4B 1413   3.693   1.032  10.386 -1.1358 -1.6136 -0.8283
   20CHL1    C5 1414   3.644   1.100  10.181 -0.2943  0.1573 -0.3878
   20CHL1    C6 1415   3.767   1.085  10.131 -0.2816 -0.0547 -0.1307
   20CHL1    H6 1416   3.839   1.064  10.211 -0.2317  2.2782  0.5219
   20CHL1    C7 1417   3.807   1.104   9.990  0.8310  0.5585 -0.4128
   20CHL1   H7A 1418   3.908   1.148   9.997  2.3784 -2.7834  0.3649
   20CHL1   H7B 1419   3.819   1.006   9.937  1.8935  0.7956 -0.6281
   20CHL1    C8 1420   3.698   1.176   9.906 -0.3468  0.1223  0.1711
   20CHL1    H8 1421   3.709   1.280   9.943  3.0553 -0.4957  1.2410
   20CHL1   C14 1422   3.731   1.177   9.755 -0.2073  0.1147  0.0046
   20CHL1   H14 1423   3.725   1.074   9.715 -0.0783  0.3593 -0.6548
   20CHL1   C15 1424   3.869   1.230   9.719  0.3737 -0.0585 -0.1229
   20CHL1  H15A 1425   3.883   1.325   9.776  1.9872 -0.0907 -0.4083
   20CHL1  H15B 1426   3.945   1.154   9.746  0.2469 -0.5006 -0.9863
   20CHL1   C16 1427   3.858   1.243   9.570 -0.8343 -0.1526  0.2826
   20CHL1  H16A 1428   3.896   1.346   9.552 -0.1866 -0.5227 -0.5342
   20CHL1  H16B 1429   3.924   1.172   9.516  0.0107  0.6794  0.1815
   20CHL1   C17 1430   3.711   1.235   9.535  0.4537 -0.2395 -0.6312
   20CHL1   H17 1431   3.693   1.133   9.495 -0.9731 -0.4750  0.5069
   20CHL1   C13 1432   3.632   1.247   9.665  0.5832 -0.2451  0.6603
   20CHL1   C18 1433   3.629   1.400   9.704  0.0274  0.3376 -0.5975
   20CHL1  H18A 1434   3.597   1.407   9.810 -0.0248  0.3554 -0.6142
   20CHL1  H18B 1435   3.728   1.450   9.696  1.9540 -3.3723 -3.0197
   20CHL1  H18C 1436   3.565   1.457   9.632 -1.6985 -0.7416  0.0155
   20CHL1   C12 1437   3.502   1.167   9.684  0.8033 -0.0709  0.2483
   20CHL1  H12A 1438   3.416   1.216   9.634  2.6401  1.7174 -1.3205
   20CHL1  H12B 1439   3.508   1.060   9.655 -1.7972 -0.4927  0.9699
   20CHL1   C11 1440   3.450   1.161   9.836 -0.3735 -0.1458 -0.0504
   20CHL1  H11A 1441   3.405   1.260   9.859  0.0742  0.2694 -0.9052
   20CHL1  H11B 1442   3.379   1.075   9.834  1.4175 -1.6788 -0.7453
   20CHL1    C9 1443   3.559   1.112   9.939 -0.0770  0.5924 -0.0538
   20CHL1    H9 1444   3.563   1.002   9.924  0.8213  0.5657  0.3502
   20CHL1   C10 1445   3.522   1.131  10.094 -0.0631 -0.0878  0.8630
   20CHL1   C19 1446   3.483   1.284  10.120  0.1214 -0.3990  0.0784
   20CHL1  H19A 1447   3.464   1.302  10.228 -0.3564 -0.9860  0.0957
   20CHL1  H19B 1448   3.552   1.359  10.075 -1.9326  1.2643 -0.4866
   20CHL1  H19C 1449   3.391   1.298  10.059  1.4380  1.5165 -1.5994
   20CHL1    C1 1450   3.411   1.039  10.131  0.2118 -0.0908  0.2233
   20CHL1   H1A 1451   3.319   1.065  10.075 -0.8998  0.5454  2.2466
   20CHL1   H1B 1452   3.430   0.943  10.078  1.2888  0.5384 -0.5706
   20CHL1    C2 1453   3.369   1.031  10.275  0.2151 -0.3457  0.2515
   20CHL1   H2A 1454   3.287   0.957  10.281 -2.2035  1.8307 -2.7320
   20CHL1   H2B 1455   3.335   1.132  10.305 -1.1028 -0.2893 -1.3019
   20CHL1   C20 1456   3.670   1.325   9.419 -0.2145 -0.0565 -0.3600
   20CHL1   H20 1457   3.667   1.428   9.459 -2.4905  0.0239 -0.6386
   20CHL1   C21 1458   3.525   1.286   9.374  0.7210 -0.0899 -0.4579
   20CHL1  H21A 1459   3.456   1.303   9.459  2.7336 -0.2706  1.3158
   20CHL1  H21B 1460   3.505   1.179   9.353 -2.7491  0.3565 -0.0284
   20CHL1  H21C 1461   3.490   1.348   9.289 -0.8071 -1.9347 -1.2394
   20CHL1   C22 1462   3.762   1.322   9.299  0.2238 -0.4409  0.1184
   20CHL1  H22A 1463   3.869   1.334   9.324  0.0421  1.1759  0.1963
   20CHL1  H22B 1464   3.759   1.226   9.242  1.6385  0.8013 -2.1524
   20CHL1   C23 1465   3.743   1.427   9.196  0.5555  0.2421 -1.0434
   20CHL1  H23A 1466   3.649   1.404   9.142 -1.1227 -0.3391  1.8835
   20CHL1  H23B 1467   3.733   1.524   9.249 -0.7352 -0.0917 -0.6485
   20CHL1   C24 1468   3.854   1.438   9.086  0.5988  0.0836 -0.2674
   20CHL1  H24A 1469   3.947   1.474   9.134 -0.0160  0.6400  0.5378
   20CHL1  H24B 1470   3.878   1.343   9.033 -0.2051 -0.8048  0.9066
   20CHL1   C25 1471   3.821   1.547   8.985 -0.1230  0.2142 -0.1110
   20CHL1   H25 1472   3.797   1.638   9.043  2.3562  0.9592 -0.1727
   20CHL1   C26 1473   3.943   1.575   8.902 -0.1251 -0.1296  0.1828
   20CHL1  H26A 1474   4.013   1.628   8.970 -1.6555  0.1267  1.6292
   20CHL1  H26B 1475   3.987   1.479   8.866  0.8092  0.8034 -1.2674
   20CHL1  H26C 1476   3.919   1.637   8.813  0.3182 -0.5501 -0.2352
   20CHL1   C27 1477   3.703   1.514   8.897 -0.0428  0.1036 -0.1317
   20CHL1  H27A 1478   3.684   1.597   8.825 -1.6521  0.2320  0.4172
   20CHL1  H27B 1479   3.717   1.420   8.840 -1.5470  0.7378 -1.6287
   20CHL1  H27C 1480   3.617   1.496   8.965 -0.2323  1.5408  0.0487
   21CHL1    C3 1481   4.113   4.078  10.196 -0.4944  0.9127  0.3816
   21CHL1    H3 1482   4.214   4.055  10.156 -0.8228 -1.6825  0.8686
   21CHL1    O3 1483   4.122   4.082  10.335  0.3057 -0.2302  0.0662
   21CHL1   H3' 1484   4.200   4.136  10.350  0.4788  0.2347 -2.2020
   21CHL1    C4 1485   4.061   4.209  10.140 -0.0186 -0.6458  0.0358
   21CHL1   H4A 1486   3.960   4.228  10.183 -0.0890 -2.2521  0.6508
   21CHL1   H4B 1487   4.124   4.289  10.185  1.5203 -1.6363 -0.2913
   21CHL1    C5 1488   4.062   4.218   9.985  0.9632  0.1220  0.2050
   21CHL1    C6 1489   4.127   4.309   9.914 -0.5863  0.4132 -0.3337
   21CHL1    H6 1490   4.185   4.385   9.969  0.7734 -1.8896  1.6526
   21CHL1    C7 1491   4.125   4.313   9.762  0.6612  0.2608  0.1529
   21CHL1   H7A 1492   4.109   4.419   9.734  0.2036  0.1204 -0.1237
   21CHL1   H7B 1493   4.226   4.280   9.732 -0.3745 -2.1803 -0.9218
   21CHL1    C8 1494   4.017   4.224   9.706  1.0048  0.4246  0.9167
   21CHL1    H8 1495   3.924   4.283   9.727 -1.3410 -2.5303 -0.4351
   21CHL1   C14 1496   4.037   4.204   9.560 -0.0363 -0.3893  0.5340
   21CHL1   H14 1497   4.138   4.158   9.554 -0.0323 -0.5051  1.3607
   21CHL1   C15 1498   4.052   4.330   9.475 -0.1741  0.0181  0.6822
   21CHL1  H15A 1499   3.977   4.411   9.484  1.1505  1.1687  1.7565
   21CHL1  H15B 1500   4.149   4.379   9.497 -0.2754  1.0618 -1.0058
   21CHL1   C16 1501   4.034   4.279   9.327 -0.2659 -0.3238 -0.2830
   21CHL1  H16A 1502   3.959   4.339   9.272  0.6608 -0.7278 -2.0951
   21CHL1  H16B 1503   4.131   4.295   9.274 -1.2562  0.1755 -2.0424
   21CHL1   C17 1504   3.991   4.125   9.345  0.5454 -0.2230  0.3389
   21CHL1   H17 1505   4.089   4.073   9.353  0.9560  0.7327  2.2667
   21CHL1   C13 1506   3.931   4.118   9.489 -0.1415 -0.6118  0.1286
   21CHL1   C18 1507   3.794   4.194   9.491  0.4868 -0.4301  0.1571
   21CHL1  H18A 1508   3.784   4.250   9.587  1.1509  0.6923 -0.4044
   21CHL1  H18B 1509   3.784   4.267   9.408  0.1661 -0.3484  0.2652
   21CHL1  H18C 1510   3.709   4.124   9.475 -0.8318  0.7604  1.6905
   21CHL1   C12 1511   3.931   3.975   9.549  0.0617 -0.0816 -0.2575
   21CHL1  H12A 1512   3.846   3.916   9.509  0.8151 -0.8072 -0.8016
   21CHL1  H12B 1513   4.026   3.923   9.528  0.8928  0.4609  1.8817
   21CHL1   C11 1514   3.917   3.980   9.699 -0.8323 -0.4484 -0.1043
   21CHL1  H11A 1515   3.812   4.016   9.714 -0.4559  1.0017 -0.7744
   21CHL1  H11B 1516   3.924   3.876   9.737 -0.8617  0.4292  2.4936
   21CHL1    C9 1517   4.010   4.086   9.770  0.6220 -0.3339  0.4325
   21CHL1    H9 1518   4.115   4.052   9.758  1.0360  1.2692 -0.8456
   21CHL1   C10 1519   3.982   4.098   9.924  0.4872 -0.3059 -0.1794
   21CHL1   C19 1520   3.831   4.131   9.944  0.7541 -0.1344  0.4962
   21CHL1  H19A 1521   3.767   4.043   9.919  2.2863 -1.3623  0.7435
   21CHL1  H19B 1522   3.812   4.146  10.052 -0.5841  2.1504 -0.0009
   21CHL1  H19C 1523   3.785   4.223   9.901 -1.1834 -0.6113  1.4154
   21CHL1    C1 1524   4.019   3.960   9.994  0.5531 -0.3230 -0.7126
   21CHL1   H1A 1525   3.950   3.876   9.973 -0.1991 -0.2527  1.3118
   21CHL1   H1B 1526   4.112   3.920   9.948  0.4531 -3.0280  1.2231
   21CHL1    C2 1527   4.028   3.962  10.147  0.2196  0.6517 -0.5900
   21CHL1   H2A 1528   4.064   3.869  10.195 -0.6081  0.5217 -0.2152
   21CHL1   H2B 1529   3.929   3.976  10.194  0.6167 -2.4041  1.4369
   21CHL1   C20 1530   3.911   4.062   9.237  0.6796  0.5656 -0.6720
   21CHL1   H20 1531   3.819   4.015   9.279 -0.3817  2.8727 -0.2826
   21CHL1   C21 1532   3.995   3.956   9.180  0.2771 -0.0732  0.5762
   21CHL1  H21A 1533   4.020   3.889   9.265  0.6449  0.1539  0.6500
   21CHL1  H21B 1534   4.085   4.003   9.134  0.8543 -0.2570  1.4881
   21CHL1  H21C 1535   3.934   3.902   9.105 -1.2461 -0.8272  2.2707
   21CHL1   C22 1536   3.859   4.161   9.129  1.2377  0.0857 -0.5614
   21CHL1  H22A 1537   3.799   4.243   9.175  0.4942 -0.4414 -0.5766
   21CHL1  H22B 1538   3.948   4.203   9.077  1.2783 -1.5051 -1.8761
   21CHL1   C23 1539   3.760   4.099   9.019 -0.1189  0.2249 -0.1272
   21CHL1  H23A 1540   3.822   4.027   8.961  0.4359  2.0161 -1.8549
   21CHL1  H23B 1541   3.673   4.057   9.075  0.0176 -0.1546 -0.1954
   21CHL1   C24 1542   3.710   4.207   8.926  0.3015  0.0425  0.0852
   21CHL1  H24A 1543   3.649   4.287   8.975  0.1673 -0.2730  0.4403
   21CHL1  H24B 1544   3.802   4.253   8.885 -0.0861 -0.3170 -1.2386
   21CHL1   C25 1545   3.635   4.159   8.799 -0.0262 -0.3694 -0.2817
   21CHL1   H25 1546   3.700   4.086   8.747  2.7333  1.3523  0.5661
   21CHL1   C26 1547   3.514   4.089   8.837 -0.4362  0.5645 -0.6286
   21CHL1  H26A 1548   3.530   3.993   8.890  1.6611  0.8090 -0.7400
   21CHL1  H26B 1549   3.435   4.152   8.883 -0.3322  0.8809 -0.8849
   21CHL1  H26C 1550   3.461   4.063   8.742  0.8077  1.1654 -1.5038
   21CHL1   C27 1551   3.614   4.278   8.704 -0.7661 -0.6889 -0.1803
   21CHL1  H27A 1552   3.711   4.326   8.682 -0.9851 -0.3763 -0.4825
   21CHL1  H27B 1553   3.563   4.258   8.607 -1.3374  0.1686 -0.0743
   21CHL1  H27C 1554   3.551   4.359   8.748 -1.0915 -0.5364 -0.9033
   22CHL1    C3 1555   3.298   4.099  10.338 -0.7920 -1.1581 -0.0761
   22CHL1    H3 1556   3.339   3.998  10.319  1.8088 -0.3200  0.6529
   22CHL1    O3 1557   3.321   4.144  10.476  0.5767  0.2345  0.5426
   22CHL1   H3' 1558   3.275   4.228  10.480  1.2159  0.6814 -0.8927
   22CHL1    C4 1559   3.372   4.212  10.264  0.0853 -1.3166  0.3761
   22CHL1   H4A 1560   3.324   4.307  10.297 -1.5883 -1.5644 -1.2055
   22CHL1   H4B 1561   3.474   4.224  10.306  0.6785 -0.1636 -1.3108
   22CHL1    C5 1562   3.363   4.190  10.113  0.0429 -0.6132  0.3364
   22CHL1    C6 1563   3.476   4.177  10.040 -0.0145 -0.7172  0.0223
   22CHL1    H6 1564   3.571   4.188  10.093 -0.5944  2.0446  0.6601
   22CHL1    C7 1565   3.478   4.152   9.893 -0.1870  0.7080 -0.4579
   22CHL1   H7A 1566   3.561   4.218   9.859  0.9700  0.1541  1.1607
   22CHL1   H7B 1567   3.511   4.048   9.873 -0.1867  0.4888  0.6600
   22CHL1    C8 1568   3.338   4.173   9.831 -0.0930 -0.8240  0.6735
   22CHL1    H8 1569   3.321   4.282   9.828  1.3055 -0.5994  0.0930
   22CHL1   C14 1570   3.331   4.109   9.695 -0.4596 -0.3724  0.7996
   22CHL1   H14 1571   3.337   4.000   9.715 -0.4842 -0.4774  0.2527
   22CHL1   C15 1572   3.444   4.150   9.600  0.3139  0.1233 -0.3263
   22CHL1  H15A 1573   3.463   4.259   9.610 -1.1971  0.2136  3.5782
   22CHL1  H15B 1574   3.537   4.099   9.632  0.9104  1.1712 -0.3321
   22CHL1   C16 1575   3.390   4.113   9.461  0.0637 -0.3735  0.5313
   22CHL1  H16A 1576   3.398   4.196   9.386 -0.3486 -0.3146  0.5488
   22CHL1  H16B 1577   3.447   4.036   9.405 -0.1530  0.2561 -0.6056
   22CHL1   C17 1578   3.243   4.075   9.480 -0.5686 -0.2337 -0.0103
   22CHL1   H17 1579   3.248   3.966   9.501 -0.0532  0.0790  1.6144
   22CHL1   C13 1580   3.201   4.136   9.617 -0.2091  0.2436 -0.1715
   22CHL1   C18 1581   3.168   4.282   9.594 -0.0034  0.3296  0.1456
   22CHL1  H18A 1582   3.076   4.291   9.533  0.2515  2.2421 -0.0144
   22CHL1  H18B 1583   3.164   4.341   9.688  0.3036 -0.8327  0.9104
   22CHL1  H18C 1584   3.243   4.330   9.527 -0.2929  2.3728  1.2391
   22CHL1   C12 1585   3.086   4.064   9.695  0.2478 -0.5514 -0.1129
   22CHL1  H12A 1586   2.985   4.087   9.656 -0.1589 -1.1841  0.5542
   22CHL1  H12B 1587   3.104   3.955   9.697 -1.2376 -0.8079 -0.0124
   22CHL1   C11 1588   3.097   4.124   9.842 -0.9564  0.1814 -0.4032
   22CHL1  H11A 1589   3.071   4.230   9.820  0.5201  0.3231 -1.6668
   22CHL1  H11B 1590   3.019   4.079   9.907  1.4692 -0.8606  1.9563
   22CHL1    C9 1591   3.231   4.109   9.917 -0.1341  0.0350 -0.1673
   22CHL1    H9 1592   3.243   4.000   9.936 -2.5635 -0.5283 -1.4528
   22CHL1   C10 1593   3.227   4.173  10.057  0.2627 -0.0463 -0.0124
   22CHL1   C19 1594   3.165   4.318  10.060 -0.2168 -1.0330 -0.5190
   22CHL1  H19A 1595   3.165   4.366  10.160  3.6604 -2.3408  0.3026
   22CHL1  H19B 1596   3.221   4.383   9.990 -0.8674  0.8877  0.6781
   22CHL1  H19C 1597   3.058   4.320  10.031 -1.0878 -0.6735  2.4238
   22CHL1    C1 1598   3.138   4.079  10.147  0.3022  0.4599  0.0873
   22CHL1   H1A 1599   3.031   4.098  10.121  0.4312  1.9999  0.6034
   22CHL1   H1B 1600   3.161   3.971  10.134  1.1487  0.6855 -0.3851
   22CHL1    C2 1601   3.152   4.102  10.298 -0.6462  0.0631  0.0669
   22CHL1   H2A 1602   3.100   4.017  10.347  2.0858  0.0921  3.4345
   22CHL1   H2B 1603   3.096   4.195  10.325 -0.7517  0.2094 -0.6358
   22CHL1   C20 1604   3.145   4.086   9.362 -0.4583 -0.6880  0.1333
   22CHL1   H20 1605   3.042   4.083   9.404 -0.3910  1.1599  0.5188
   22CHL1   C21 1606   3.170   3.957   9.280  0.1936  0.0926  0.3309
   22CHL1  H21A 1607   3.130   3.872   9.338 -0.8449 -1.7454 -2.8369
   22CHL1  H21B 1608   3.277   3.941   9.251  0.0639 -3.6118  1.3555
   22CHL1  H21C 1609   3.105   3.953   9.191  0.8179  0.9526 -0.1787
   22CHL1   C22 1610   3.152   4.217   9.278  0.2631  0.0464  0.3162
   22CHL1  H22A 1611   3.124   4.300   9.346  1.3981 -1.1031  2.2618
   22CHL1  H22B 1612   3.248   4.238   9.225  0.1844 -0.0938  0.1177
   22CHL1   C23 1613   3.047   4.211   9.161  0.2626  0.4805  0.1286
   22CHL1  H23A 1614   3.063   4.126   9.092 -0.9888 -0.4438  0.9493
   22CHL1  H23B 1615   2.952   4.190   9.215 -0.1152 -0.8801 -1.0235
   22CHL1   C24 1616   3.049   4.343   9.089  0.1486 -0.6965 -0.4090
   22CHL1  H24A 1617   3.068   4.423   9.164 -0.0289  0.6800 -1.7944
   22CHL1  H24B 1618   3.136   4.352   9.020  1.3263 -2.0659  0.8143
   22CHL1   C25 1619   2.921   4.377   9.005 -0.3974  0.6087 -0.1472
   22CHL1   H25 1620   2.832   4.357   9.069 -0.2209 -2.1440 -0.6581
   22CHL1   C26 1621   2.904   4.523   8.956 -0.3371 -0.1137 -0.1209
   22CHL1  H26A 1622   2.842   4.522   8.864  0.5625 -0.6181 -0.7317
   22CHL1  H26B 1623   2.869   4.593   9.035  1.0119 -0.7384  1.0840
   22CHL1  H26C 1624   2.998   4.566   8.915 -1.8432  1.3780 -2.1535
   22CHL1   C27 1625   2.924   4.296   8.878  0.7222  0.1062  0.6338
   22CHL1  H27A 1626   2.826   4.306   8.826  0.3887 -0.1629  1.2048
   22CHL1  H27B 1627   3.006   4.331   8.811 -0.8711 -0.4615 -1.7669
   22CHL1  H27C 1628   2.926   4.189   8.907 -0.2102 -0.0604  0.1286
   23CHL1    C3 1629   0.289   5.613  10.366  0.7011  0.1412  0.7584
   23CHL1    H3 1630   0.245   5.511  10.360  1.3155 -0.0355 -2.8816
   23CHL1    O3 1631   0.331   5.642  10.496 -0.7451  0.0416  0.0097
   23CHL1   H3' 1632   0.389   5.718  10.488  0.6173 -0.9832 -0.4743
   23CHL1    C4 1633   0.406   5.623  10.268  0.4084 -0.2435 -0.0959
   23CHL1   H4A 1634   0.462   5.716  10.291  1.2725 -1.2198  1.9875
   23CHL1   H4B 1635   0.481   5.547  10.297 -0.0517 -0.6564  0.0230
   23CHL1    C5 1636   0.357   5.621  10.120  0.4328  0.0590 -0.3840
   23CHL1    C6 1637   0.395   5.525  10.038 -0.2675 -0.2290  0.0499
   23CHL1    H6 1638   0.476   5.455  10.062 -0.2695  0.3260  1.8713
   23CHL1    C7 1639   0.344   5.509   9.898  0.0802  0.6671  0.5205
   23CHL1   H7A 1640   0.430   5.507   9.827 -1.6110  1.6278 -1.6693
   23CHL1   H7B 1641   0.269   5.430   9.879 -0.8128  1.8541 -1.1567
   23CHL1    C8 1642   0.270   5.638   9.850  0.5622 -1.2174 -0.3733
   23CHL1    H8 1643   0.349   5.714   9.831 -0.1400 -0.1726  0.7759
   23CHL1   C14 1644   0.203   5.620   9.720  0.3970 -0.0993 -0.0136
   23CHL1   H14 1645   0.115   5.553   9.733  1.5996 -2.2956 -2.1670
   23CHL1   C15 1646   0.277   5.540   9.604 -0.2084 -0.0331 -0.4378
   23CHL1  H15A 1647   0.363   5.610   9.593 -1.2944  1.1944 -1.4086
   23CHL1  H15B 1648   0.298   5.432   9.612 -0.7850 -0.1534 -0.5186
   23CHL1   C16 1649   0.191   5.581   9.476  0.0484  0.4578 -0.6416
   23CHL1  H16A 1650   0.262   5.603   9.394 -1.1645 -1.9860 -2.4793
   23CHL1  H16B 1651   0.126   5.496   9.445  0.9523 -0.9065  1.0553
   23CHL1   C17 1652   0.100   5.699   9.522  0.7554 -0.4646 -0.2393
   23CHL1   H17 1653   0.001   5.652   9.540  0.8763 -0.4102  0.6089
   23CHL1   C13 1654   0.151   5.750   9.660  0.0944  0.3143  0.6900
   23CHL1   C18 1655   0.262   5.855   9.639 -0.5703 -0.0735  0.1897
   23CHL1  H18A 1656   0.352   5.824   9.582  1.2887  0.2740  2.7143
   23CHL1  H18B 1657   0.228   5.947   9.588  0.4990 -0.4549 -1.2721
   23CHL1  H18C 1658   0.305   5.891   9.735 -0.3416  1.9313 -0.6184
   23CHL1   C12 1659   0.042   5.801   9.748  0.2598 -0.2786 -0.6648
   23CHL1  H12A 1660  -0.002   5.898   9.717  1.3295  0.0011 -1.3669
   23CHL1  H12B 1661  -0.037   5.722   9.746 -1.0216  0.9283 -3.2926
   23CHL1   C11 1662   0.089   5.808   9.894 -0.4511  0.4269  0.0125
   23CHL1  H11A 1663   0.148   5.901   9.906  0.2814  0.0508 -0.5227
   23CHL1  H11B 1664  -0.003   5.825   9.954 -0.5811 -2.6157  0.8485
   23CHL1    C9 1665   0.171   5.692   9.950 -0.3829  0.2563  0.4482
   23CHL1    H9 1666   0.097   5.610   9.960 -1.8098  1.5628  0.9617
   23CHL1   C10 1667   0.244   5.722  10.083 -0.5719  0.3158  0.1831
   23CHL1   C19 1668   0.311   5.858  10.093 -0.4318  0.5985 -0.5339
   23CHL1  H19A 1669   0.356   5.869  10.194  0.1982 -3.2965 -0.2433
   23CHL1  H19B 1670   0.392   5.871  10.019 -0.2646  0.7760 -0.3239
   23CHL1  H19C 1671   0.247   5.947  10.071  0.2819  0.8574 -1.6406
   23CHL1    C1 1672   0.131   5.712  10.192 -0.0434 -0.1424  0.9343
   23CHL1   H1A 1673   0.058   5.792  10.168 -0.8174 -0.9746  0.4090
   23CHL1   H1B 1674   0.081   5.615  10.168 -1.5825  1.0223 -0.9006
   23CHL1    C2 1675   0.182   5.718  10.338  0.0803 -0.6878  0.0231
   23CHL1   H2A 1676   0.087   5.701  10.393 -1.4954 -0.2694 -2.3925
   23CHL1   H2B 1677   0.215   5.821  10.366  0.4708 -1.1095  1.1579
   23CHL1   C20 1678   0.073   5.792   9.406 -0.1555  0.3554  0.4869
   23CHL1   H20 1679   0.162   5.856   9.391 -1.3729  1.6276 -1.9544
   23CHL1   C21 1680  -0.037   5.889   9.440  0.1083  0.7357 -0.3085
   23CHL1  H21A 1681  -0.124   5.828   9.470  1.8659 -1.0241  1.5461
   23CHL1  H21B 1682  -0.067   5.927   9.340  0.6872 -0.5245 -0.9806
   23CHL1  H21C 1683  -0.007   5.955   9.524  0.3154 -0.1230  0.3068
   23CHL1   C22 1684   0.045   5.715   9.268  0.1422  0.2281 -0.6010
   23CHL1  H22A 1685   0.039   5.788   9.185  1.3335  0.1075 -0.8050
   23CHL1  H22B 1686   0.122   5.650   9.223 -1.3309 -0.8359 -1.6942
   23CHL1   C23 1687  -0.091   5.641   9.258 -0.7805  0.1431  0.4894
   23CHL1  H23A 1688  -0.105   5.569   9.342 -1.5047  1.6761  1.7272
   23CHL1  H23B 1689  -0.162   5.725   9.268 -0.3175  0.8676 -1.7050
   23CHL1   C24 1690  -0.120   5.580   9.122  0.2542  0.3807  0.3622
   23CHL1  H24A 1691  -0.174   5.655   9.061 -1.2912 -2.3867 -1.9252
   23CHL1  H24B 1692  -0.027   5.551   9.068 -0.7718  0.5636 -1.5702
   23CHL1   C25 1693  -0.210   5.457   9.142 -0.0035  0.0037  0.2037
   23CHL1   H25 1694  -0.288   5.485   9.216  2.6158  3.6441  1.8904
   23CHL1   C26 1695  -0.286   5.409   9.013  0.1015 -0.0901  0.7503
   23CHL1  H26A 1696  -0.353   5.489   8.975 -1.2725 -2.4199 -2.1434
   23CHL1  H26B 1697  -0.215   5.379   8.933 -1.1551 -2.1177  0.3106
   23CHL1  H26C 1698  -0.353   5.326   9.045 -0.8760  0.0743 -0.7313
   23CHL1   C27 1699  -0.129   5.341   9.206 -0.4372  0.2225 -0.1688
   23CHL1  H27A 1700  -0.075   5.380   9.295 -2.2893  0.4691  0.8894
   23CHL1  H27B 1701  -0.211   5.276   9.244 -1.5958  1.9230  0.3851
   23CHL1  H27C 1702  -0.065   5.283   9.137 -0.0750 -0.3504  0.6364
   24CHL1    C3 1703   6.073   2.950  10.312 -0.3129 -0.2177 -0.3492
   24CHL1    H3 1704   5.981   3.012  10.317 -0.5945 -0.7482  3.0816
   24CHL1    O3 1705   6.102   2.896  10.440 -0.7048 -0.4533  0.4119
   24CHL1   H3' 1706   6.197   2.908  10.449 -0.6296 -1.6398  1.5242
   24CHL1    C4 1707   6.050   2.838  10.215 -0.8758 -0.3291  0.4155
   24CHL1   H4A 1708   6.123   2.756  10.236 -1.2426 -1.0088 -0.8575
   24CHL1   H4B 1709   5.956   2.788  10.247 -2.2420  2.0632  0.3573
   24CHL1    C5 1710   6.056   2.872  10.064  1.2072 -0.1979 -0.3780
   24CHL1    C6 1711   5.956   2.839   9.978  0.3800 -0.0460 -0.8523
   24CHL1    H6 1712   5.881   2.772  10.021  0.9179 -1.0593 -1.4656
   24CHL1    C7 1713   5.960   2.862   9.834  0.5119 -0.9606  0.1295
   24CHL1   H7A 1714   5.931   2.774   9.773 -1.1195  0.2418 -0.9315
   24CHL1   H7B 1715   5.875   2.931   9.817 -0.1039 -1.2235  2.0221
   24CHL1    C8 1716   6.098   2.922   9.784  0.0959 -0.3474  0.3411
   24CHL1    H8 1717   6.171   2.839   9.792  0.4127 -0.0190  0.9106
   24CHL1   C14 1718   6.094   2.982   9.644 -0.8469  0.2339  0.4102
   24CHL1   H14 1719   6.024   3.067   9.658 -0.5993  0.1657  2.4585
   24CHL1   C15 1720   6.031   2.900   9.537  0.2187 -0.3179  0.3069
   24CHL1  H15A 1721   6.073   2.797   9.547 -0.6140 -0.5222  2.1998
   24CHL1  H15B 1722   5.921   2.901   9.552 -0.0369  2.4253 -1.1896
   24CHL1   C16 1723   6.072   2.959   9.405 -0.9332  0.5250 -0.2949
   24CHL1  H16A 1724   6.113   2.874   9.346 -1.3017 -0.7945  1.2724
   24CHL1  H16B 1725   5.990   3.014   9.354 -0.7189 -0.2731 -1.5350
   24CHL1   C17 1726   6.178   3.065   9.440  0.0625 -0.6421 -0.1773
   24CHL1   H17 1727   6.115   3.156   9.446  0.1826 -0.5507 -0.3254
   24CHL1   C13 1728   6.220   3.028   9.583  0.2320  0.0913  0.7495
   24CHL1   C18 1729   6.325   2.918   9.578 -0.5661 -0.6126 -0.3673
   24CHL1  H18A 1730   6.345   2.879   9.680  0.0896 -0.9974 -0.6342
   24CHL1  H18B 1731   6.295   2.838   9.507 -3.4152 -0.5934  0.6602
   24CHL1  H18C 1732   6.428   2.951   9.551 -0.4886 -0.2680  0.3180
   24CHL1   C12 1733   6.261   3.145   9.673  0.1811  0.9207 -0.2197
   24CHL1  H12A 1734   6.365   3.180   9.653  2.0701 -0.1827  5.5743
   24CHL1  H12B 1735   6.186   3.225   9.660 -2.0907 -1.0156  0.2656
   24CHL1   C11 1736   6.260   3.114   9.827 -0.1281 -0.6905 -0.2310
   24CHL1  H11A 1737   6.351   3.053   9.846  2.6818  2.7332 -1.7599
   24CHL1  H11B 1738   6.284   3.203   9.889  0.4870  0.5485 -2.1767
   24CHL1    C9 1739   6.140   3.033   9.879  0.1571  0.3086  0.1684
   24CHL1    H9 1740   6.055   3.104   9.881  0.7432  1.0997 -1.2861
   24CHL1   C10 1741   6.164   2.972  10.020  0.2184 -0.1123  0.2535
   24CHL1   C19 1742   6.297   2.887  10.027 -0.4507 -0.3571  0.8487
   24CHL1  H19A 1743   6.295   2.807   9.951  2.8161 -0.6224  0.8994
   24CHL1  H19B 1744   6.388   2.943   9.996 -0.9534  1.2101  2.0392
   24CHL1  H19C 1745   6.319   2.837  10.124 -0.2132 -3.0940 -0.5420
   24CHL1    C1 1746   6.187   3.089  10.125 -0.4585  0.0803 -0.3741
   24CHL1   H1A 1747   6.274   3.155  10.104  0.1024 -0.3334  0.5597
   24CHL1   H1B 1748   6.102   3.160  10.123  0.9427  1.8159 -1.8808
   24CHL1    C2 1749   6.196   3.038  10.272  0.6749  0.1195 -0.2296
   24CHL1   H2A 1750   6.212   3.132  10.329 -0.7682  1.7221 -2.3253
   24CHL1   H2B 1751   6.284   2.971  10.284 -1.0875 -1.9531  2.1766
   24CHL1   C20 1752   6.281   3.090   9.327 -0.2616 -0.5615 -1.1324
   24CHL1   H20 1753   6.355   3.009   9.342  0.0263 -0.3523 -1.4232
   24CHL1   C21 1754   6.336   3.229   9.335  0.0379 -0.0939 -0.1657
   24CHL1  H21A 1755   6.388   3.242   9.432  0.6390  0.7024 -0.5781
   24CHL1  H21B 1756   6.271   3.316   9.312  0.2092 -0.1509 -0.9108
   24CHL1  H21C 1757   6.422   3.227   9.264 -0.1269 -0.3887 -0.3549
   24CHL1   C22 1758   6.226   3.073   9.187  0.4279  0.3598  0.3214
   24CHL1  H22A 1759   6.149   2.993   9.177  1.8820 -0.8534 -2.0452
   24CHL1  H22B 1760   6.173   3.165   9.153 -2.8913 -1.0036  1.3852
   24CHL1   C23 1761   6.325   3.025   9.082  0.5992 -0.5224 -0.7586
   24CHL1  H23A 1762   6.420   3.083   9.087  0.0439  0.4100 -0.7018
   24CHL1  H23B 1763   6.347   2.918   9.104 -0.4611 -0.1085  2.9452
   24CHL1   C24 1764   6.270   3.015   8.935  0.4766 -0.0851  0.3100
   24CHL1  H24A 1765   6.181   2.950   8.946 -1.2087  1.7173 -1.6713
   24CHL1  H24B 1766   6.230   3.112   8.899 -0.8882 -0.2598  1.2891
   24CHL1   C25 1767   6.368   2.955   8.835  0.7665 -0.3500  0.3257
   24CHL1   H25 1768   6.396   2.854   8.872 -0.9353 -0.0640  2.5748
   24CHL1   C26 1769   6.298   2.962   8.696 -0.8299  0.3350  0.2850
   24CHL1  H26A 1770   6.371   2.918   8.625 -0.3051  1.2369  0.2614
   24CHL1  H26B 1771   6.201   2.907   8.693 -1.3739  1.3059 -0.7896
   24CHL1  H26C 1772   6.278   3.066   8.663 -1.9352 -0.4054 -1.5551
   24CHL1   C27 1773   6.502   3.039   8.827 -0.8765  0.6548 -0.0839
   24CHL1  H27A 1774   6.483   3.148   8.839  1.5745  0.9458  1.8640
   24CHL1  H27B 1775   6.559   3.023   8.920  1.6984  1.9991 -1.3281
   24CHL1  H27C 1776   6.563   3.008   8.739 -0.3355 -0.1928  0.5772
   25CHL1    C3 1777   3.157   1.447  10.394 -0.1367  0.2199  0.5115
   25CHL1    H3 1778   3.261   1.408  10.393 -0.2515 -0.5208 -3.9252
   25CHL1    O3 1779   3.114   1.435  10.533  0.4784  0.0147  0.4394
   25CHL1   H3' 1780   3.191   1.454  10.587 -1.1956  2.9210  1.9800
   25CHL1    C4 1781   3.159   1.593  10.347 -0.2385  0.9762  0.2606
   25CHL1   H4A 1782   3.053   1.624  10.363 -0.3206  0.9079 -0.1362
   25CHL1   H4B 1783   3.219   1.662  10.410  0.4721  0.5810  0.0191
   25CHL1    C5 1784   3.207   1.610  10.207  0.2562 -0.1932  0.0602
   25CHL1    C6 1785   3.322   1.667  10.172 -0.2935 -0.5632  0.3238
   25CHL1    H6 1786   3.381   1.706  10.256 -0.9181 -0.9791  0.9719
   25CHL1    C7 1787   3.373   1.689  10.033  0.0722 -0.4315  0.1957
   25CHL1   H7A 1788   3.416   1.791  10.022  3.1605 -1.5357  1.1218
   25CHL1   H7B 1789   3.467   1.631  10.022  0.1582 -0.2732  0.0832
   25CHL1    C8 1790   3.266   1.687   9.928 -0.1093  0.9997  0.5312
   25CHL1    H8 1791   3.193   1.771   9.933 -0.7069  0.6548 -1.4255
   25CHL1   C14 1792   3.326   1.682   9.787 -0.6863 -0.0339  0.0891
   25CHL1   H14 1793   3.395   1.596   9.791 -1.3316 -0.5870 -0.5841
   25CHL1   C15 1794   3.413   1.807   9.747 -0.3123  0.0733  0.6231
   25CHL1  H15A 1795   3.353   1.898   9.767  1.1542  1.0656  0.6591
   25CHL1  H15B 1796   3.507   1.827   9.802  0.2430  0.4266 -0.4205
   25CHL1   C16 1797   3.434   1.787   9.595 -0.5939  0.0832  0.7273
   25CHL1  H16A 1798   3.417   1.888   9.551 -0.6974 -0.7075 -1.1733
   25CHL1  H16B 1799   3.536   1.764   9.555 -0.8374  1.4633 -0.8115
   25CHL1   C17 1800   3.332   1.682   9.552  0.0495 -0.3932 -0.4653
   25CHL1   H17 1801   3.390   1.588   9.544  2.2754  0.6463  1.9520
   25CHL1   C13 1802   3.235   1.653   9.673  0.2501  0.0456  0.8116
   25CHL1   C18 1803   3.130   1.770   9.656 -0.3180  0.1116 -0.0595
   25CHL1  H18A 1804   3.046   1.728   9.597  0.5362 -2.3315  0.3421
   25CHL1  H18B 1805   3.086   1.808   9.751 -0.9403 -0.8535  0.0551
   25CHL1  H18C 1806   3.170   1.863   9.611 -1.5812  0.1021 -1.2672
   25CHL1   C12 1807   3.168   1.519   9.700 -0.3050 -0.2769  0.8009
   25CHL1  H12A 1808   3.092   1.492   9.624 -1.6361 -0.6967  2.2216
   25CHL1  H12B 1809   3.256   1.451   9.699  0.1529  0.3078  0.2668
   25CHL1   C11 1810   3.096   1.511   9.836  0.3249  0.3891  1.2402
   25CHL1  H11A 1811   3.009   1.579   9.820  1.1149  1.5609  1.7362
   25CHL1  H11B 1812   3.059   1.409   9.859 -1.9602  0.9581  0.2935
   25CHL1    C9 1813   3.188   1.552   9.955 -0.2947 -0.7652  0.5715
   25CHL1    H9 1814   3.269   1.476   9.947  0.9315  0.4430  1.2673
   25CHL1   C10 1815   3.126   1.542  10.099  0.2010 -0.4855 -0.3915
   25CHL1   C19 1816   2.992   1.618  10.092 -0.4391  0.4510  0.6525
   25CHL1  H19A 1817   3.005   1.728  10.082 -1.0855  0.6914  2.2780
   25CHL1  H19B 1818   2.926   1.589  10.007 -1.2945  2.4627  0.5718
   25CHL1  H19C 1819   2.927   1.603  10.181 -0.4586  1.5514  0.8401
   25CHL1    C1 1820   3.100   1.388  10.146 -0.4196 -0.3838  0.5472
   25CHL1   H1A 1821   3.020   1.349  10.079  0.3177 -1.3890  0.2262
   25CHL1   H1B 1822   3.187   1.321  10.129 -0.6869 -0.4508 -0.6071
   25CHL1    C2 1823   3.066   1.368  10.294 -0.4841  0.1292 -0.8713
   25CHL1   H2A 1824   3.063   1.262  10.327  0.4289  0.4555  0.3098
   25CHL1   H2B 1825   2.958   1.393  10.297 -0.8553 -1.2839 -1.4895
   25CHL1   C20 1826   3.274   1.708   9.412  0.2949  0.5317  0.3049
   25CHL1   H20 1827   3.204   1.795   9.406 -0.9633 -0.5340 -1.7199
   25CHL1   C21 1828   3.179   1.586   9.371 -0.4959  0.0437 -0.0777
   25CHL1  H21A 1829   3.089   1.583   9.436  0.0343 -0.1957  0.6627
   25CHL1  H21B 1830   3.228   1.487   9.382 -0.9977 -0.0139  2.0455
   25CHL1  H21C 1831   3.152   1.590   9.263 -1.3181 -3.6321 -0.1626
   25CHL1   C22 1832   3.369   1.734   9.295 -0.3860  0.6121 -0.6887
   25CHL1  H22A 1833   3.440   1.812   9.330  2.8279 -2.4043  0.0802
   25CHL1  H22B 1834   3.442   1.651   9.285  1.2294  1.6183  1.8358
   25CHL1   C23 1835   3.304   1.765   9.161 -0.1919 -0.1400  0.9232
   25CHL1  H23A 1836   3.289   1.674   9.099 -0.8034  1.8748 -2.0887
   25CHL1  H23B 1837   3.204   1.810   9.177  0.6148  1.2483  2.3753
   25CHL1   C24 1838   3.382   1.868   9.075  0.2972  0.3495  0.0316
   25CHL1  H24A 1839   3.385   1.962   9.134  0.3980  1.4524 -1.6541
   25CHL1  H24B 1840   3.487   1.832   9.072  0.4034  0.6775 -0.2746
   25CHL1   C25 1841   3.326   1.888   8.935  0.3184  0.3325 -0.0273
   25CHL1   H25 1842   3.357   1.801   8.872 -0.4868 -0.4748  0.6567
   25CHL1   C26 1843   3.174   1.888   8.920  0.4452 -0.0544  0.0436
   25CHL1  H26A 1844   3.128   1.933   8.829  1.4521  0.3756 -0.2602
   25CHL1  H26B 1845   3.145   1.782   8.939 -0.8675  0.1902 -0.4747
   25CHL1  H26C 1846   3.123   1.945   9.001 -0.9873  0.2144 -0.9960
   25CHL1   C27 1847   3.380   2.019   8.886 -0.5460  0.0752 -0.4352
   25CHL1  H27A 1848   3.363   2.040   8.778  1.9952 -1.5128 -1.2443
   25CHL1  H27B 1849   3.324   2.101   8.937 -0.1113  0.3815 -0.4503
   25CHL1  H27C 1850   3.490   2.020   8.895 -0.2500 -2.7596 -2.3949
   26CHL1    C3 1851   4.274   4.841  10.370  0.0956  0.0185 -0.2140
   26CHL1    H3 1852   4.181   4.783  10.353  0.5038 -1.3687  1.9343
   26CHL1    O3 1853   4.307   4.857  10.502  0.2199 -0.0858 -0.1945
   26CHL1   H3' 1854   4.279   4.775  10.544 -0.2819  0.7274  1.1333
   26CHL1    C4 1855   4.395   4.774  10.312 -0.3960 -0.8716  0.5164
   26CHL1   H4A 1856   4.484   4.840  10.319  0.1790 -1.6773  1.0360
   26CHL1   H4B 1857   4.411   4.680  10.369 -1.7924 -0.8755  0.9250
   26CHL1    C5 1858   4.375   4.757  10.162 -0.4576 -0.7072  0.1575
   26CHL1    C6 1859   4.373   4.636  10.106 -0.2878  0.0349  0.1157
   26CHL1    H6 1860   4.387   4.552  10.175 -0.0813  0.6505  0.8421
   26CHL1    C7 1861   4.354   4.613   9.959  0.4320 -0.0323  0.0520
   26CHL1   H7A 1862   4.425   4.536   9.923  0.1052 -0.2198 -0.1985
   26CHL1   H7B 1863   4.248   4.587   9.939  0.1138  0.7750  0.6273
   26CHL1    C8 1864   4.374   4.737   9.869 -0.6944 -0.3901 -0.1596
   26CHL1    H8 1865   4.484   4.749   9.883 -0.4336 -1.6342 -1.0747
   26CHL1   C14 1866   4.327   4.714   9.723 -0.1553  0.4353 -0.4699
   26CHL1   H14 1867   4.227   4.667   9.738 -0.1917 -0.1328 -2.2999
   26CHL1   C15 1868   4.395   4.606   9.636  0.8212  0.3080  0.2649
   26CHL1  H15A 1869   4.506   4.610   9.642  1.0569 -1.4032 -1.7168
   26CHL1  H15B 1870   4.390   4.499   9.665 -0.3846  0.6271  1.3219
   26CHL1   C16 1871   4.341   4.636   9.493 -0.2838  0.6353 -0.7944
   26CHL1  H16A 1872   4.424   4.630   9.420  0.0015 -2.4466 -0.3469
   26CHL1  H16B 1873   4.278   4.556   9.449 -4.2832  3.1067 -0.1063
   26CHL1   C17 1874   4.267   4.768   9.502 -0.1623 -1.0052  0.2592
   26CHL1   H17 1875   4.159   4.743   9.513 -0.6917  1.2551  0.8500
   26CHL1   C13 1876   4.321   4.831   9.627 -0.8153 -0.0895  0.1168
   26CHL1   C18 1877   4.459   4.887   9.607 -0.2409  0.2032  0.5278
   26CHL1  H18A 1878   4.520   4.825   9.539  2.6889 -1.5808  4.3642
   26CHL1  H18B 1879   4.464   4.991   9.568  0.1104  0.8562  2.2064
   26CHL1  H18C 1880   4.523   4.882   9.698  2.4807  0.1021 -1.2842
   26CHL1   C12 1881   4.243   4.946   9.699  0.4404  0.8749  0.1929
   26CHL1  H12A 1882   4.202   5.034   9.644 -0.2508  0.6281  0.2972
   26CHL1  H12B 1883   4.143   4.900   9.716  0.8548 -0.8545 -1.6248
   26CHL1   C11 1884   4.302   4.981   9.835 -1.0008  0.1317 -0.4627
   26CHL1  H11A 1885   4.400   5.031   9.820 -0.5642 -0.3250  0.7452
   26CHL1  H11B 1886   4.237   5.062   9.875 -0.3095  0.0551  0.8629
   26CHL1    C9 1887   4.310   4.861   9.931 -0.0804 -0.0405 -0.3111
   26CHL1    H9 1888   4.203   4.835   9.941  0.2304 -0.8537  1.2181
   26CHL1   C10 1889   4.363   4.886  10.075 -0.0732 -0.2872  0.0583
   26CHL1   C19 1890   4.495   4.965  10.060  0.2675 -0.1655  0.1381
   26CHL1  H19A 1891   4.526   4.978  10.166 -2.7060 -0.4020  1.1084
   26CHL1  H19B 1892   4.561   4.906   9.993 -1.0723 -1.2359 -0.2565
   26CHL1  H19C 1893   4.474   5.065  10.016  0.0668 -0.9509 -1.5872
   26CHL1    C1 1894   4.260   4.970  10.149  0.0855  0.4798 -0.5378
   26CHL1   H1A 1895   4.253   5.069  10.099  0.6555  1.1609  0.6899
   26CHL1   H1B 1896   4.162   4.918  10.137 -0.0948  1.0394 -1.6338
   26CHL1    C2 1897   4.269   4.977  10.307  0.9613  0.8007 -0.5634
   26CHL1   H2A 1898   4.180   5.025  10.353 -0.7093 -0.0749 -2.7130
   26CHL1   H2B 1899   4.356   5.039  10.339  0.8568  0.2062  0.9274
   26CHL1   C20 1900   4.275   4.844   9.366 -0.2700 -0.0220 -0.5546
   26CHL1   H20 1901   4.379   4.867   9.335 -0.8715  1.9066 -1.2577
   26CHL1   C21 1902   4.199   4.978   9.369  0.6030  0.7791 -0.4303
   26CHL1  H21A 1903   4.228   5.044   9.453 -0.9299 -0.9480  1.5830
   26CHL1  H21B 1904   4.091   4.959   9.391  1.4077 -0.3192  3.2050
   26CHL1  H21C 1905   4.205   5.024   9.268  5.1297  2.3862  0.3650
   26CHL1   C22 1906   4.228   4.748   9.244  0.3343  0.3163  0.4442
   26CHL1  H22A 1907   4.286   4.653   9.249 -1.1815 -0.6808 -0.3945
   26CHL1  H22B 1908   4.122   4.739   9.274 -0.1866  1.8537 -0.8013
   26CHL1   C23 1909   4.226   4.801   9.103  0.1169 -0.5159 -0.8118
   26CHL1  H23A 1910   4.178   4.900   9.091  0.2597 -0.2275  0.7329
   26CHL1  H23B 1911   4.332   4.817   9.072  0.6853 -0.5522  0.9449
   26CHL1   C24 1912   4.154   4.700   9.010  0.0910  0.1047  0.5943
   26CHL1  H24A 1913   4.058   4.676   9.060 -0.3897  2.8241  1.1118
   26CHL1  H24B 1914   4.130   4.742   8.909  0.1866 -2.1184 -0.4171
   26CHL1   C25 1915   4.227   4.561   8.984  0.3576 -0.0841 -0.2676
   26CHL1   H25 1916   4.263   4.517   9.079  0.9305  1.1470  0.1155
   26CHL1   C26 1917   4.130   4.467   8.915  0.4513 -0.1349  0.1788
   26CHL1  H26A 1918   4.176   4.370   8.884  1.1074  0.1458  0.2520
   26CHL1  H26B 1919   4.047   4.430   8.980 -1.6884  0.7512 -1.9011
   26CHL1  H26C 1920   4.089   4.516   8.825  1.1797  0.8612  0.3753
   26CHL1   C27 1921   4.350   4.585   8.898  0.0543  0.1983 -0.2850
   26CHL1  H27A 1922   4.408   4.493   8.877 -0.2502 -0.0391 -0.1012
   26CHL1  H27B 1923   4.328   4.617   8.793 -3.0111  0.2258  0.2720
   26CHL1  H27C 1924   4.424   4.656   8.940  0.6580 -0.4117 -0.3120
   27CHL1    C3 1925   2.755   1.958  10.468 -0.1285  0.7428 -0.2987
   27CHL1    H3 1926   2.819   2.047  10.452  0.5502  0.2113 -0.5902
   27CHL1    O3 1927   2.759   1.905  10.602  0.2903 -0.4815  0.6296
   27CHL1   H3' 1928   2.728   1.814  10.595 -3.7692  0.8819 -2.2164
   27CHL1    C4 1929   2.611   1.985  10.447  0.4434  0.9703 -0.4923
   27CHL1   H4A 1930   2.547   1.897  10.473  0.6535  1.3741  1.6105
   27CHL1   H4B 1931   2.585   2.061  10.524  0.0342 -1.3218  1.7841
   27CHL1    C5 1932   2.589   2.032  10.304 -0.8513 -0.0622 -0.4997
   27CHL1    C6 1933   2.546   2.150  10.269 -0.3728 -0.8160 -0.2971
   27CHL1    H6 1934   2.522   2.217  10.352 -1.2797 -1.6983  0.1792
   27CHL1    C7 1935   2.525   2.199  10.130 -0.0697 -0.1451  0.4224
   27CHL1   H7A 1936   2.431   2.258  10.128 -0.2880 -0.5021  0.0177
   27CHL1   H7B 1937   2.606   2.270  10.102  0.6503  0.3944  3.4960
   27CHL1    C8 1938   2.513   2.080  10.040  0.3913 -1.3590 -0.5270
   27CHL1    H8 1939   2.414   2.032  10.053  0.3591 -2.5888 -4.0860
   27CHL1   C14 1940   2.511   2.137   9.897 -0.6319 -0.3814  0.1830
   27CHL1   H14 1941   2.613   2.179   9.886 -0.4933 -0.7640 -0.0330
   27CHL1   C15 1942   2.412   2.247   9.854  0.4788  0.0883  0.5599
   27CHL1  H15A 1943   2.310   2.210   9.874  0.9913 -2.3108 -0.8922
   27CHL1  H15B 1944   2.431   2.347   9.899 -1.1216  0.2910  0.8487
   27CHL1   C16 1945   2.415   2.249   9.698 -0.3390  0.2396 -0.9028
   27CHL1  H16A 1946   2.314   2.239   9.653  0.0411 -2.3386 -1.3026
   27CHL1  H16B 1947   2.463   2.341   9.659  1.1480  1.5296  3.3808
   27CHL1   C17 1948   2.504   2.122   9.660  0.8477  0.2628 -0.6470
   27CHL1   H17 1949   2.613   2.142   9.658  0.8889  0.0057 -1.1579
   27CHL1   C13 1950   2.504   2.030   9.784  0.1429  0.3375  0.4708
   27CHL1   C18 1951   2.369   1.959   9.791 -0.0484  0.6783 -0.1591
   27CHL1  H18A 1952   2.371   1.863   9.734 -1.2269  0.6874 -0.2320
   27CHL1  H18B 1953   2.350   1.924   9.895 -1.2922 -1.0667 -0.9281
   27CHL1  H18C 1954   2.281   2.010   9.747 -1.9418 -2.6091 -0.5232
   27CHL1   C12 1955   2.625   1.940   9.804  0.3967  0.2221 -0.4237
   27CHL1  H12A 1956   2.623   1.865   9.721 -1.0503 -0.2424  0.0062
   27CHL1  H12B 1957   2.717   2.000   9.788  0.6245  0.2685  0.9875
   27CHL1   C11 1958   2.627   1.875   9.945  0.2326 -0.2995 -0.2808
   27CHL1  H11A 1959   2.529   1.826   9.958  0.5128 -0.2264  2.9787
   27CHL1  H11B 1960   2.708   1.802   9.965  1.8101  1.4392  0.0437
   27CHL1    C9 1961   2.628   1.977  10.058  0.3768 -1.0779 -0.1246
   27CHL1    H9 1962   2.715   2.043  10.038 -0.5305  0.2613  0.1864
   27CHL1   C10 1963   2.644   1.933  10.200 -0.5953 -0.2818 -0.5672
   27CHL1   C19 1964   2.551   1.801  10.199  0.3417 -1.0803 -0.2231
   27CHL1  H19A 1965   2.548   1.756  10.301  0.7883 -0.5016  0.0545
   27CHL1  H19B 1966   2.448   1.827  10.167  0.7217 -2.2067 -2.5400
   27CHL1  H19C 1967   2.594   1.731  10.125  1.3097 -0.0258 -0.6970
   27CHL1    C1 1968   2.783   1.892  10.227 -0.0770  0.0263 -0.2624
   27CHL1   H1A 1969   2.809   1.812  10.154  0.6590 -0.4140  0.4698
   27CHL1   H1B 1970   2.846   1.982  10.208  0.3242 -0.1532  0.1974
   27CHL1    C2 1971   2.816   1.856  10.364 -0.3027  0.2927 -0.2391
   27CHL1   H2A 1972   2.926   1.849  10.376 -0.3589 -1.9387 -0.6913
   27CHL1   H2B 1973   2.775   1.754  10.376  0.2099  0.1412  0.2460
   27CHL1   C20 1974   2.467   2.063   9.518 -0.3416 -0.7840  0.1621
   27CHL1   H20 1975   2.357   2.045   9.513 -0.6144  0.8421 -0.3699
   27CHL1   C21 1976   2.540   1.931   9.483  0.3648 -0.0735 -0.4715
   27CHL1  H21A 1977   2.651   1.938   9.494  0.5936  0.8954 -2.8818
   27CHL1  H21B 1978   2.512   1.897   9.382  0.5373  2.9193 -1.6263
   27CHL1  H21C 1979   2.493   1.857   9.552  2.0100  1.0852  2.0513
   27CHL1   C22 1980   2.496   2.178   9.416 -0.8878  0.1717 -0.3531
   27CHL1  H22A 1981   2.451   2.278   9.438 -2.3736 -0.4166 -0.5991
   27CHL1  H22B 1982   2.607   2.186   9.419 -0.8696 -0.1902  1.8974
   27CHL1   C23 1983   2.449   2.152   9.270  0.2093 -0.1693 -0.3896
   27CHL1  H23A 1984   2.419   2.045   9.258 -0.5333  0.0291 -0.3505
   27CHL1  H23B 1985   2.349   2.202   9.268  0.6449  0.8253  1.3935
   27CHL1   C24 1986   2.534   2.220   9.157 -0.4701 -0.2369  0.0534
   27CHL1  H24A 1987   2.484   2.313   9.123  0.6453  0.1792 -0.4817
   27CHL1  H24B 1988   2.634   2.243   9.198 -0.2942 -0.6198 -0.1566
   27CHL1   C25 1989   2.561   2.121   9.033 -0.2923  0.0781 -0.5650
   27CHL1   H25 1990   2.606   2.029   9.077  1.4892  0.4190 -1.5779
   27CHL1   C26 1991   2.440   2.093   8.951 -0.4798 -0.7652  0.1795
   27CHL1  H26A 1992   2.361   2.070   9.026 -0.0246 -0.7247  0.6782
   27CHL1  H26B 1993   2.401   2.187   8.907 -0.2508  0.0952  1.7203
   27CHL1  H26C 1994   2.464   2.016   8.875  0.4801  3.4207 -4.2774
   27CHL1   C27 1995   2.682   2.168   8.952  0.8738  0.8453  0.1009
   27CHL1  H27A 1996   2.773   2.181   9.015  1.6936 -0.3308 -0.7966
   27CHL1  H27B 1997   2.714   2.088   8.881 -2.5609 -3.3384  2.8094
   27CHL1  H27C 1998   2.653   2.258   8.894  2.1657 -0.3721 -2.6503
   28CHL1    C3 1999   0.724   1.545  10.108 -0.7149 -0.5121 -0.0544
   28CHL1    H3 2000   0.624   1.499  10.099 -0.8088 -0.5363  0.9816
   28CHL1    O3 2001   0.773   1.557  10.241  0.4268 -0.2489  0.2137
   28CHL1   H3' 2002   0.867   1.573  10.228  0.5848  0.9387  2.3576
   28CHL1    C4 2003   0.826   1.477  10.019 -0.5806  0.1691  0.7440
   28CHL1   H4A 2004   0.924   1.530  10.014  0.3532 -1.4833  0.8305
   28CHL1   H4B 2005   0.851   1.374  10.052 -2.2406 -0.4800  0.0905
   28CHL1    C5 2006   0.771   1.468   9.877  0.2570  0.3144 -0.0565
   28CHL1    C6 2007   0.746   1.349   9.809 -0.5654 -0.3043 -0.1213
   28CHL1    H6 2008   0.775   1.255   9.858 -1.0986 -0.9083 -0.9302
   28CHL1    C7 2009   0.689   1.347   9.671 -0.5751  0.0489 -1.0038
   28CHL1   H7A 2010   0.744   1.269   9.615  0.0022  0.7273 -1.4083
   28CHL1   H7B 2011   0.584   1.314   9.683  0.3050 -2.1824  1.7430
   28CHL1    C8 2012   0.687   1.485   9.595 -0.1932  0.1979 -0.5476
   28CHL1    H8 2013   0.790   1.513   9.562 -0.1492  0.4463 -0.2062
   28CHL1   C14 2014   0.595   1.483   9.468 -0.5062 -0.2576 -0.5124
   28CHL1   H14 2015   0.492   1.477   9.510 -0.6912 -0.8388 -1.0312
   28CHL1   C15 2016   0.588   1.359   9.379 -0.2084  0.0668 -0.0221
   28CHL1  H15A 2017   0.687   1.326   9.340  0.0243 -0.9282  1.3240
   28CHL1  H15B 2018   0.533   1.277   9.431  3.0677 -0.3454  3.1797
   28CHL1   C16 2019   0.513   1.432   9.263  0.0847  0.3496 -0.4487
   28CHL1  H16A 2020   0.568   1.431   9.167  0.3039  1.7606 -0.3510
   28CHL1  H16B 2021   0.416   1.380   9.244  1.4552 -1.9497 -1.5932
   28CHL1   C17 2022   0.486   1.578   9.286  0.6623  0.3871  0.6383
   28CHL1   H17 2023   0.383   1.581   9.326  0.0993  0.6958 -0.7818
   28CHL1   C13 2024   0.586   1.612   9.391 -0.5628 -1.0717  0.3946
   28CHL1   C18 2025   0.725   1.636   9.330  0.0113  0.8712 -0.3198
   28CHL1  H18A 2026   0.734   1.745   9.309  0.1232  0.9888  0.3165
   28CHL1  H18B 2027   0.809   1.627   9.401  0.4338 -0.0658 -0.9268
   28CHL1  H18C 2028   0.752   1.573   9.243  0.9015  1.8964 -0.8035
   28CHL1   C12 2029   0.542   1.729   9.491 -0.2587  0.0029  0.1860
   28CHL1  H12A 2030   0.550   1.823   9.433  1.0857 -0.3624 -0.2828
   28CHL1  H12B 2031   0.439   1.719   9.531  0.6221 -2.6816  2.0837
   28CHL1   C11 2032   0.635   1.737   9.609  0.5788  0.6971  0.5753
   28CHL1  H11A 2033   0.735   1.780   9.582  1.1783 -1.3562 -0.6721
   28CHL1  H11B 2034   0.587   1.810   9.678  1.8803  1.6243  0.5379
   28CHL1    C9 2035   0.647   1.600   9.689  0.3181 -0.7009  0.0023
   28CHL1    H9 2036   0.546   1.564   9.718 -1.1680  1.9407 -1.4882
   28CHL1   C10 2037   0.735   1.604   9.820 -0.1335  0.2060  0.6325
   28CHL1   C19 2038   0.875   1.675   9.781  0.3602  0.0195 -0.0712
   28CHL1  H19A 2039   0.942   1.681   9.869  1.6965 -1.6137 -0.9373
   28CHL1  H19B 2040   0.927   1.618   9.702 -1.5885 -0.0687 -1.3674
   28CHL1  H19C 2041   0.857   1.776   9.739  0.4361 -0.1360 -0.4821
   28CHL1    C1 2042   0.658   1.696   9.917 -0.3615  0.2160 -0.3313
   28CHL1   H1A 2043   0.663   1.799   9.876  0.3196  0.2249 -0.2321
   28CHL1   H1B 2044   0.550   1.667   9.921 -0.0151 -0.9554  1.9770
   28CHL1    C2 2045   0.708   1.689  10.066 -0.3392 -0.5583  0.2500
   28CHL1   H2A 2046   0.638   1.742  10.135  0.6772  0.9235  0.1955
   28CHL1   H2B 2047   0.806   1.740  10.078 -1.4701  1.8514 -0.1714
   28CHL1   C20 2048   0.492   1.652   9.153 -0.3368 -0.9872  0.4480
   28CHL1   H20 2049   0.590   1.626   9.106 -0.0557 -1.6319  1.3541
   28CHL1   C21 2050   0.463   1.797   9.172 -0.2838 -0.0944 -0.3305
   28CHL1  H21A 2051   0.545   1.840   9.234  0.1883 -0.6384 -0.5771
   28CHL1  H21B 2052   0.360   1.833   9.192 -0.3254 -1.0396  1.2911
   28CHL1  H21C 2053   0.488   1.847   9.076 -2.0322  0.3712 -0.5830
   28CHL1   C22 2054   0.386   1.597   9.046 -0.1249 -0.1346 -0.1025
   28CHL1  H22A 2055   0.402   1.488   9.028 -0.1646 -0.3594  1.1428
   28CHL1  H22B 2056   0.287   1.630   9.083 -1.0039 -0.8064 -1.7599
   28CHL1   C23 2057   0.394   1.639   8.901  0.1826  0.0656 -0.0663
   28CHL1  H23A 2058   0.361   1.745   8.901  0.4557  0.2082  2.4796
   28CHL1  H23B 2059   0.495   1.619   8.859 -0.7908  1.1861 -3.2771
   28CHL1   C24 2060   0.302   1.558   8.807  0.1890 -0.4187  0.5620
   28CHL1  H24A 2061   0.360   1.465   8.789  4.9568  2.0560  1.5193
   28CHL1  H24B 2062   0.198   1.540   8.843 -1.1343 -0.9564 -3.0577
   28CHL1   C25 2063   0.281   1.621   8.659 -0.2595 -0.7467  0.0982
   28CHL1   H25 2064   0.381   1.663   8.635 -0.2937 -1.4693 -1.4213
   28CHL1   C26 2065   0.236   1.516   8.560 -0.0967  0.4393  0.3953
   28CHL1  H26A 2066   0.247   1.559   8.458  0.8464  1.4858  0.9153
   28CHL1  H26B 2067   0.307   1.433   8.576  0.8926  1.0456 -0.6580
   28CHL1  H26C 2068   0.131   1.486   8.582 -0.4732 -0.6639 -2.5100
   28CHL1   C27 2069   0.189   1.747   8.662  0.1442  0.7541  0.0795
   28CHL1  H27A 2070   0.172   1.776   8.556 -0.3926 -0.9403 -0.3247
   28CHL1  H27B 2071   0.097   1.720   8.718 -0.5966  4.6035  1.0333
   28CHL1  H27C 2072   0.226   1.833   8.722  1.4845  0.1361  0.1659
   29CHL1    C3 2073   3.461   3.173   6.982 -0.4507  0.5053  0.1243
   29CHL1    H3 2074   3.521   3.080   6.988 -0.0429  0.8598  3.0267
   29CHL1    O3 2075   3.467   3.210   6.849 -0.1118 -0.3050  0.0193
   29CHL1   H3' 2076   3.548   3.262   6.845 -0.3420  0.0082 -0.8148
   29CHL1    C4 2077   3.317   3.144   7.014 -0.1945 -0.9573  0.7668
   29CHL1   H4A 2078   3.256   3.227   6.973  2.4818 -0.2420 -2.1934
   29CHL1   H4B 2079   3.295   3.067   6.937  0.9300  1.3655 -2.0670
   29CHL1    C5 2080   3.299   3.106   7.163 -0.2858  0.3825  0.1848
   29CHL1    C6 2081   3.241   2.991   7.189 -0.4291 -0.7208 -0.0551
   29CHL1    H6 2082   3.206   2.940   7.099 -1.6478  2.4398 -1.5110
   29CHL1    C7 2083   3.213   2.938   7.330 -0.0319  0.0174  0.3803
   29CHL1   H7A 2084   3.114   2.891   7.351 -1.8200  3.6689  0.9314
   29CHL1   H7B 2085   3.285   2.859   7.359 -1.3536 -1.5639 -0.4188
   29CHL1    C8 2086   3.241   3.047   7.441 -0.0387  0.1132  0.0011
   29CHL1    H8 2087   3.149   3.109   7.436  0.2768  0.5837 -0.0607
   29CHL1   C14 2088   3.252   2.992   7.577 -0.2291  0.3248  0.6677
   29CHL1   H14 2089   3.350   2.941   7.563 -0.0428  1.1760 -1.5025
   29CHL1   C15 2090   3.142   2.902   7.623  1.0662  0.2503  0.6706
   29CHL1  H15A 2091   3.043   2.945   7.596  1.4192 -0.1641 -1.4212
   29CHL1  H15B 2092   3.148   2.810   7.562  0.2885 -0.2663  1.3470
   29CHL1   C16 2093   3.162   2.899   7.773 -0.3941 -0.3796  0.5111
   29CHL1  H16A 2094   3.065   2.924   7.821  0.2505  2.0815  0.6468
   29CHL1  H16B 2095   3.199   2.797   7.799  0.5509 -0.3757 -0.7067
   29CHL1   C17 2096   3.271   3.003   7.805  0.4713  0.6093  0.4359
   29CHL1   H17 2097   3.365   2.945   7.788  0.0054 -0.0873  0.2112
   29CHL1   C13 2098   3.266   3.098   7.685  0.5651  0.1622 -0.3541
   29CHL1   C18 2099   3.139   3.193   7.700 -0.6099  0.0445 -0.2949
   29CHL1  H18A 2100   3.134   3.251   7.606 -0.3275  0.4316 -0.0706
   29CHL1  H18B 2101   3.048   3.135   7.728  0.7299 -1.2135  1.7924
   29CHL1  H18C 2102   3.164   3.262   7.783  0.9510 -0.5952 -0.2029
   29CHL1   C12 2103   3.399   3.170   7.659  0.4589  0.4573 -0.7716
   29CHL1  H12A 2104   3.406   3.251   7.734 -1.1401 -0.3936  0.3633
   29CHL1  H12B 2105   3.474   3.088   7.665 -0.2492 -0.1354  0.4070
   29CHL1   C11 2106   3.402   3.229   7.520 -0.1658  0.2604 -0.0189
   29CHL1  H11A 2107   3.328   3.312   7.529 -0.2462  0.0558  1.3163
   29CHL1  H11B 2108   3.503   3.273   7.503 -0.2569  0.3903 -0.2289
   29CHL1    C9 2109   3.366   3.128   7.406 -0.3157 -0.6629 -0.4983
   29CHL1    H9 2110   3.450   3.055   7.405  1.2882  1.0404  0.7518
   29CHL1   C10 2111   3.360   3.203   7.269  0.3795  0.6435 -0.7452
   29CHL1   C19 2112   3.271   3.335   7.271 -0.2710  0.4409 -0.3709
   29CHL1  H19A 2113   3.169   3.322   7.312 -0.5647  2.2537 -0.4509
   29CHL1  H19B 2114   3.327   3.412   7.328 -1.4503  1.6174 -0.7638
   29CHL1  H19C 2115   3.253   3.381   7.171 -0.5794 -1.3485 -1.1847
   29CHL1    C1 2116   3.493   3.244   7.224 -0.1280  0.9030 -0.3656
   29CHL1   H1A 2117   3.539   3.333   7.273  1.4816  1.0782 -2.0696
   29CHL1   H1B 2118   3.563   3.158   7.236  0.1799  0.7662 -2.6689
   29CHL1    C2 2119   3.515   3.281   7.078 -0.2607 -0.2640 -0.3518
   29CHL1   H2A 2120   3.625   3.284   7.065  0.0919 -1.3795  1.9048
   29CHL1   H2B 2121   3.467   3.381   7.066 -1.1106 -0.3451  1.9079
   29CHL1   C20 2122   3.273   3.054   7.950  0.1880 -0.1882 -0.1397
   29CHL1   H20 2123   3.194   3.132   7.965  1.2703  0.4208  3.3710
   29CHL1   C21 2124   3.409   3.119   7.971 -0.1106 -0.0608 -0.2097
   29CHL1  H21A 2125   3.400   3.227   7.950  2.1546  0.3833  0.7985
   29CHL1  H21B 2126   3.487   3.066   7.913 -1.0247 -2.6078  0.7347
   29CHL1  H21C 2127   3.432   3.116   8.080 -0.1431  0.2080 -0.1950
   29CHL1   C22 2128   3.246   2.940   8.057  0.2250  0.5296  0.0649
   29CHL1  H22A 2129   3.139   2.913   8.041  0.8780 -0.7630 -2.7542
   29CHL1  H22B 2130   3.315   2.860   8.022 -0.3971  0.5183 -1.2104
   29CHL1   C23 2131   3.271   2.974   8.202  0.0263  0.1096  0.0179
   29CHL1  H23A 2132   3.378   2.965   8.230 -0.0927  0.9926  0.7740
   29CHL1  H23B 2133   3.236   3.077   8.226  0.8390  0.2567  0.5804
   29CHL1   C24 2134   3.193   2.874   8.290  0.1101 -0.1354 -0.4355
   29CHL1  H24A 2135   3.084   2.881   8.269  0.2328  1.5653 -0.6858
   29CHL1  H24B 2136   3.226   2.773   8.258 -1.5902 -0.3480 -1.6677
   29CHL1   C25 2137   3.230   2.894   8.443  0.4589 -0.1951 -0.2465
   29CHL1   H25 2138   3.338   2.915   8.451  0.2891  0.8696 -0.4930
   29CHL1   C26 2139   3.168   3.018   8.507  0.0059 -0.3484 -0.5682
   29CHL1  H26A 2140   3.195   3.026   8.614 -0.9082 -0.5180 -0.3147
   29CHL1  H26B 2141   3.173   3.109   8.443  0.0781 -0.5280 -0.8194
   29CHL1  H26C 2142   3.059   2.996   8.519  0.1914 -0.5367  0.9213
   29CHL1   C27 2143   3.192   2.770   8.530  0.3404 -0.7799 -0.2415
   29CHL1  H27A 2144   3.223   2.796   8.633 -0.3440  0.9207 -0.4344
   29CHL1  H27B 2145   3.082   2.754   8.521 -0.2775  1.8425  1.3529
   29CHL1  H27C 2146   3.237   2.674   8.499 -0.3529 -1.6793  1.4395
   30CHL1    C3 2147   1.498   3.061   7.368 -0.6412  0.3439  0.0599
   30CHL1    H3 2148   1.460   2.958   7.385  1.3681 -0.4342  0.0486
   30CHL1    O3 2149   1.455   3.090   7.235 -0.5134 -0.1127  0.4828
   30CHL1   H3' 2150   1.476   3.013   7.182 -1.8484  2.0405 -3.5584
   30CHL1    C4 2151   1.435   3.153   7.473 -0.1641  0.0201  0.1932
   30CHL1   H4A 2152   1.466   3.256   7.448 -3.0017  0.4641 -1.9545
   30CHL1   H4B 2153   1.325   3.162   7.462 -0.3522 -0.8659  1.1477
   30CHL1    C5 2154   1.476   3.114   7.609 -1.2713  0.4487  0.7124
   30CHL1    C6 2155   1.386   3.073   7.698 -0.2519 -0.0012  0.6735
   30CHL1    H6 2156   1.279   3.074   7.670 -0.3355  1.2633  1.0079
   30CHL1    C7 2157   1.420   3.037   7.834 -0.3558 -0.1208  0.6656
   30CHL1   H7A 2158   1.357   3.094   7.905 -0.8482  1.1428 -0.7489
   30CHL1   H7B 2159   1.402   2.929   7.849 -0.9688 -0.0944  0.1536
   30CHL1    C8 2160   1.568   3.067   7.866 -0.1856  0.2607 -0.1414
   30CHL1    H8 2161   1.573   3.175   7.890 -2.5717 -0.0690  2.4350
   30CHL1   C14 2162   1.610   2.993   7.992  0.6647 -0.3302 -0.0630
   30CHL1   H14 2163   1.601   2.885   7.965  1.4952 -1.0320  2.2229
   30CHL1   C15 2164   1.514   3.011   8.115 -0.0054  0.2059  0.1404
   30CHL1  H15A 2165   1.483   3.117   8.125 -1.6426 -0.4498  3.6271
   30CHL1  H15B 2166   1.433   2.935   8.107  0.5432 -0.2673 -1.1334
   30CHL1   C16 2167   1.606   2.968   8.228 -0.4342  0.1724  0.0851
   30CHL1  H16A 2168   1.610   3.053   8.299  0.6409  0.0100  0.2255
   30CHL1  H16B 2169   1.576   2.881   8.290 -0.0199 -0.5789 -0.7483
   30CHL1   C17 2170   1.748   2.943   8.175  0.4352  0.4114  0.5638
   30CHL1   H17 2171   1.761   2.839   8.137  1.0458  0.6998 -0.0460
   30CHL1   C13 2172   1.751   3.022   8.043  0.3074 -0.4827 -0.2476
   30CHL1   C18 2173   1.778   3.176   8.070 -0.5050  0.8576 -0.2079
   30CHL1  H18A 2174   1.701   3.219   8.138 -2.0472 -2.8605  0.6447
   30CHL1  H18B 2175   1.871   3.185   8.129  0.0117 -0.9226 -0.6974
   30CHL1  H18C 2176   1.798   3.235   7.978  3.3230 -2.9574 -2.1491
   30CHL1   C12 2177   1.842   2.970   7.932  0.5452  0.6661 -0.1297
   30CHL1  H12A 2178   1.947   2.988   7.964  0.2864  1.5201  0.2630
   30CHL1  H12B 2179   1.818   2.864   7.912 -2.2613  1.4998 -1.6222
   30CHL1   C11 2180   1.811   3.044   7.804  0.0568  1.0291  0.3577
   30CHL1  H11A 2181   1.843   3.149   7.822  3.9673 -0.3257  2.6427
   30CHL1  H11B 2182   1.872   3.009   7.718 -0.1205  0.9485  0.2629
   30CHL1    C9 2183   1.667   3.026   7.761  0.4382 -0.4266 -0.3297
   30CHL1    H9 2184   1.655   2.917   7.743 -1.8802 -0.2219 -0.3766
   30CHL1   C10 2185   1.632   3.111   7.633 -0.5187  0.5722 -0.2120
   30CHL1   C19 2186   1.687   3.256   7.646 -0.5506  0.4778  0.2038
   30CHL1  H19A 2187   1.795   3.268   7.623 -0.7741 -1.5307 -2.4282
   30CHL1  H19B 2188   1.627   3.319   7.576 -2.1123 -1.4636 -0.3062
   30CHL1  H19C 2189   1.664   3.293   7.748  0.0721  0.4172  0.3676
   30CHL1    C1 2190   1.704   3.034   7.519 -0.0808  0.1410 -0.3826
   30CHL1   H1A 2191   1.814   3.050   7.519  0.0267 -0.2279  1.9719
   30CHL1   H1B 2192   1.692   2.924   7.532  1.6514  0.0213  0.4421
   30CHL1    C2 2193   1.655   3.070   7.381 -0.3340 -1.0609 -0.3901
   30CHL1   H2A 2194   1.712   3.005   7.312  1.1613  0.0037 -0.2173
   30CHL1   H2B 2195   1.671   3.178   7.358 -0.8082 -0.7458  0.6720
   30CHL1   C20 2196   1.856   2.964   8.288 -0.2908 -0.0770 -0.1492
   30CHL1   H20 2197   1.850   3.070   8.319  1.1015  0.4229 -1.4752
   30CHL1   C21 2198   1.998   2.941   8.230 -0.3548  0.7941 -0.1311
   30CHL1  H21A 2199   2.015   2.832   8.222  0.3347  0.7898  1.1825
   30CHL1  H21B 2200   2.067   2.970   8.313 -1.8865 -0.1140  1.5460
   30CHL1  H21C 2201   2.028   3.005   8.145 -1.1663  0.5227 -0.6347
   30CHL1   C22 2202   1.817   2.879   8.411  0.6360  0.2406 -0.0266
   30CHL1  H22A 2203   1.718   2.911   8.451  0.7895 -0.0064  0.5606
   30CHL1  H22B 2204   1.812   2.773   8.377 -2.1681  0.1077  0.5608
   30CHL1   C23 2205   1.921   2.878   8.526  0.0999 -0.0479  0.6934
   30CHL1  H23A 2206   2.011   2.827   8.486 -0.6237  0.7423 -2.1358
   30CHL1  H23B 2207   1.961   2.978   8.552 -0.2063  0.1559  0.3787
   30CHL1   C24 2208   1.869   2.800   8.649  0.2567  0.1576  0.0593
   30CHL1  H24A 2209   1.793   2.860   8.704  1.9998  2.9466 -0.3579
   30CHL1  H24B 2210   1.816   2.709   8.612  1.4024 -0.3885 -0.2726
   30CHL1   C25 2211   1.983   2.742   8.729  0.4023  0.2418  0.0035
   30CHL1   H25 2212   2.033   2.667   8.663 -1.1665 -0.7906 -0.0644
   30CHL1   C26 2213   2.076   2.854   8.787 -0.9554  0.1815  0.2351
   30CHL1  H26A 2214   2.019   2.933   8.842 -0.3842  1.5203 -1.0268
   30CHL1  H26B 2215   2.149   2.815   8.861 -0.7376  2.5714  1.3899
   30CHL1  H26C 2216   2.137   2.909   8.713 -1.1835 -0.2288 -0.2583
   30CHL1   C27 2217   1.914   2.661   8.836 -1.0340 -0.1657  0.3750
   30CHL1  H27A 2218   1.862   2.569   8.801 -0.7912 -0.5987  1.1219
   30CHL1  H27B 2219   1.991   2.621   8.906  0.6660 -0.5499 -1.6004
   30CHL1  H27C 2220   1.841   2.717   8.898  0.5416  0.8478  1.3777
   31CHL1    C3 2221   1.244   6.474   7.052 -0.0896 -0.3428 -0.1795
   31CHL1    H3 2222   1.236   6.364   7.064  0.7065 -0.5536 -1.4305
   31CHL1    O3 2223   1.194   6.508   6.923  0.3692 -0.0067 -0.2226
   31CHL1   H3' 2224   1.184   6.603   6.914  0.4062  0.0312  0.1226
   31CHL1    C4 2225   1.173   6.559   7.160  0.8255  0.0497  1.1092
   31CHL1   H4A 2226   1.181   6.661   7.116  1.2738 -1.2093 -1.8998
   31CHL1   H4B 2227   1.065   6.533   7.165  0.2880  1.6253 -1.0002
   31CHL1    C5 2228   1.232   6.542   7.299 -0.2000 -0.1616  0.3624
   31CHL1    C6 2229   1.164   6.487   7.403 -0.1551  0.0142  0.1611
   31CHL1    H6 2230   1.059   6.455   7.402  0.7559 -3.4316  1.5853
   31CHL1    C7 2231   1.218   6.481   7.544 -0.6456  0.4128  0.1777
   31CHL1   H7A 2232   1.145   6.504   7.624  0.9285  0.0776  1.7733
   31CHL1   H7B 2233   1.258   6.379   7.565  0.9955  1.3851  2.1067
   31CHL1    C8 2234   1.344   6.572   7.567 -0.4478 -0.3695 -0.6903
   31CHL1    H8 2235   1.312   6.678   7.579 -0.2403 -0.3384 -0.4235
   31CHL1   C14 2236   1.422   6.523   7.695  0.0569  0.3481  0.4270
   31CHL1   H14 2237   1.456   6.419   7.672  0.5511  0.5860  0.0702
   31CHL1   C15 2238   1.347   6.521   7.820 -0.2265 -0.1947 -0.7967
   31CHL1  H15A 2239   1.289   6.616   7.824  0.8512  0.4462  1.0534
   31CHL1  H15B 2240   1.275   6.437   7.821 -0.4547 -0.0044 -1.0864
   31CHL1   C16 2241   1.460   6.506   7.930  0.4676  0.3603 -0.1154
   31CHL1  H16A 2242   1.444   6.558   8.027 -0.4382 -2.3997  1.3362
   31CHL1  H16B 2243   1.469   6.399   7.958  1.0842 -0.2436 -2.3955
   31CHL1   C17 2244   1.590   6.559   7.864  0.0353 -0.2271 -0.2189
   31CHL1   H17 2245   1.648   6.467   7.843 -3.2454 -2.7619  0.8253
   31CHL1   C13 2246   1.546   6.609   7.723 -0.1797  0.4947 -0.2015
   31CHL1   C18 2247   1.511   6.753   7.735  0.5686  0.5103 -0.3758
   31CHL1  H18A 2248   1.459   6.789   7.645  2.1154  2.9880 -0.3659
   31CHL1  H18B 2249   1.447   6.767   7.825  0.0831  2.3464 -0.9722
   31CHL1  H18C 2250   1.596   6.824   7.743 -0.0181  1.1627  0.1863
   31CHL1   C12 2251   1.656   6.590   7.614  0.3511  0.2308 -0.0513
   31CHL1  H12A 2252   1.744   6.656   7.628 -1.3291  2.1565  2.2057
   31CHL1  H12B 2253   1.693   6.485   7.609 -1.3794 -0.3686 -1.3864
   31CHL1   C11 2254   1.590   6.620   7.471 -0.6024 -0.2743  0.4907
   31CHL1  H11A 2255   1.587   6.731   7.464  2.1789 -0.1623 -0.2271
   31CHL1  H11B 2256   1.655   6.589   7.387  1.5361 -1.4389  2.4615
   31CHL1    C9 2257   1.444   6.554   7.452 -0.4483  0.2798 -0.3057
   31CHL1    H9 2258   1.467   6.445   7.446 -1.0293  0.1312  0.0255
   31CHL1   C10 2259   1.383   6.587   7.311  0.3862 -0.3238  0.2701
   31CHL1   C19 2260   1.394   6.733   7.284 -0.4863  0.6018 -0.8717
   31CHL1  H19A 2261   1.344   6.767   7.190 -1.5628 -0.3383 -0.6596
   31CHL1  H19B 2262   1.371   6.790   7.376  1.6342 -0.4468  0.3947
   31CHL1  H19C 2263   1.500   6.763   7.266 -0.1974 -0.2135 -0.5514
   31CHL1    C1 2264   1.459   6.515   7.192 -0.5278 -0.0894  0.6070
   31CHL1   H1A 2265   1.568   6.534   7.196 -0.8425  1.8080  1.3884
   31CHL1   H1B 2266   1.449   6.410   7.228  1.0678  0.2684  2.2448
   31CHL1    C2 2267   1.387   6.514   7.056  0.0242  0.0743  0.2445
   31CHL1   H2A 2268   1.449   6.459   6.982 -0.4023  0.4139 -0.3769
   31CHL1   H2B 2269   1.394   6.619   7.020  0.5207 -0.1354 -0.2818
   31CHL1   C20 2270   1.674   6.652   7.954 -0.1342  0.8836  0.1956
   31CHL1   H20 2271   1.612   6.742   7.976 -3.0290 -0.4142 -2.0448
   31CHL1   C21 2272   1.796   6.696   7.881 -0.7179  0.6472  0.2791
   31CHL1  H21A 2273   1.776   6.774   7.804  2.3088  1.3076  0.0446
   31CHL1  H21B 2274   1.845   6.615   7.822 -1.8887 -0.0936  0.2941
   31CHL1  H21C 2275   1.872   6.736   7.950 -0.5363 -0.8282  0.9689
   31CHL1   C22 2276   1.707   6.581   8.090 -0.0534  0.0487  0.7380
   31CHL1  H22A 2277   1.626   6.507   8.107 -3.1498  1.9746 -3.5345
   31CHL1  H22B 2278   1.788   6.511   8.062  0.7255  0.8566  0.9438
   31CHL1   C23 2279   1.742   6.677   8.204 -0.7935 -0.4150 -0.2928
   31CHL1  H23A 2280   1.812   6.754   8.166  0.2277  0.3161  2.7385
   31CHL1  H23B 2281   1.649   6.720   8.245 -0.1505 -1.0123  1.9535
   31CHL1   C24 2282   1.807   6.623   8.336 -0.0891  0.3078 -0.0268
   31CHL1  H24A 2283   1.781   6.515   8.339 -0.5799  0.3264 -2.0497
   31CHL1  H24B 2284   1.915   6.629   8.311 -0.2039  1.6982 -0.2613
   31CHL1   C25 2285   1.787   6.691   8.475  1.1473  0.4365 -0.5988
   31CHL1   H25 2286   1.864   6.648   8.543  1.5369  2.2924  0.1717
   31CHL1   C26 2287   1.809   6.843   8.498  0.0819  0.6161  0.3259
   31CHL1  H26A 2288   1.726   6.901   8.452 -2.1598 -2.1359  0.6504
   31CHL1  H26B 2289   1.791   6.867   8.605 -0.7669 -2.3061  0.9198
   31CHL1  H26C 2290   1.913   6.862   8.464 -0.3247  0.0314 -1.3438
   31CHL1   C27 2291   1.644   6.661   8.527  0.7568  0.2138 -0.4398
   31CHL1  H27A 2292   1.615   6.708   8.623 -1.0669  0.7202 -1.1994
   31CHL1  H27B 2293   1.643   6.551   8.544 -0.9275  0.6502  3.4145
   31CHL1  H27C 2294   1.562   6.694   8.461 -1.8942 -0.0575  2.4855
   32CHL1    C3 2295   0.912   2.374   7.004 -0.6836 -0.6812  0.5448
   32CHL1    H3 2296   0.891   2.267   6.986 -1.6276 -0.7369  1.8081
   32CHL1    O3 2297   0.913   2.417   6.867 -0.5730  0.1685  0.4011
   32CHL1   H3' 2298   0.966   2.496   6.856 -2.5791  1.3105 -1.9384
   32CHL1    C4 2299   0.794   2.431   7.074  0.5008 -0.3433 -0.2396
   32CHL1   H4A 2300   0.805   2.541   7.062  0.4688 -0.3496 -0.3264
   32CHL1   H4B 2301   0.693   2.405   7.036 -0.5306  1.5419  1.0684
   32CHL1    C5 2302   0.793   2.384   7.223 -0.2086 -0.3508  0.2913
   32CHL1    C6 2303   0.696   2.327   7.287  0.4165  0.7072 -0.2498
   32CHL1    H6 2304   0.604   2.317   7.227 -0.1992 -1.2667  0.9186
   32CHL1    C7 2305   0.692   2.285   7.431 -0.5968  0.1521  1.0065
   32CHL1   H7A 2306   0.597   2.302   7.485 -2.3174  1.1138 -2.1563
   32CHL1   H7B 2307   0.724   2.178   7.437  1.1203  0.3730 -2.1732
   32CHL1    C8 2308   0.811   2.359   7.513  0.8048  0.1692  0.1588
   32CHL1    H8 2309   0.789   2.467   7.523  0.9854  0.2593 -0.3749
   32CHL1   C14 2310   0.833   2.295   7.650  0.4773 -0.8320  0.4515
   32CHL1   H14 2311   0.857   2.190   7.624  3.2234 -0.0208 -0.6080
   32CHL1   C15 2312   0.719   2.293   7.747  0.2102  0.2114  0.5628
   32CHL1  H15A 2313   0.658   2.386   7.745  0.1056  0.1956  2.0914
   32CHL1  H15B 2314   0.644   2.214   7.727 -0.3226  0.9554 -0.4774
   32CHL1   C16 2315   0.771   2.279   7.891 -0.0484 -0.4999  0.1587
   32CHL1  H16A 2316   0.745   2.365   7.956 -2.1592 -1.6915  0.9676
   32CHL1  H16B 2317   0.723   2.186   7.928 -0.3030 -1.4085 -2.2358
   32CHL1   C17 2318   0.923   2.270   7.868  0.1846 -0.3051  0.0713
   32CHL1   H17 2319   0.954   2.165   7.849 -2.4739 -1.1110 -0.2210
   32CHL1   C13 2320   0.950   2.352   7.734 -0.1905 -0.2478 -0.0919
   32CHL1   C18 2321   0.935   2.510   7.763  1.3234  0.7567 -0.0034
   32CHL1  H18A 2322   0.829   2.534   7.783  1.2324  1.8164 -1.5161
   32CHL1  H18B 2323   0.996   2.556   7.843  0.3289  3.8485 -0.8720
   32CHL1  H18C 2324   0.958   2.563   7.668 -1.3340  3.0722  0.5339
   32CHL1   C12 2325   1.088   2.328   7.656  0.8046 -0.2709 -0.3414
   32CHL1  H12A 2326   1.184   2.371   7.692  0.6853  0.1463 -0.5137
   32CHL1  H12B 2327   1.094   2.218   7.646  1.1336 -0.5989  2.5416
   32CHL1   C11 2328   1.070   2.382   7.506 -0.5784  0.4420 -0.1953
   32CHL1  H11A 2329   1.084   2.492   7.504  1.6874  0.1946 -0.3004
   32CHL1  H11B 2330   1.156   2.333   7.456 -2.6961 -2.9392 -0.8473
   32CHL1    C9 2331   0.942   2.341   7.435 -0.5030  0.8072 -0.7895
   32CHL1    H9 2332   0.953   2.230   7.435  1.0940  0.9330 -0.1814
   32CHL1   C10 2333   0.934   2.409   7.294  0.9168  0.0180 -0.3613
   32CHL1   C19 2334   0.962   2.562   7.299 -1.0148  0.3418 -0.0204
   32CHL1  H19A 2335   0.893   2.607   7.374 -1.5054 -2.6681  1.4585
   32CHL1  H19B 2336   1.069   2.583   7.318 -1.3698  3.0021 -0.4860
   32CHL1  H19C 2337   0.947   2.610   7.199 -0.2819  1.5210  0.4176
   32CHL1    C1 2338   1.050   2.350   7.210  0.0438  0.5616 -0.5336
   32CHL1   H1A 2339   1.140   2.385   7.266 -0.8825 -0.6070  1.8069
   32CHL1   H1B 2340   1.037   2.240   7.211 -0.6990  0.6303  1.0580
   32CHL1    C2 2341   1.046   2.395   7.067 -0.7971 -0.5091 -0.5328
   32CHL1   H2A 2342   1.121   2.333   7.015  0.0377 -0.3269  0.4196
   32CHL1   H2B 2343   1.088   2.497   7.050  0.8082 -1.1441 -0.4784
   32CHL1   C20 2344   0.997   2.318   7.998 -0.4402  0.3649  0.6922
   32CHL1   H20 2345   0.950   2.417   8.020  1.8549  1.8288 -0.5335
   32CHL1   C21 2346   1.147   2.333   7.961 -0.7172 -0.1709  0.4906
   32CHL1  H21A 2347   1.155   2.415   7.887  0.6881 -0.8185 -0.1133
   32CHL1  H21B 2348   1.201   2.244   7.920  1.1233  1.6833 -1.3498
   32CHL1  H21C 2349   1.202   2.377   8.046 -1.2867  1.4426  0.0522
   32CHL1   C22 2350   0.982   2.222   8.118  1.2220 -0.5565 -0.9108
   32CHL1  H22A 2351   0.878   2.184   8.112 -0.2233  2.9692 -0.6215
   32CHL1  H22B 2352   1.048   2.132   8.119 -0.6193 -1.9590  0.0025
   32CHL1   C23 2353   0.986   2.292   8.255  0.3514 -0.4211 -0.3427
   32CHL1  H23A 2354   1.081   2.349   8.253 -0.5567  1.1913  0.1799
   32CHL1  H23B 2355   0.911   2.372   8.272  2.3954  1.3970  0.6056
   32CHL1   C24 2356   0.963   2.184   8.359  0.1703  0.1922 -0.1173
   32CHL1  H24A 2357   0.870   2.123   8.355  0.4304 -0.4638  2.1400
   32CHL1  H24B 2358   1.050   2.115   8.357 -1.4922 -2.3555  3.5159
   32CHL1   C25 2359   0.961   2.247   8.502 -0.3380  0.5587 -0.3287
   32CHL1   H25 2360   0.883   2.326   8.501 -2.1984 -1.1469  1.0349
   32CHL1   C26 2361   0.919   2.146   8.623 -0.1592  0.0802  0.4699
   32CHL1  H26A 2362   0.992   2.062   8.628 -0.6644 -0.3366  0.9541
   32CHL1  H26B 2363   0.924   2.200   8.720 -0.0212  0.7848  0.0773
   32CHL1  H26C 2364   0.818   2.104   8.606 -0.5052 -0.3216  3.0667
   32CHL1   C27 2365   1.101   2.296   8.543 -0.4339 -0.1754  0.4559
   32CHL1  H27A 2366   1.096   2.328   8.649  0.7902  0.9711  0.1822
   32CHL1  H27B 2367   1.173   2.214   8.523  1.6524  1.6010  0.3725
   32CHL1  H27C 2368   1.139   2.380   8.481  0.5961 -0.9003  0.0778
   33CHL1    C3 2369   5.002   3.379   6.931 -0.3095 -0.2475 -0.0987
   33CHL1    H3 2370   5.061   3.285   6.924  1.1643  0.7368 -1.5540
   33CHL1    O3 2371   5.009   3.447   6.809  0.5717 -0.2140 -0.1247
   33CHL1   H3' 2372   4.931   3.504   6.810  0.9813  0.3813  1.4016
   33CHL1    C4 2373   4.855   3.354   6.965 -0.6670  0.3780  0.0508
   33CHL1   H4A 2374   4.806   3.453   6.978 -2.0578 -0.4287  1.2151
   33CHL1   H4B 2375   4.814   3.295   6.881 -0.1249  0.4430 -0.2672
   33CHL1    C5 2376   4.839   3.284   7.102 -0.3139  0.3730 -0.5019
   33CHL1    C6 2377   4.790   3.158   7.115 -0.3043  0.1906  0.0389
   33CHL1    H6 2378   4.751   3.104   7.027 -2.8199  2.7368 -0.5576
   33CHL1    C7 2379   4.781   3.085   7.248 -0.2649  1.0349  0.2749
   33CHL1   H7A 2380   4.681   3.038   7.256  0.0451  0.0185 -1.4016
   33CHL1   H7B 2381   4.849   2.998   7.251  1.6721  2.4753 -0.0664
   33CHL1    C8 2382   4.797   3.176   7.369 -0.9519 -0.7879 -0.6578
   33CHL1    H8 2383   4.703   3.236   7.372 -0.3498  0.1351  0.4871
   33CHL1   C14 2384   4.821   3.095   7.495 -0.0847 -0.1359  0.5587
   33CHL1   H14 2385   4.919   3.045   7.484 -1.2389 -3.1732  2.4953
   33CHL1   C15 2386   4.729   2.972   7.518 -0.1043  0.3909  0.4566
   33CHL1  H15A 2387   4.621   2.991   7.502 -0.6986 -1.9326  1.2251
   33CHL1  H15B 2388   4.767   2.890   7.453  0.9837 -0.1302  1.7075
   33CHL1   C16 2389   4.753   2.942   7.666 -0.1893  0.2170 -0.3544
   33CHL1  H16A 2390   4.658   2.924   7.722  0.3404  0.6510  0.7228
   33CHL1  H16B 2391   4.832   2.865   7.672  2.1545  2.4036 -1.3944
   33CHL1   C17 2392   4.826   3.065   7.727  0.6724 -0.1830  0.1466
   33CHL1   H17 2393   4.931   3.032   7.713  0.4478  0.2447 -3.6528
   33CHL1   C13 2394   4.824   3.182   7.624  0.5541  0.6204  0.1308
   33CHL1   C18 2395   4.701   3.267   7.653 -0.2065 -0.0837  0.1043
   33CHL1  H18A 2396   4.720   3.339   7.735 -2.4590 -0.3442  0.9046
   33CHL1  H18B 2397   4.688   3.330   7.563 -1.3688 -2.0183 -1.1683
   33CHL1  H18C 2398   4.605   3.217   7.676 -0.3129  0.8557  1.8161
   33CHL1   C12 2399   4.955   3.258   7.613  0.0738 -0.0668 -0.2393
   33CHL1  H12A 2400   4.971   3.326   7.699  0.7231  2.0015 -1.9007
   33CHL1  H12B 2401   5.041   3.189   7.601 -1.5293 -2.3180  0.7040
   33CHL1   C11 2402   4.951   3.351   7.486  0.3261 -0.0031 -0.7017
   33CHL1  H11A 2403   4.873   3.426   7.511 -0.8544 -1.9788  1.9913
   33CHL1  H11B 2404   5.045   3.409   7.498  2.6526 -3.3245 -1.5226
   33CHL1    C9 2405   4.920   3.274   7.354  0.7475  0.4475 -0.3344
   33CHL1    H9 2406   4.994   3.192   7.337  0.2314  0.1996 -1.4744
   33CHL1   C10 2407   4.906   3.358   7.220 -0.2342  0.1752  0.4476
   33CHL1   C19 2408   4.819   3.483   7.255 -0.0558 -0.0322 -0.4396
   33CHL1  H19A 2409   4.725   3.449   7.303  0.0415  1.6268  1.0229
   33CHL1  H19B 2410   4.877   3.547   7.325 -0.4303 -1.9774  1.7807
   33CHL1  H19C 2411   4.791   3.551   7.172  0.7126  1.8166  0.7525
   33CHL1    C1 2412   5.048   3.398   7.183  0.2131  0.5856  0.2351
   33CHL1   H1A 2413   5.084   3.471   7.259 -0.7983  0.8855  0.4316
   33CHL1   H1B 2414   5.121   3.314   7.178  0.9877  1.1699  1.2292
   33CHL1    C2 2415   5.066   3.459   7.041 -0.3616 -0.2237  0.0601
   33CHL1   H2A 2416   5.175   3.468   7.020 -0.6387 -0.5002 -1.6084
   33CHL1   H2B 2417   5.019   3.559   7.046 -1.5391 -0.8091  2.8753
   33CHL1   C20 2418   4.807   3.086   7.881  0.5133 -0.5071 -0.4438
   33CHL1   H20 2419   4.862   3.180   7.902  1.6306 -1.0371 -0.9524
   33CHL1   C21 2420   4.880   2.965   7.950  0.8285 -0.2887 -0.5792
   33CHL1  H21A 2421   4.863   2.868   7.898  1.4251 -1.2692  0.9851
   33CHL1  H21B 2422   4.841   2.955   8.053 -1.0056 -0.3894 -1.2423
   33CHL1  H21C 2423   4.989   2.988   7.945  0.9198 -0.8972 -2.5021
   33CHL1   C22 2424   4.659   3.099   7.934 -0.3648  0.3250  0.1588
   33CHL1  H22A 2425   4.610   3.180   7.876 -0.8992 -1.1873 -1.6179
   33CHL1  H22B 2426   4.608   3.001   7.926  1.2545 -0.9114  3.3804
   33CHL1   C23 2427   4.652   3.135   8.091  0.2118 -0.0160  0.6279
   33CHL1  H23A 2428   4.546   3.149   8.120 -1.1925 -0.6087 -3.4619
   33CHL1  H23B 2429   4.685   3.047   8.150 -1.3236 -0.8946  0.2237
   33CHL1   C24 2430   4.716   3.272   8.127 -0.0289  0.3017  0.2628
   33CHL1  H24A 2431   4.821   3.257   8.093  0.6128  1.6332  1.5712
   33CHL1  H24B 2432   4.663   3.351   8.069 -0.5373 -0.7329 -0.7349
   33CHL1   C25 2433   4.723   3.298   8.277 -0.3311 -0.5055 -0.1343
   33CHL1   H25 2434   4.791   3.230   8.332 -1.3283 -1.5851 -0.2002
   33CHL1   C26 2435   4.786   3.434   8.278 -0.0570 -0.8206 -0.7840
   33CHL1  H26A 2436   4.797   3.467   8.383 -0.4284  1.0009 -1.2751
   33CHL1  H26B 2437   4.884   3.425   8.226  0.2371  1.5761 -0.7566
   33CHL1  H26C 2438   4.732   3.514   8.222  0.9461  0.5997  0.1979
   33CHL1   C27 2439   4.584   3.310   8.335  0.2005 -0.2947 -0.4906
   33CHL1  H27A 2440   4.524   3.382   8.276 -0.8022  1.3985  2.4076
   33CHL1  H27B 2441   4.535   3.210   8.344 -0.3625  0.0710  0.7190
   33CHL1  H27C 2442   4.600   3.341   8.440  3.1307  0.1047 -0.9610
   34CHL1    C3 2443   1.871   2.004   7.215 -0.0701 -0.2598  0.3008
   34CHL1    H3 2444   1.800   2.060   7.279  0.0483 -2.2636  2.2946
   34CHL1    O3 2445   1.896   2.063   7.092  0.0456  0.1280  0.2107
   34CHL1   H3' 2446   1.963   2.006   7.054 -0.5713 -0.9810  0.7366
   34CHL1    C4 2447   1.997   1.983   7.304  0.7286  0.3857  0.2269
   34CHL1   H4A 2448   2.070   1.922   7.248  1.3311  0.3593  1.0201
   34CHL1   H4B 2449   2.048   2.081   7.313  0.5651  0.5371 -0.4586
   34CHL1    C5 2450   1.960   1.910   7.430  0.0658  0.7595  0.1801
   34CHL1    C6 2451   1.983   1.977   7.540  0.1196  0.2740 -1.6941
   34CHL1    H6 2452   2.032   2.075   7.530 -0.9869  0.9592 -0.6808
   34CHL1    C7 2453   1.954   1.913   7.673 -0.7980 -0.0451 -0.2187
   34CHL1   H7A 2454   2.048   1.921   7.733  1.1878  0.0585 -3.1384
   34CHL1   H7B 2455   1.866   1.956   7.726 -0.6332 -1.0369  0.8975
   34CHL1    C8 2456   1.919   1.761   7.670 -0.2536  0.2909 -0.5187
   34CHL1    H8 2457   2.015   1.707   7.653 -0.0401 -0.1162  1.6098
   34CHL1   C14 2458   1.858   1.715   7.797 -0.0097  1.0038 -0.4722
   34CHL1   H14 2459   1.761   1.765   7.817  0.3760  1.4431  0.3775
   34CHL1   C15 2460   1.929   1.751   7.940 -0.2824  0.0489  0.2472
   34CHL1  H15A 2461   2.038   1.745   7.923 -0.6155  0.6472 -2.5868
   34CHL1  H15B 2462   1.900   1.850   7.982 -0.9682 -0.3239  0.6834
   34CHL1   C16 2463   1.867   1.642   8.032  0.2765  0.0268  0.7375
   34CHL1  H16A 2464   1.958   1.588   8.067  1.3597  2.4062  1.8287
   34CHL1  H16B 2465   1.817   1.681   8.124 -2.8222 -1.9519  0.0607
   34CHL1   C17 2466   1.784   1.537   7.944  0.1118 -0.1145  0.0316
   34CHL1   H17 2467   1.683   1.585   7.944  0.0784 -0.1774 -0.5154
   34CHL1   C13 2468   1.824   1.558   7.798 -0.6264 -0.1925 -0.5449
   34CHL1   C18 2469   1.948   1.466   7.780  0.1976 -0.3284  0.0213
   34CHL1  H18A 2470   2.019   1.471   7.865 -0.6802  4.3573  0.7265
   34CHL1  H18B 2471   1.907   1.365   7.757 -0.0373 -0.1696 -0.2600
   34CHL1  H18C 2472   2.009   1.496   7.692  0.7793 -0.7713  0.2624
   34CHL1   C12 2473   1.716   1.543   7.695  0.2579  0.7071 -0.4012
   34CHL1  H12A 2474   1.688   1.436   7.683 -1.1473  0.9678  0.3858
   34CHL1  H12B 2475   1.624   1.598   7.724  0.3788  0.7923 -0.1753
   34CHL1   C11 2476   1.772   1.578   7.556 -0.6750 -0.2100  0.4249
   34CHL1  H11A 2477   1.861   1.515   7.537 -1.8687 -2.4826  1.9103
   34CHL1  H11B 2478   1.699   1.562   7.473 -0.8640  0.2433  0.4985
   34CHL1    C9 2479   1.818   1.732   7.557  0.0529  0.7333 -0.6527
   34CHL1    H9 2480   1.728   1.793   7.580 -0.4209 -0.2179  0.0658
   34CHL1   C10 2481   1.879   1.780   7.420  0.1284  0.6859  0.4552
   34CHL1   C19 2482   1.988   1.678   7.371  0.2191 -0.6579  0.1196
   34CHL1  H19A 2483   2.085   1.681   7.425 -0.3815 -0.1385  1.2032
   34CHL1  H19B 2484   1.947   1.575   7.372  0.1516 -0.6369 -0.3645
   34CHL1  H19C 2485   2.009   1.707   7.266  1.9504 -1.1707  0.2933
   34CHL1    C1 2486   1.768   1.798   7.316 -0.4063  0.0469 -0.3740
   34CHL1   H1A 2487   1.753   1.689   7.300  1.6238 -0.7232  2.2112
   34CHL1   H1B 2488   1.681   1.849   7.362 -0.1481 -0.5436  0.8004
   34CHL1    C2 2489   1.809   1.868   7.189  0.1581  0.4340  0.6468
   34CHL1   H2A 2490   1.713   1.887   7.137 -0.4653  1.6349  2.1445
   34CHL1   H2B 2491   1.874   1.805   7.124  0.2244  1.2789 -0.1280
   34CHL1   C20 2492   1.769   1.403   8.020 -0.4131  0.2384  0.9831
   34CHL1   H20 2493   1.870   1.360   8.032 -0.5861 -0.2398  0.7710
   34CHL1   C21 2494   1.683   1.311   7.930 -0.6333  0.7430  0.2250
   34CHL1  H21A 2495   1.732   1.294   7.831 -1.0889 -2.1232  0.4001
   34CHL1  H21B 2496   1.588   1.358   7.897 -0.8016 -0.3381 -0.9180
   34CHL1  H21C 2497   1.676   1.212   7.980  2.1925  0.7392  0.8015
   34CHL1   C22 2498   1.692   1.423   8.153 -0.3345 -0.2124  0.3069
   34CHL1  H22A 2499   1.728   1.508   8.214 -0.8501 -1.4127  2.3906
   34CHL1  H22B 2500   1.587   1.455   8.140 -0.7981 -1.7098  0.1408
   34CHL1   C23 2501   1.714   1.305   8.245 -0.2870  0.2870 -0.7559
   34CHL1  H23A 2502   1.646   1.219   8.228  0.3799 -0.4109  0.0077
   34CHL1  H23B 2503   1.817   1.265   8.235 -0.1352  0.8366 -1.4434
   34CHL1   C24 2504   1.698   1.338   8.399  0.3911 -0.3739  0.1196
   34CHL1  H24A 2505   1.777   1.415   8.412 -0.1840  0.6840 -2.1502
   34CHL1  H24B 2506   1.603   1.390   8.422  1.3441  2.1237 -1.1662
   34CHL1   C25 2507   1.735   1.221   8.492  0.9531 -0.4268  0.4151
   34CHL1   H25 2508   1.845   1.201   8.489  0.7153 -1.6739 -1.1973
   34CHL1   C26 2509   1.710   1.267   8.637 -0.0764 -0.1603  0.3344
   34CHL1  H26A 2510   1.764   1.360   8.662 -1.1069  0.2474  1.1118
   34CHL1  H26B 2511   1.602   1.281   8.659 -0.3543 -0.2391 -0.9310
   34CHL1  H26C 2512   1.729   1.186   8.712 -1.8207  0.4845  1.5482
   34CHL1   C27 2513   1.668   1.089   8.456  0.3271 -0.6864  0.5606
   34CHL1  H27A 2514   1.704   1.008   8.523  1.5462 -0.6776 -0.0524
   34CHL1  H27B 2515   1.560   1.081   8.477  0.1616  0.4702  0.1914
   34CHL1  H27C 2516   1.680   1.053   8.351 -0.5607  0.8170 -0.0771
   35CHL1    C3 2517   0.826   3.384   7.418  0.4803 -0.1103  0.1621
   35CHL1    H3 2518   0.881   3.481   7.416 -0.4957  0.5078  1.3255
   35CHL1    O3 2519   0.821   3.338   7.282 -0.4071  0.0268  0.4021
   35CHL1   H3' 2520   0.908   3.332   7.243 -1.2435 -1.6679 -1.3821
   35CHL1    C4 2521   0.906   3.285   7.510  0.1596  0.3221 -0.5604
   35CHL1   H4A 2522   0.874   3.182   7.486 -0.7839  0.8787 -1.8056
   35CHL1   H4B 2523   1.010   3.294   7.474  1.4738 -0.9161  2.5871
   35CHL1    C5 2524   0.900   3.305   7.653  0.0529  0.7861 -0.7733
   35CHL1    C6 2525   1.004   3.299   7.742  0.1270  0.5377  0.5461
   35CHL1    H6 2526   1.100   3.279   7.691 -0.9634  0.5766 -1.6298
   35CHL1    C7 2527   1.003   3.319   7.895 -0.4206 -0.1671  0.2462
   35CHL1   H7A 2528   1.056   3.236   7.946  1.9804  1.2414  0.2355
   35CHL1   H7B 2529   1.044   3.419   7.922 -0.3251  0.0024 -0.5024
   35CHL1    C8 2530   0.850   3.321   7.938  0.3914  0.3837 -0.6236
   35CHL1    H8 2531   0.814   3.216   7.948  1.3184 -0.0318 -1.4651
   35CHL1   C14 2532   0.846   3.391   8.083 -0.3659  0.7148 -0.3307
   35CHL1   H14 2533   0.895   3.490   8.073 -2.0051  1.5434 -0.5973
   35CHL1   C15 2534   0.925   3.309   8.190  0.3257 -0.5162 -0.0157
   35CHL1  H15A 2535   0.884   3.207   8.177 -0.4968 -0.2534  0.3864
   35CHL1  H15B 2536   1.036   3.305   8.186  0.2527 -1.5272 -1.6475
   35CHL1   C16 2537   0.881   3.375   8.322 -0.0217  0.1666 -0.2095
   35CHL1  H16A 2538   0.866   3.302   8.405  1.1174 -2.3498 -2.0686
   35CHL1  H16B 2539   0.962   3.444   8.352  0.2611 -0.3373  0.1968
   35CHL1   C17 2540   0.756   3.471   8.278  0.1330  0.2691  0.0855
   35CHL1   H17 2541   0.798   3.571   8.259  1.6082  0.0467  1.8649
   35CHL1   C13 2542   0.709   3.417   8.143 -0.3365 -0.6443  0.5226
   35CHL1   C18 2543   0.636   3.278   8.153  0.2430 -0.5003  0.2055
   35CHL1  H18A 2544   0.602   3.242   8.054  0.2238 -2.7147  0.9543
   35CHL1  H18B 2545   0.677   3.195   8.214 -0.2962 -1.8319 -1.1785
   35CHL1  H18C 2546   0.534   3.296   8.194 -0.0375  1.4200 -1.1901
   35CHL1   C12 2547   0.633   3.515   8.045 -0.5362 -0.3231 -0.6240
   35CHL1  H12A 2548   0.526   3.530   8.071 -1.0641  0.2285 -2.8521
   35CHL1  H12B 2549   0.674   3.618   8.046 -1.6168  0.1371 -1.2298
   35CHL1   C11 2550   0.627   3.462   7.895 -0.1431 -1.1367 -0.2957
   35CHL1  H11A 2551   0.564   3.370   7.884  1.4175 -2.2266 -0.4055
   35CHL1  H11B 2552   0.578   3.537   7.830  0.4171 -0.7442 -0.2671
   35CHL1    C9 2553   0.768   3.409   7.844  0.0548 -0.1149  0.0021
   35CHL1    H9 2554   0.829   3.500   7.826  2.3904 -1.7746 -0.8910
   35CHL1   C10 2555   0.754   3.341   7.704 -0.0732  0.0548 -0.8571
   35CHL1   C19 2556   0.680   3.199   7.721 -0.1007  0.5731  0.7241
   35CHL1  H19A 2557   0.668   3.144   7.625  0.6085  2.1770 -0.3260
   35CHL1  H19B 2558   0.731   3.136   7.796  0.3203  0.3368  0.2508
   35CHL1  H19C 2559   0.573   3.205   7.750 -0.3689  0.4288 -0.1939
   35CHL1    C1 2560   0.673   3.439   7.610 -0.1220  0.5218  0.4391
   35CHL1   H1A 2561   0.567   3.443   7.642  0.0663 -0.8149  1.2926
   35CHL1   H1B 2562   0.714   3.542   7.619  0.5775  0.1819  1.2600
   35CHL1    C2 2563   0.679   3.408   7.463 -0.8161  0.2427 -0.0439
   35CHL1   H2A 2564   0.633   3.492   7.408 -1.6687 -0.7534 -0.9055
   35CHL1   H2B 2565   0.615   3.323   7.430 -1.5951  1.7125 -2.6443
   35CHL1   C20 2566   0.645   3.485   8.390 -0.5724  0.1384 -0.3563
   35CHL1   H20 2567   0.586   3.392   8.405  0.8809 -0.5848  1.2389
   35CHL1   C21 2568   0.535   3.591   8.360  0.2048  0.2871 -0.0791
   35CHL1  H21A 2569   0.486   3.615   8.457  0.5716 -2.3729  0.8462
   35CHL1  H21B 2570   0.459   3.563   8.284 -0.2065 -0.6416  0.6572
   35CHL1  H21C 2571   0.586   3.682   8.322  0.7489 -0.4182 -1.0853
   35CHL1   C22 2572   0.708   3.512   8.529 -0.4919  0.1869 -0.5265
   35CHL1  H22A 2573   0.624   3.523   8.602  0.0266  1.0388 -0.0446
   35CHL1  H22B 2574   0.767   3.422   8.556  1.0787  1.4105  0.2321
   35CHL1   C23 2575   0.807   3.630   8.550  0.2200 -0.3756 -0.1519
   35CHL1  H23A 2576   0.874   3.641   8.462  0.1152  1.5496 -0.0290
   35CHL1  H23B 2577   0.747   3.723   8.552 -0.6683 -0.9519  1.0706
   35CHL1   C24 2578   0.905   3.621   8.660 -0.4482  0.0457  0.1997
   35CHL1  H24A 2579   0.956   3.522   8.654 -0.0947 -0.0241  3.0423
   35CHL1  H24B 2580   0.979   3.703   8.656 -0.6529  0.2648  0.8226
   35CHL1   C25 2581   0.834   3.637   8.799 -0.4459  0.2928 -0.0554
   35CHL1   H25 2582   0.744   3.572   8.795  0.9036 -1.6984  0.3647
   35CHL1   C26 2583   0.924   3.598   8.925 -0.0550  0.0453  0.7090
   35CHL1  H26A 2584   0.866   3.592   9.020  1.6222 -1.0338  1.7084
   35CHL1  H26B 2585   0.958   3.494   8.910  1.1006  0.3666  1.0186
   35CHL1  H26C 2586   1.011   3.667   8.927 -1.4210  1.8968 -0.3724
   35CHL1   C27 2587   0.787   3.781   8.818  0.9525  0.2769  0.0996
   35CHL1  H27A 2588   0.870   3.854   8.815  0.4521  0.9570  1.7338
   35CHL1  H27B 2589   0.740   3.796   8.918 -1.4093 -1.4765 -0.6297
   35CHL1  H27C 2590   0.708   3.808   8.745  0.3550  0.9772  0.9842
   36CHL1    C3 2591   6.560   3.072   6.999 -0.2042  0.4284 -0.8172
   36CHL1    H3 2592   6.650   3.137   7.006 -0.5976  0.8384  0.7935
   36CHL1    O3 2593   6.499   3.074   6.872  0.3481 -0.6549  0.4106
   36CHL1   H3' 2594   6.438   3.148   6.874  0.2292 -0.7453  0.0725
   36CHL1    C4 2595   6.600   2.924   7.035 -0.5757  0.5065  0.1079
   36CHL1   H4A 2596   6.519   2.854   7.004 -1.6348  1.2340  1.1515
   36CHL1   H4B 2597   6.678   2.899   6.960  0.2674  3.5828 -0.1711
   36CHL1    C5 2598   6.634   2.898   7.179 -0.0162 -0.2861 -0.0650
   36CHL1    C6 2599   6.739   2.822   7.208 -0.1223 -0.0433  0.3322
   36CHL1    H6 2600   6.803   2.792   7.123 -4.2133 -0.5989 -2.8702
   36CHL1    C7 2601   6.782   2.770   7.342  0.3802  0.0977  0.3006
   36CHL1   H7A 2602   6.777   2.659   7.348 -3.0752  0.0882 -0.7563
   36CHL1   H7B 2603   6.882   2.816   7.364  0.1847  0.0671  1.3012
   36CHL1    C8 2604   6.674   2.820   7.449 -0.0718 -0.5024  0.0714
   36CHL1    H8 2605   6.594   2.743   7.439  0.5660 -1.2620  0.6046
   36CHL1   C14 2606   6.731   2.816   7.592 -0.7291 -0.7080  0.1591
   36CHL1   H14 2607   6.817   2.886   7.595 -0.7413 -0.4120 -3.0411
   36CHL1   C15 2608   6.804   2.683   7.630  0.6405 -0.2831 -0.2191
   36CHL1  H15A 2609   6.741   2.601   7.590  1.8024 -0.9735 -0.7019
   36CHL1  H15B 2610   6.903   2.675   7.580  0.3444  0.1917 -0.8852
   36CHL1   C16 2611   6.802   2.688   7.782 -0.0430  0.2311  0.2362
   36CHL1  H16A 2612   6.728   2.608   7.805 -0.7862  0.1630 -2.1771
   36CHL1  H16B 2613   6.903   2.674   7.827 -0.5263 -1.2447  0.9425
   36CHL1   C17 2614   6.728   2.813   7.828  0.2496 -0.2930 -0.0534
   36CHL1   H17 2615   6.797   2.900   7.833 -1.4833  1.0664  1.6248
   36CHL1   C13 2616   6.637   2.852   7.704  0.5732 -0.6750 -0.5911
   36CHL1   C18 2617   6.516   2.755   7.702  0.1155  0.5758 -0.1372
   36CHL1  H18A 2618   6.462   2.756   7.799 -0.2769  1.7457 -0.3507
   36CHL1  H18B 2619   6.449   2.786   7.618  1.1374 -0.5415 -1.4083
   36CHL1  H18C 2620   6.544   2.648   7.688 -1.9736  0.0149 -0.3480
   36CHL1   C12 2621   6.600   2.999   7.678  0.4388  0.2557  0.2483
   36CHL1  H12A 2622   6.530   3.035   7.756 -0.6274  1.4824 -1.1942
   36CHL1  H12B 2623   6.691   3.063   7.675  0.4791  0.1952  0.1506
   36CHL1   C11 2624   6.535   3.016   7.541 -0.1506  0.8393  1.2722
   36CHL1  H11A 2625   6.433   2.972   7.543  0.4286 -0.6392  0.2701
   36CHL1  H11B 2626   6.529   3.125   7.523 -0.5952  0.3860 -1.8853
   36CHL1    C9 2627   6.616   2.956   7.420  0.0576 -0.0105 -1.5512
   36CHL1    H9 2628   6.698   3.031   7.409  0.4555 -0.1723  0.1245
   36CHL1   C10 2629   6.541   2.958   7.285 -0.5984  0.2107  0.4400
   36CHL1   C19 2630   6.415   2.869   7.295  0.3656  0.4328 -0.2870
   36CHL1  H19A 2631   6.351   2.883   7.384 -0.0787 -0.0195 -0.5318
   36CHL1  H19B 2632   6.355   2.887   7.204  1.9644  4.4473 -0.7564
   36CHL1  H19C 2633   6.444   2.762   7.299 -0.7709  0.1484  0.8976
   36CHL1    C1 2634   6.499   3.104   7.240 -0.5344  0.0897 -0.3988
   36CHL1   H1A 2635   6.421   3.131   7.315  1.5764 -0.6322  2.2145
   36CHL1   H1B 2636   6.577   3.180   7.259  0.3996 -0.8696 -0.2854
   36CHL1    C2 2637   6.452   3.123   7.096 -0.6049 -0.2479  0.7725
   36CHL1   H2A 2638   6.417   3.227   7.082 -0.6237 -0.1010  1.8287
   36CHL1   H2B 2639   6.358   3.065   7.086 -0.6572  0.0106 -0.3971
   36CHL1   C20 2640   6.658   2.807   7.966 -0.1874 -0.1926  0.0419
   36CHL1   H20 2641   6.583   2.725   7.957 -0.0198 -0.2515 -0.8987
   36CHL1   C21 2642   6.591   2.939   8.003 -0.2215  0.0961  0.1593
   36CHL1  H21A 2643   6.502   2.978   7.951  0.4447  0.5539 -0.6564
   36CHL1  H21B 2644   6.661   3.024   7.984 -0.3718 -0.1382 -1.5765
   36CHL1  H21C 2645   6.572   2.932   8.112  0.6212 -3.9407  0.2216
   36CHL1   C22 2646   6.760   2.765   8.080 -0.1236  0.3598 -0.8188
   36CHL1  H22A 2647   6.820   2.678   8.044  2.2107  1.7973 -0.6254
   36CHL1  H22B 2648   6.818   2.857   8.101 -0.3028  0.3481 -0.2451
   36CHL1   C23 2649   6.702   2.715   8.205 -0.6123  0.0728 -1.0121
   36CHL1  H23A 2650   6.654   2.797   8.263  0.9735  0.1272  0.2896
   36CHL1  H23B 2651   6.629   2.633   8.187 -0.7963  0.2058 -0.8763
   36CHL1   C24 2652   6.808   2.663   8.306  0.6307 -0.2846 -0.0991
   36CHL1  H24A 2653   6.856   2.574   8.260  0.3477 -0.2587 -0.4466
   36CHL1  H24B 2654   6.888   2.740   8.312  1.4938 -1.1372 -0.4050
   36CHL1   C25 2655   6.744   2.621   8.439  0.4205 -1.0821 -0.5819
   36CHL1   H25 2656   6.667   2.700   8.455  0.7214 -0.3735 -2.3761
   36CHL1   C26 2657   6.673   2.490   8.435 -0.1182  0.1647  0.8876
   36CHL1  H26A 2658   6.626   2.493   8.535 -0.0092  0.7152  0.9276
   36CHL1  H26B 2659   6.592   2.483   8.359  1.4312  0.5770 -0.8842
   36CHL1  H26C 2660   6.737   2.400   8.431 -0.1313  0.1927 -0.2431
   36CHL1   C27 2661   6.846   2.633   8.553  0.1734  0.1041 -1.1507
   36CHL1  H27A 2662   6.812   2.577   8.643 -3.3977  2.5115 -0.7589
   36CHL1  H27B 2663   6.950   2.619   8.518  1.4393  1.8299  1.5498
   36CHL1  H27C 2664   6.844   2.739   8.588 -0.3948 -0.5009  0.7700
   37CHL1    C3 2665   4.253   5.177   6.980  1.0734  0.4449  0.1973
   37CHL1    H3 2666   4.281   5.076   7.019  0.4214 -0.0673 -0.6158
   37CHL1    O3 2667   4.249   5.177   6.840  0.5329  0.1633 -0.0994
   37CHL1   H3' 2668   4.185   5.244   6.814  0.5620  1.0094  1.8858
   37CHL1    C4 2669   4.120   5.223   7.036 -0.0248 -0.4458  0.2430
   37CHL1   H4A 2670   4.083   5.307   6.975  1.6921 -0.6701 -1.1871
   37CHL1   H4B 2671   4.047   5.140   7.028 -1.8070  1.2047 -1.6102
   37CHL1    C5 2672   4.128   5.249   7.183 -0.0905 -0.9314  0.0451
   37CHL1    C6 2673   4.052   5.188   7.275 -0.6951 -0.7246 -0.6650
   37CHL1    H6 2674   3.982   5.105   7.259  0.2816 -2.4959  3.0902
   37CHL1    C7 2675   4.063   5.232   7.419  0.0935  0.6383 -0.0152
   37CHL1   H7A 2676   3.963   5.226   7.468 -1.2296  2.8054 -2.2400
   37CHL1   H7B 2677   4.132   5.157   7.463 -0.3680 -0.6125 -1.3194
   37CHL1    C8 2678   4.119   5.365   7.443  0.1805  0.1555  0.3811
   37CHL1    H8 2679   4.042   5.431   7.398 -1.5402 -2.3409 -0.5529
   37CHL1   C14 2680   4.136   5.396   7.590  0.3325 -0.4253 -0.1348
   37CHL1   H14 2681   4.213   5.324   7.628  0.4788  0.0884  0.5644
   37CHL1   C15 2682   4.009   5.381   7.683  0.0824 -0.3980 -0.7158
   37CHL1  H15A 2683   3.925   5.426   7.625 -0.2147 -0.4343 -0.3204
   37CHL1  H15B 2684   3.977   5.276   7.700 -1.5240 -0.1530 -1.9544
   37CHL1   C16 2685   4.045   5.470   7.807 -0.2675 -0.2101 -0.1687
   37CHL1  H16A 2686   3.977   5.557   7.815  0.8263  0.9103 -2.1200
   37CHL1  H16B 2687   4.049   5.419   7.905 -1.6334  1.3176  0.7345
   37CHL1   C17 2688   4.193   5.512   7.787  0.6161  0.6398  0.0547
   37CHL1   H17 2689   4.260   5.433   7.828 -0.9549 -0.3362  0.8460
   37CHL1   C13 2690   4.205   5.517   7.626  0.7600 -0.7681 -0.0215
   37CHL1   C18 2691   4.129   5.642   7.570 -0.0104 -0.9039 -0.9027
   37CHL1  H18A 2692   4.110   5.646   7.460 -0.1461  0.5608 -0.8533
   37CHL1  H18B 2693   4.025   5.647   7.607  0.4955  0.4763  0.4107
   37CHL1  H18C 2694   4.191   5.733   7.588  4.0139 -3.2784 -1.5283
   37CHL1   C12 2695   4.344   5.507   7.561  0.1124 -0.6182  0.0041
   37CHL1  H12A 2696   4.410   5.595   7.581 -0.5057  0.0206 -0.7022
   37CHL1  H12B 2697   4.396   5.420   7.606 -2.2215 -3.0209 -1.6673
   37CHL1   C11 2698   4.336   5.485   7.418  0.1391 -0.6955  0.3849
   37CHL1  H11A 2699   4.294   5.576   7.370  0.3048 -0.4665  0.6720
   37CHL1  H11B 2700   4.441   5.471   7.382  0.2859 -0.0932  0.5749
   37CHL1    C9 2701   4.250   5.368   7.374  0.1620 -0.2777  0.7415
   37CHL1    H9 2702   4.306   5.278   7.409 -1.7613 -1.2930  1.3115
   37CHL1   C10 2703   4.232   5.355   7.218 -0.2217 -0.2955  0.4619
   37CHL1   C19 2704   4.180   5.495   7.168  0.6509 -0.3943 -0.0351
   37CHL1  H19A 2705   4.250   5.577   7.191  0.0281  0.2417 -0.3746
   37CHL1  H19B 2706   4.169   5.497   7.057 -0.4150 -0.8073  0.0474
   37CHL1  H19C 2707   4.079   5.506   7.214 -0.8152 -3.9366 -1.9739
   37CHL1    C1 2708   4.370   5.313   7.157  0.3865  0.0082  0.2596
   37CHL1   H1A 2709   4.441   5.397   7.168 -0.2374  0.7636 -1.2399
   37CHL1   H1B 2710   4.407   5.226   7.215 -0.9316 -0.2872  0.7031
   37CHL1    C2 2711   4.367   5.268   7.011 -0.3011  0.6349  0.5133
   37CHL1   H2A 2712   4.462   5.223   6.975  0.3588  2.2107  0.1866
   37CHL1   H2B 2713   4.359   5.353   6.941 -1.0385 -0.3549 -0.6430
   37CHL1   C20 2714   4.218   5.637   7.871 -0.4998  0.3456  0.4216
   37CHL1   H20 2715   4.141   5.713   7.845 -1.2060 -1.0205 -1.8122
   37CHL1   C21 2716   4.359   5.700   7.843  0.6233 -0.2275  0.6210
   37CHL1  H21A 2717   4.377   5.730   7.737 -0.7720  1.7484  0.8888
   37CHL1  H21B 2718   4.433   5.619   7.858 -0.6843 -1.3005  1.5521
   37CHL1  H21C 2719   4.374   5.796   7.897  1.2941  0.2245 -0.3320
   37CHL1   C22 2720   4.206   5.614   8.024 -0.2037 -0.2313  0.7419
   37CHL1  H22A 2721   4.099   5.594   8.046 -0.1487 -1.1106  0.2541
   37CHL1  H22B 2722   4.268   5.522   8.036 -0.1886 -0.4180 -0.6152
   37CHL1   C23 2723   4.265   5.722   8.114  0.0201 -0.9658  0.3086
   37CHL1  H23A 2724   4.374   5.722   8.095  0.0869  3.2255 -0.3487
   37CHL1  H23B 2725   4.223   5.821   8.087 -1.9913 -0.8569  3.3308
   37CHL1   C24 2726   4.247   5.717   8.259  0.1227 -0.4401 -0.3977
   37CHL1  H24A 2727   4.146   5.749   8.293  0.1303 -0.4700 -0.3458
   37CHL1  H24B 2728   4.265   5.616   8.302  0.6006 -0.7299 -1.2529
   37CHL1   C25 2729   4.351   5.809   8.340  0.0514  0.5668 -0.2526
   37CHL1   H25 2730   4.455   5.773   8.320  0.5386  1.9206 -0.2097
   37CHL1   C26 2731   4.345   5.956   8.293  0.1249  0.5988  0.5582
   37CHL1  H26A 2732   4.235   5.974   8.299  0.1713  1.1130  0.0105
   37CHL1  H26B 2733   4.426   6.019   8.335  1.6694 -0.0043 -1.3388
   37CHL1  H26C 2734   4.377   5.956   8.186  1.5047 -1.6618  0.8983
   37CHL1   C27 2735   4.324   5.801   8.493  0.2213  0.0352  0.3915
   37CHL1  H27A 2736   4.331   5.696   8.528  5.0750  0.0573  0.1872
   37CHL1  H27B 2737   4.402   5.847   8.558  1.3139 -0.2358 -0.6739
   37CHL1  H27C 2738   4.225   5.848   8.509  0.6665  0.9868  0.3836
   38CHL1    C3 2739   1.690   5.636   6.613  0.1864 -0.4860 -0.3197
   38CHL1    H3 2740   1.708   5.526   6.611 -0.4619 -0.6055  0.1120
   38CHL1    O3 2741   1.678   5.691   6.481  0.3806 -0.3775  0.1733
   38CHL1   H3' 2742   1.716   5.779   6.475  1.6720 -0.9677 -0.7231
   38CHL1    C4 2743   1.558   5.681   6.690  0.1975  0.4773 -0.3400
   38CHL1   H4A 2744   1.552   5.792   6.684  0.2177  0.6595  1.9965
   38CHL1   H4B 2745   1.480   5.625   6.635  0.3804  1.3889 -1.5787
   38CHL1    C5 2746   1.550   5.669   6.838 -0.0614 -0.0856  0.0088
   38CHL1    C6 2747   1.444   5.614   6.892  0.0591 -0.2413 -0.0600
   38CHL1    H6 2748   1.357   5.581   6.832 -0.1383 -0.6875  0.4619
   38CHL1    C7 2749   1.426   5.592   7.043  0.2557 -0.3425  1.0435
   38CHL1   H7A 2750   1.333   5.644   7.073 -1.0450 -0.6212 -2.1238
   38CHL1   H7B 2751   1.411   5.482   7.053  2.8118 -1.4658 -3.9356
   38CHL1    C8 2752   1.548   5.649   7.120 -0.2409  0.2516 -0.8592
   38CHL1    H8 2753   1.529   5.758   7.131  1.4817  0.3284  2.5614
   38CHL1   C14 2754   1.542   5.582   7.261  0.3085  0.2735  0.9273
   38CHL1   H14 2755   1.539   5.473   7.237 -0.7693  0.4369  0.2699
   38CHL1   C15 2756   1.421   5.605   7.346 -0.2017 -0.1381 -0.2392
   38CHL1  H15A 2757   1.391   5.711   7.354 -2.4717 -0.7157 -0.3198
   38CHL1  H15B 2758   1.336   5.535   7.329 -0.7228  0.6227 -0.8555
   38CHL1   C16 2759   1.474   5.559   7.485  0.0521 -1.1174  0.0869
   38CHL1  H16A 2760   1.451   5.638   7.560 -0.3390 -0.7212 -0.4456
   38CHL1  H16B 2761   1.419   5.472   7.528  1.9816 -1.1325  2.7375
   38CHL1   C17 2762   1.625   5.544   7.473  0.4247  0.1779  0.0105
   38CHL1   H17 2763   1.630   5.437   7.442  1.8762  0.7122 -1.8064
   38CHL1   C13 2764   1.665   5.615   7.348 -0.9499 -0.4225  0.1105
   38CHL1   C18 2765   1.674   5.775   7.372  0.0726 -0.1653  0.4042
   38CHL1  H18A 2766   1.598   5.801   7.448 -0.4027  1.1022 -0.4748
   38CHL1  H18B 2767   1.777   5.807   7.401  0.9645 -1.9741 -0.5830
   38CHL1  H18C 2768   1.650   5.823   7.275 -1.4848  0.6056  1.1534
   38CHL1   C12 2769   1.794   5.573   7.276 -0.8181 -1.1976  0.2473
   38CHL1  H12A 2770   1.885   5.595   7.336 -0.3464  1.6250 -1.2925
   38CHL1  H12B 2771   1.785   5.466   7.247  0.7196 -1.3640  0.2664
   38CHL1   C11 2772   1.801   5.643   7.138  0.0349  0.3669  0.7130
   38CHL1  H11A 2773   1.833   5.749   7.147  1.1565  0.2419 -1.1634
   38CHL1  H11B 2774   1.885   5.597   7.082 -0.3280 -0.2386  0.6647
   38CHL1    C9 2775   1.679   5.634   7.050 -0.9636 -0.2632 -0.9961
   38CHL1    H9 2776   1.682   5.528   7.018 -0.4292 -0.4774 -0.2692
   38CHL1   C10 2777   1.683   5.706   6.915 -0.2184 -0.1081  0.1677
   38CHL1   C19 2778   1.693   5.855   6.942  0.1876  0.2969 -0.0154
   38CHL1  H19A 2779   1.610   5.892   7.005 -0.5818  0.8673 -1.3220
   38CHL1  H19B 2780   1.796   5.874   6.978  0.4032 -0.0880 -0.4142
   38CHL1  H19C 2781   1.684   5.915   6.849 -0.1650 -2.1353 -1.6523
   38CHL1    C1 2782   1.806   5.662   6.826  0.7415  0.5820 -0.2423
   38CHL1   H1A 2783   1.899   5.701   6.872  0.0752  1.5729  0.2931
   38CHL1   H1B 2784   1.797   5.551   6.825  0.3712  0.5952  0.7348
   38CHL1    C2 2785   1.809   5.703   6.679  0.1397  0.7408 -0.7320
   38CHL1   H2A 2786   1.903   5.663   6.634 -0.8823 -2.1712 -0.4959
   38CHL1   H2B 2787   1.791   5.812   6.673 -3.8138  0.2298 -0.7960
   38CHL1   C20 2788   1.704   5.569   7.598  0.2657 -0.9229 -0.3470
   38CHL1   H20 2789   1.700   5.677   7.624 -0.0986 -1.1204  0.4684
   38CHL1   C21 2790   1.855   5.538   7.590  0.1899  0.5781 -0.9708
   38CHL1  H21A 2791   1.914   5.615   7.535 -0.1780  2.1454  0.7083
   38CHL1  H21B 2792   1.869   5.437   7.545 -0.2520  0.1059 -0.0749
   38CHL1  H21C 2793   1.902   5.530   7.690  1.0607 -0.8790 -1.4747
   38CHL1   C22 2794   1.646   5.495   7.724 -0.3967 -0.5915 -0.2075
   38CHL1  H22A 2795   1.540   5.467   7.707 -0.2552 -1.8792  0.8730
   38CHL1  H22B 2796   1.698   5.398   7.740  1.7720  0.3365 -1.3375
   38CHL1   C23 2797   1.662   5.576   7.860  0.0507  0.4938 -0.1295
   38CHL1  H23A 2798   1.770   5.602   7.867 -0.3655  2.5794 -0.8948
   38CHL1  H23B 2799   1.613   5.672   7.836 -0.4431 -0.2176 -2.1485
   38CHL1   C24 2800   1.604   5.508   7.991  0.3798  0.2439 -0.2614
   38CHL1  H24A 2801   1.495   5.526   8.004  0.4168  0.9784 -0.9264
   38CHL1  H24B 2802   1.622   5.398   7.983  3.7134  0.6042  0.5357
   38CHL1   C25 2803   1.668   5.547   8.123 -0.6512 -0.4632  0.4306
   38CHL1   H25 2804   1.777   5.528   8.111  0.0910  2.9435  0.8342
   38CHL1   C26 2805   1.669   5.703   8.145 -0.9666 -0.1442  0.9483
   38CHL1  H26A 2806   1.700   5.750   8.049  1.8009 -0.0472  1.7857
   38CHL1  H26B 2807   1.564   5.736   8.154 -0.9186  0.2508  0.0508
   38CHL1  H26C 2808   1.738   5.728   8.229 -0.1789 -3.0121  1.2844
   38CHL1   C27 2809   1.622   5.467   8.245 -0.1228  0.2410  0.1018
   38CHL1  H27A 2810   1.644   5.360   8.226  2.2182  0.7365 -0.3419
   38CHL1  H27B 2811   1.651   5.496   8.348 -2.0616  0.8193  0.5236
   38CHL1  H27C 2812   1.512   5.479   8.253 -0.0834  0.8024 -0.1531
   39CHL1    C3 2813   1.601   4.701   7.041  0.5692 -0.1515  0.4237
   39CHL1    H3 2814   1.659   4.795   7.058  1.0520 -0.3344 -0.1348
   39CHL1    O3 2815   1.542   4.698   6.911  0.3551  0.1069  0.2628
   39CHL1   H3' 2816   1.501   4.611   6.904 -2.8334  1.5945 -1.5974
   39CHL1    C4 2817   1.685   4.576   7.053 -0.0739 -0.2374 -0.0155
   39CHL1   H4A 2818   1.624   4.486   7.034  1.2506 -0.5657 -3.6216
   39CHL1   H4B 2819   1.761   4.556   6.974  0.2627 -2.2598  0.7527
   39CHL1    C5 2820   1.746   4.566   7.198  0.0386 -0.4039 -0.4495
   39CHL1    C6 2821   1.882   4.556   7.223 -0.3564  0.2157  1.1323
   39CHL1    H6 2822   1.956   4.554   7.141 -0.5230  2.9463  0.8000
   39CHL1    C7 2823   1.947   4.539   7.355  0.3090 -0.5252  0.2487
   39CHL1   H7A 2824   2.024   4.459   7.347  1.5986  0.4906  1.8371
   39CHL1   H7B 2825   1.981   4.639   7.389 -0.8006  0.2298 -0.8068
   39CHL1    C8 2826   1.846   4.504   7.461 -0.1304  0.1693  0.2138
   39CHL1    H8 2827   1.830   4.395   7.449 -0.1493 -0.1172  2.4434
   39CHL1   C14 2828   1.909   4.545   7.594  0.0768 -0.6626 -0.2782
   39CHL1   H14 2829   1.920   4.656   7.597  3.2687 -0.9120  1.8435
   39CHL1   C15 2830   2.051   4.502   7.618 -0.6167  0.1707  0.8565
   39CHL1  H15A 2831   2.060   4.392   7.602  1.6145 -0.0237  2.8903
   39CHL1  H15B 2832   2.127   4.552   7.554  0.5367 -2.0967  0.3441
   39CHL1   C16 2833   2.070   4.532   7.767 -0.5907  0.3294 -0.2071
   39CHL1  H16A 2834   2.118   4.445   7.815 -0.2508  0.0012 -1.1115
   39CHL1  H16B 2835   2.133   4.621   7.787 -0.0676  0.0178 -0.4521
   39CHL1   C17 2836   1.932   4.559   7.830  0.4921 -0.2468  0.4534
   39CHL1   H17 2837   1.920   4.669   7.845  0.5025 -0.5835  3.5833
   39CHL1   C13 2838   1.832   4.507   7.715 -0.1454  0.3773  0.0537
   39CHL1   C18 2839   1.817   4.355   7.729  0.4437  0.6881  0.6141
   39CHL1  H18A 2840   1.823   4.298   7.634  0.6990  1.8259 -0.0757
   39CHL1  H18B 2841   1.909   4.310   7.772  0.9974 -0.3835 -1.5313
   39CHL1  H18C 2842   1.727   4.317   7.781  1.3913 -2.8099 -0.0029
   39CHL1   C12 2843   1.690   4.576   7.698 -0.2163  0.6587  0.6304
   39CHL1  H12A 2844   1.622   4.532   7.774 -0.4507  0.0368  0.0751
   39CHL1  H12B 2845   1.703   4.685   7.714  0.7663  1.5031 -4.2928
   39CHL1   C11 2846   1.620   4.544   7.570 -0.1998  0.1683  0.6282
   39CHL1  H11A 2847   1.599   4.435   7.564 -0.1620  0.0861  1.7580
   39CHL1  H11B 2848   1.522   4.596   7.564 -0.6567 -0.8452 -3.5507
   39CHL1    C9 2849   1.711   4.583   7.451 -0.4094  0.0770  0.7454
   39CHL1    H9 2850   1.741   4.688   7.466 -0.8813  0.5519 -1.3047
   39CHL1   C10 2851   1.648   4.571   7.311 -0.0519 -1.1575 -0.3854
   39CHL1   C19 2852   1.564   4.436   7.309 -0.3334  0.3711 -0.1077
   39CHL1  H19A 2853   1.474   4.433   7.374  0.1012  1.9531  0.6064
   39CHL1  H19B 2854   1.529   4.408   7.207  0.1447 -1.5673  0.2081
   39CHL1  H19C 2855   1.638   4.357   7.331  1.0940  2.0122  1.2040
   39CHL1    C1 2856   1.546   4.689   7.295 -0.1760 -0.3236 -0.0173
   39CHL1   H1A 2857   1.459   4.661   7.359 -0.4234  1.3734  0.4399
   39CHL1   H1B 2858   1.580   4.785   7.339 -2.3045  0.3395  0.3260
   39CHL1    C2 2859   1.491   4.702   7.151  1.0637  0.0795  0.1135
   39CHL1   H2A 2860   1.429   4.794   7.144  0.1773 -0.4917  0.3453
   39CHL1   H2B 2861   1.410   4.628   7.137 -0.9246  2.1227  0.1383
   39CHL1   C20 2862   1.906   4.501   7.971 -0.3720 -0.6192  0.2016
   39CHL1   H20 2863   1.936   4.394   7.966  0.8020 -0.3923  1.5490
   39CHL1   C21 2864   1.756   4.517   8.012 -0.0083  0.0845  0.8782
   39CHL1  H21A 2865   1.735   4.465   8.108 -0.1186 -0.1618  0.7212
   39CHL1  H21B 2866   1.686   4.458   7.950  1.5496 -2.3219  1.2977
   39CHL1  H21C 2867   1.730   4.625   8.024 -0.6023  0.1143 -0.5169
   39CHL1   C22 2868   1.987   4.583   8.074 -0.6879  0.0516  0.4342
   39CHL1  H22A 2869   2.091   4.587   8.037 -0.4566 -0.6132  0.9941
   39CHL1  H22B 2870   1.944   4.686   8.083 -0.8972  0.0358 -0.3554
   39CHL1   C23 2871   1.993   4.507   8.197  0.1245  0.8458 -0.4726
   39CHL1  H23A 2872   1.890   4.502   8.239  0.8845 -1.3802  1.3652
   39CHL1  H23B 2873   2.025   4.403   8.176  0.6281  0.6766  1.0144
   39CHL1   C24 2874   2.067   4.589   8.300 -0.5373 -0.6495 -0.4253
   39CHL1  H24A 2875   2.151   4.633   8.242 -0.2359 -1.4098 -0.5778
   39CHL1  H24B 2876   2.008   4.674   8.339 -3.2692 -1.1594 -3.0585
   39CHL1   C25 2877   2.111   4.513   8.420 -0.0399 -0.0255 -0.0484
   39CHL1   H25 2878   2.173   4.426   8.390  0.0331 -0.3515  0.9925
   39CHL1   C26 2879   2.185   4.611   8.514  0.2989  0.0712 -0.1169
   39CHL1  H26A 2880   2.206   4.567   8.614  0.7145 -0.5345 -0.4651
   39CHL1  H26B 2881   2.281   4.638   8.466  1.7000 -1.9367  1.3693
   39CHL1  H26C 2882   2.120   4.701   8.516 -0.3189 -0.3017 -1.7065
   39CHL1   C27 2883   1.989   4.459   8.494  0.4763  0.1554 -0.4152
   39CHL1  H27A 2884   1.946   4.386   8.423  4.0157 -1.5191 -1.0747
   39CHL1  H27B 2885   2.009   4.407   8.590  0.8223  2.0567  0.5989
   39CHL1  H27C 2886   1.921   4.543   8.518  0.6564 -0.1907  1.4645
   40CHL1    C3 2887   3.373   2.275   6.733  0.8594 -0.4137  0.7489
   40CHL1    H3 2888   3.290   2.215   6.775  0.2043 -1.2393 -1.5300
   40CHL1    O3 2889   3.351   2.276   6.590 -0.2503  0.3206  0.3389
   40CHL1   H3' 2890   3.407   2.343   6.549  2.2180 -1.4769  0.5642
   40CHL1    C4 2891   3.361   2.417   6.789  0.1698  0.1515 -0.8428
   40CHL1   H4A 2892   3.440   2.477   6.739  2.3649 -0.3105  1.8001
   40CHL1   H4B 2893   3.260   2.457   6.763  0.0109  1.0834  1.0391
   40CHL1    C5 2894   3.387   2.413   6.940 -0.3970  0.0301  0.0879
   40CHL1    C6 2895   3.300   2.460   7.027 -0.9899 -0.5956 -0.2653
   40CHL1    H6 2896   3.213   2.517   6.989  0.0683  0.2124 -1.5953
   40CHL1    C7 2897   3.326   2.473   7.173 -0.3811 -0.3477 -0.5041
   40CHL1   H7A 2898   3.311   2.576   7.214 -0.6317 -1.3662  2.1497
   40CHL1   H7B 2899   3.250   2.416   7.230 -0.3683  1.1144  1.0615
   40CHL1    C8 2900   3.464   2.422   7.216  0.0131  0.0258  0.2840
   40CHL1    H8 2901   3.539   2.504   7.216  0.1918 -0.1188 -0.9840
   40CHL1   C14 2902   3.454   2.378   7.367 -0.0566 -0.7494  0.1940
   40CHL1   H14 2903   3.377   2.298   7.370 -0.3666 -0.4103  1.7536
   40CHL1   C15 2904   3.408   2.477   7.475  0.0128 -0.3192 -0.2889
   40CHL1  H15A 2905   3.469   2.568   7.456 -1.1895  0.4954 -0.3624
   40CHL1  H15B 2906   3.300   2.501   7.483  0.0202  1.1113 -3.2044
   40CHL1   C16 2907   3.462   2.417   7.611 -0.7642  0.3052  0.4056
   40CHL1  H16A 2908   3.510   2.499   7.669  0.9470  1.0058 -1.8532
   40CHL1  H16B 2909   3.389   2.372   7.681  1.5406 -1.9725  1.5087
   40CHL1   C17 2910   3.555   2.299   7.570  0.3150 -0.3132 -1.4159
   40CHL1   H17 2911   3.486   2.215   7.595  0.5917 -0.0673  0.2820
   40CHL1   C13 2912   3.581   2.307   7.416 -0.2999  0.0040 -0.2256
   40CHL1   C18 2913   3.706   2.404   7.401 -0.2599  0.0429  0.3328
   40CHL1  H18A 2914   3.705   2.442   7.297 -0.7984 -0.5783  0.0986
   40CHL1  H18B 2915   3.691   2.492   7.467 -2.0614  0.5673 -0.6875
   40CHL1  H18C 2916   3.799   2.348   7.425  0.0517  0.4685  0.1210
   40CHL1   C12 2917   3.603   2.179   7.344 -0.4716  0.2144  0.0144
   40CHL1  H12A 2918   3.687   2.108   7.362 -2.7539 -2.7123 -0.2205
   40CHL1  H12B 2919   3.523   2.103   7.352 -0.5373  0.1543 -1.0736
   40CHL1   C11 2920   3.630   2.210   7.194  0.2092 -0.0390  0.0857
   40CHL1  H11A 2921   3.729   2.255   7.169 -0.2223 -0.2478 -2.3274
   40CHL1  H11B 2922   3.620   2.108   7.151 -1.1152 -0.3172  0.9995
   40CHL1    C9 2923   3.516   2.299   7.133 -0.5391  0.2323  0.0274
   40CHL1    H9 2924   3.427   2.232   7.138 -0.4867  0.1607  0.0052
   40CHL1   C10 2925   3.523   2.337   6.983  0.4719 -0.1866  0.0366
   40CHL1   C19 2926   3.648   2.429   6.953  0.3666 -0.7010 -0.1391
   40CHL1  H19A 2927   3.741   2.374   6.980  1.7681  0.6498 -2.0375
   40CHL1  H19B 2928   3.657   2.457   6.846  0.6725 -0.0223  0.0609
   40CHL1  H19C 2929   3.633   2.516   7.021  1.2883 -0.8302  0.2512
   40CHL1    C1 2930   3.533   2.209   6.901 -0.3083 -0.6294 -0.3548
   40CHL1   H1A 2931   3.636   2.175   6.928  0.7108  1.9993 -0.6028
   40CHL1   H1B 2932   3.465   2.135   6.948  1.1741 -4.1549 -3.2381
   40CHL1    C2 2933   3.506   2.219   6.751  0.1687  0.1881  1.1608
   40CHL1   H2A 2934   3.523   2.117   6.710  3.0056  0.9526  0.1977
   40CHL1   H2B 2935   3.574   2.290   6.699 -0.7411 -1.1345 -2.0777
   40CHL1   C20 2936   3.674   2.294   7.664  0.0082  0.0220  0.2175
   40CHL1   H20 2937   3.729   2.390   7.668  0.4563 -0.2329  0.2204
   40CHL1   C21 2938   3.769   2.171   7.635 -0.1150  0.3629  0.8799
   40CHL1  H21A 2939   3.841   2.164   7.720 -0.7633 -0.2597  1.3900
   40CHL1  H21B 2940   3.800   2.176   7.529 -1.2509  0.8108  0.5546
   40CHL1  H21C 2941   3.703   2.081   7.636  2.5476 -1.7156  0.0168
   40CHL1   C22 2942   3.630   2.285   7.814  0.1618  0.3660  0.1107
   40CHL1  H22A 2943   3.533   2.334   7.841 -0.5074 -1.7389  1.8598
   40CHL1  H22B 2944   3.598   2.181   7.834  0.5154  0.5618  1.8272
   40CHL1   C23 2945   3.735   2.329   7.911  0.8786 -0.5853 -0.4056
   40CHL1  H23A 2946   3.800   2.240   7.920  1.3727 -0.1535  0.3128
   40CHL1  H23B 2947   3.790   2.412   7.861  1.5874 -0.9046 -0.1615
   40CHL1   C24 2948   3.669   2.355   8.046  0.3498  0.1617 -0.0691
   40CHL1  H24A 2949   3.617   2.454   8.044 -0.0864 -0.0492  0.5008
   40CHL1  H24B 2950   3.602   2.270   8.071 -0.5721  0.8179 -0.2341
   40CHL1   C25 2951   3.770   2.370   8.159 -0.0678 -0.6012 -0.5269
   40CHL1   H25 2952   3.820   2.272   8.171  0.9581 -0.1008 -0.5479
   40CHL1   C26 2953   3.883   2.477   8.141  0.0145  0.3470 -0.0311
   40CHL1  H26A 2954   3.939   2.465   8.047 -1.8006  1.7845 -1.3751
   40CHL1  H26B 2955   3.849   2.582   8.133  1.0046  0.6700 -0.0743
   40CHL1  H26C 2956   3.963   2.466   8.218  2.0630  0.5224 -2.0523
   40CHL1   C27 2957   3.698   2.393   8.292 -0.4109  0.3841 -0.0962
   40CHL1  H27A 2958   3.772   2.393   8.374 -1.0059  0.1955  0.4525
   40CHL1  H27B 2959   3.639   2.487   8.294 -0.1092  0.5952 -0.7362
   40CHL1  H27C 2960   3.619   2.316   8.307 -1.3036  0.8492 -2.0155
   41CHL1    C3 2961   4.715   2.548   6.866  0.4000  0.2303  0.1698
   41CHL1    H3 2962   4.752   2.444   6.860 -0.6650 -0.1925  0.6027
   41CHL1    O3 2963   4.707   2.587   6.730  0.5884  0.2785  0.0097
   41CHL1   H3' 2964   4.675   2.677   6.738 -4.2806 -1.2989  2.3909
   41CHL1    C4 2965   4.569   2.557   6.932  0.5482 -0.0733 -0.2476
   41CHL1   H4A 2966   4.539   2.664   6.940  0.5702 -0.1836  1.8193
   41CHL1   H4B 2967   4.491   2.504   6.874  0.9292 -0.5920 -0.2884
   41CHL1    C5 2968   4.574   2.497   7.067 -0.1608 -0.5729 -0.4166
   41CHL1    C6 2969   4.502   2.389   7.107  0.3556 -0.6618 -0.2780
   41CHL1    H6 2970   4.433   2.340   7.035 -0.2263 -0.4376  0.1196
   41CHL1    C7 2971   4.511   2.343   7.246  0.3413 -0.2654 -0.5564
   41CHL1   H7A 2972   4.413   2.330   7.295  1.5820  0.6300  2.4055
   41CHL1   H7B 2973   4.552   2.239   7.247 -0.3039 -0.6263 -3.7091
   41CHL1    C8 2974   4.586   2.428   7.357 -0.0561 -0.3720  0.3518
   41CHL1    H8 2975   4.528   2.516   7.394  1.2183  0.2995  0.8303
   41CHL1   C14 2976   4.615   2.354   7.490 -0.3357  0.0059  0.2667
   41CHL1   H14 2977   4.681   2.270   7.460  1.6097  1.5639 -0.0366
   41CHL1   C15 2978   4.501   2.293   7.561 -0.1527 -0.8851  0.8749
   41CHL1  H15A 2979   4.412   2.359   7.572  1.0675  1.1219 -0.6244
   41CHL1  H15B 2980   4.468   2.202   7.505 -1.9845 -0.0815  0.5654
   41CHL1   C16 2981   4.551   2.267   7.699 -0.2901  0.1517  0.2064
   41CHL1  H16A 2982   4.484   2.310   7.776 -0.5656  0.2432 -0.0815
   41CHL1  H16B 2983   4.551   2.157   7.713  0.0997  0.0664 -0.4113
   41CHL1   C17 2984   4.693   2.333   7.707  0.6970  0.1048  0.0708
   41CHL1   H17 2985   4.764   2.253   7.680  1.8274  1.2964 -0.6421
   41CHL1   C13 2986   4.687   2.433   7.590  0.3075 -0.0778  0.5210
   41CHL1   C18 2987   4.597   2.549   7.637  0.4839 -0.1544 -0.2224
   41CHL1  H18A 2988   4.503   2.519   7.688 -0.7226 -0.9388 -2.7416
   41CHL1  H18B 2989   4.654   2.610   7.711  1.4153 -0.9829 -0.2440
   41CHL1  H18C 2990   4.564   2.624   7.561 -0.7587 -0.1146  0.3366
   41CHL1   C12 2991   4.816   2.483   7.532 -0.7705 -0.0680 -0.2303
   41CHL1  H12A 2992   4.879   2.546   7.599 -1.3949  0.2739  0.0422
   41CHL1  H12B 2993   4.871   2.388   7.515 -2.1638 -0.6078 -2.0463
   41CHL1   C11 2994   4.803   2.555   7.394  0.1024 -0.4305 -0.6629
   41CHL1  H11A 2995   4.768   2.657   7.419 -1.4872 -1.4045  1.4248
   41CHL1  H11B 2996   4.901   2.562   7.342  0.2572  0.6805 -0.2411
   41CHL1    C9 2997   4.710   2.484   7.290 -0.7970 -0.1243  0.2198
   41CHL1    H9 2998   4.766   2.398   7.248 -2.1874 -0.7744 -0.3676
   41CHL1   C10 2999   4.674   2.571   7.159  0.1127 -0.1917 -0.4465
   41CHL1   C19 3000   4.623   2.713   7.201  0.5477 -0.6843  0.0955
   41CHL1  H19A 3001   4.682   2.758   7.284 -0.9414  0.5568  0.5260
   41CHL1  H19B 3002   4.638   2.790   7.122  0.2452 -0.7944 -0.0720
   41CHL1  H19C 3003   4.520   2.705   7.243  0.0836 -1.7024 -1.1805
   41CHL1    C1 3004   4.809   2.587   7.084  1.7156 -1.2320 -0.6225
   41CHL1   H1A 3005   4.874   2.662   7.135 -0.3111  1.6508 -2.0420
   41CHL1   H1B 3006   4.863   2.489   7.088 -0.3015 -2.4454 -1.4384
   41CHL1    C2 3007   4.799   2.644   6.945  0.0383 -0.2158  0.4057
   41CHL1   H2A 3008   4.895   2.657   6.891 -0.1846  1.8550  0.4292
   41CHL1   H2B 3009   4.746   2.742   6.943 -1.2398 -0.8581 -3.0017
   41CHL1   C20 3010   4.725   2.368   7.853  0.3246 -0.4094  0.2816
   41CHL1   H20 3011   4.640   2.428   7.892 -0.5885 -2.0359  0.8857
   41CHL1   C21 3012   4.847   2.461   7.858 -0.2621 -0.0240 -0.4118
   41CHL1  H21A 3013   4.875   2.492   7.961  1.1360 -0.4338 -0.6494
   41CHL1  H21B 3014   4.832   2.557   7.804 -0.0963  0.5358  0.5132
   41CHL1  H21C 3015   4.929   2.399   7.814 -0.7358 -1.9511  1.2727
   41CHL1   C22 3016   4.749   2.239   7.945 -0.1950  0.7077  0.2307
   41CHL1  H22A 3017   4.660   2.173   7.946 -0.2900  0.8039  2.2444
   41CHL1  H22B 3018   4.839   2.186   7.906  1.1545  1.2203  2.4363
   41CHL1   C23 3019   4.761   2.271   8.092 -0.2798 -0.2666 -0.0038
   41CHL1  H23A 3020   4.864   2.311   8.103  0.5944 -2.1370 -0.9167
   41CHL1  H23B 3021   4.698   2.359   8.115 -0.1170  0.5085 -2.2549
   41CHL1   C24 3022   4.735   2.155   8.189  0.4707  0.2476 -0.2749
   41CHL1  H24A 3023   4.761   2.187   8.292 -1.5237 -2.5600  1.2276
   41CHL1  H24B 3024   4.632   2.112   8.191  1.0343 -1.2155 -1.2988
   41CHL1   C25 3025   4.815   2.027   8.160 -0.0357  0.6117 -0.0546
   41CHL1   H25 3026   4.795   1.993   8.056 -1.1132 -1.5256  0.7884
   41CHL1   C26 3027   4.970   2.053   8.174  0.1440  0.3242  0.0732
   41CHL1  H26A 3028   4.993   2.109   8.081  0.2418  0.7262  0.3378
   41CHL1  H26B 3029   4.994   2.111   8.266  1.8507  2.6447 -1.7141
   41CHL1  H26C 3030   5.025   1.956   8.185 -0.5954  0.1104  2.4302
   41CHL1   C27 3031   4.763   1.920   8.253  0.9731 -0.0004 -0.3994
   41CHL1  H27A 3032   4.662   1.884   8.224  0.2965  0.6486  1.0307
   41CHL1  H27B 3033   4.828   1.831   8.264 -0.7412 -1.2639  0.0218
   41CHL1  H27C 3034   4.745   1.965   8.353 -2.1522 -1.0046 -0.4029
   42CHL1    C3 3035   1.974   2.641   6.821 -0.0481 -0.1905 -0.4467
   42CHL1    H3 3036   2.058   2.568   6.831  0.6302  0.6190 -0.0757
   42CHL1    O3 3037   1.939   2.673   6.685 -0.2690 -0.2778 -0.4242
   42CHL1   H3' 3038   1.891   2.757   6.690  1.3116  0.7826 -1.9157
   42CHL1    C4 3039   1.851   2.582   6.889 -0.0797  0.3261  0.2280
   42CHL1   H4A 3040   1.766   2.651   6.875  0.0026  0.4302  0.2410
   42CHL1   H4B 3041   1.832   2.499   6.818  1.2383  0.2446 -0.0539
   42CHL1    C5 3042   1.872   2.542   7.030  0.1059  0.0555  0.0793
   42CHL1    C6 3043   1.853   2.420   7.077  0.5156  0.5568  0.2509
   42CHL1    H6 3044   1.809   2.345   7.010 -0.6535  2.0545 -0.7506
   42CHL1    C7 3045   1.860   2.393   7.225 -0.2858 -0.0902  0.9037
   42CHL1   H7A 3046   1.778   2.326   7.258  0.2482 -0.5412  1.3169
   42CHL1   H7B 3047   1.947   2.324   7.231 -1.4229 -1.8021 -0.9495
   42CHL1    C8 3048   1.876   2.518   7.318  0.5536  0.8466 -0.0605
   42CHL1    H8 3049   1.778   2.568   7.328  0.3104  0.6932 -1.4728
   42CHL1   C14 3050   1.938   2.484   7.457 -0.2159  0.5300  0.1430
   42CHL1   H14 3051   2.040   2.442   7.443 -0.0103  0.4639  1.7229
   42CHL1   C15 3052   1.875   2.377   7.540 -0.3121 -0.2180 -0.0534
   42CHL1  H15A 3053   1.764   2.384   7.543 -0.2378  0.6496  1.1621
   42CHL1  H15B 3054   1.902   2.276   7.503 -3.5486 -1.2051 -0.0633
   42CHL1   C16 3055   1.934   2.394   7.687 -0.4623 -0.1411 -0.4167
   42CHL1  H16A 3056   1.853   2.393   7.764 -0.8976 -1.2726 -0.8608
   42CHL1  H16B 3057   2.014   2.325   7.721  0.4430  2.0524  2.3342
   42CHL1   C17 3058   2.012   2.527   7.682 -0.4748  0.8937  0.1908
   42CHL1   H17 3059   2.116   2.499   7.656 -1.3672 -2.3170 -0.3436
   42CHL1   C13 3060   1.968   2.601   7.551  0.6855 -0.8413 -0.1482
   42CHL1   C18 3061   1.836   2.677   7.589 -0.1329  0.5499 -0.3764
   42CHL1  H18A 3062   1.782   2.704   7.495 -0.2919  0.5830 -0.2759
   42CHL1  H18B 3063   1.764   2.613   7.644  1.2836 -1.8284 -1.1119
   42CHL1  H18C 3064   1.867   2.773   7.636  1.0951  0.0690 -0.1661
   42CHL1   C12 3065   2.070   2.689   7.485 -0.3145 -0.8424 -0.3838
   42CHL1  H12A 3066   2.100   2.782   7.539 -0.9877 -0.4339 -0.7044
   42CHL1  H12B 3067   2.171   2.647   7.465 -0.7621 -1.4548 -1.4399
   42CHL1   C11 3068   2.014   2.734   7.347 -0.6787  0.1468  1.3892
   42CHL1  H11A 3069   1.921   2.789   7.371 -1.6936 -1.1083  0.4384
   42CHL1  H11B 3070   2.097   2.798   7.309  0.8567 -1.6727  1.5398
   42CHL1    C9 3071   1.970   2.620   7.256 -0.6031  0.4814  0.4751
   42CHL1    H9 3072   2.067   2.568   7.243 -2.2163 -2.5884 -0.3837
   42CHL1   C10 3073   1.930   2.661   7.115  0.2340 -0.3875 -0.1918
   42CHL1   C19 3074   1.812   2.756   7.137  0.0203  0.5290  0.2045
   42CHL1  H19A 3075   1.838   2.844   7.200 -0.7333  1.3040 -0.5465
   42CHL1  H19B 3076   1.779   2.801   7.041  0.8994 -1.3274 -1.0103
   42CHL1  H19C 3077   1.715   2.713   7.170  0.1978 -0.0866 -0.0565
   42CHL1    C1 3078   2.046   2.732   7.041 -0.0996 -0.3098  0.1469
   42CHL1   H1A 3079   2.080   2.814   7.108 -1.1684 -1.1004  1.7270
   42CHL1   H1B 3080   2.131   2.660   7.051  1.6327  1.5545 -0.4442
   42CHL1    C2 3081   2.022   2.767   6.894 -0.3666 -0.2185 -0.3663
   42CHL1   H2A 3082   2.112   2.805   6.840 -0.4467  0.0881 -0.2860
   42CHL1   H2B 3083   1.946   2.847   6.886  0.0800  0.0801 -2.3312
   42CHL1   C20 3084   2.004   2.600   7.817  0.3280  0.3320  0.1125
   42CHL1   H20 3085   1.902   2.635   7.844  0.7735  0.5463  1.6265
   42CHL1   C21 3086   2.088   2.734   7.827  0.1890  0.3118  0.3265
   42CHL1  H21A 3087   2.089   2.779   7.929 -0.4579 -2.8269  1.8738
   42CHL1  H21B 3088   2.060   2.796   7.740 -0.5074 -1.0014 -0.4171
   42CHL1  H21C 3089   2.196   2.717   7.812 -0.1470 -0.6228 -1.2192
   42CHL1   C22 3090   2.037   2.505   7.938  0.3631  0.6964  0.4649
   42CHL1  H22A 3091   1.990   2.405   7.927  0.2156  0.8841 -0.7350
   42CHL1  H22B 3092   2.145   2.479   7.930  0.1228 -1.7338  3.1291
   42CHL1   C23 3093   2.006   2.566   8.073 -0.1937 -0.1221 -0.1597
   42CHL1  H23A 3094   2.051   2.667   8.084 -1.5948  0.7982 -2.1665
   42CHL1  H23B 3095   1.895   2.569   8.085 -0.0896 -0.0971  0.8481
   42CHL1   C24 3096   2.056   2.470   8.179  0.2553  0.2219  0.4061
   42CHL1  H24A 3097   2.002   2.372   8.175 -1.1355  1.0128 -2.7814
   42CHL1  H24B 3098   2.163   2.448   8.161  0.4430  0.6301  0.9958
   42CHL1   C25 3099   2.042   2.519   8.324 -0.0337 -0.0443  0.1617
   42CHL1   H25 3100   1.953   2.585   8.325 -0.0221 -0.0327  0.5442
   42CHL1   C26 3101   2.016   2.400   8.419  0.4641  0.1686 -0.9429
   42CHL1  H26A 3102   1.909   2.375   8.409  0.5173 -0.3227 -0.3252
   42CHL1  H26B 3103   2.063   2.305   8.388  1.8685  0.6765 -0.4648
   42CHL1  H26C 3104   2.028   2.434   8.525  2.6403  1.7371 -1.6104
   42CHL1   C27 3105   2.169   2.592   8.366 -0.1838  0.0771 -1.0337
   42CHL1  H27A 3106   2.192   2.674   8.294  0.3829 -0.5201 -1.5348
   42CHL1  H27B 3107   2.248   2.516   8.381  0.1899  1.0933  3.8083
   42CHL1  H27C 3108   2.146   2.646   8.460  0.0024 -0.8173 -0.4631
   43CHL1    C3 3109   4.440   4.418   6.959  0.5504 -0.0316  0.3244
   43CHL1    H3 3110   4.444   4.523   6.996 -4.0387  0.1415  0.9985
   43CHL1    O3 3111   4.491   4.405   6.830  0.1043 -0.5475  0.1305
   43CHL1   H3' 3112   4.523   4.315   6.824 -0.9233 -1.0217  1.3701
   43CHL1    C4 3113   4.513   4.334   7.053 -0.7470 -0.3594 -0.0521
   43CHL1   H4A 3114   4.493   4.231   7.016 -1.9078 -0.5293  0.9720
   43CHL1   H4B 3115   4.623   4.347   7.056 -0.4799 -2.2961 -0.4278
   43CHL1    C5 3116   4.457   4.330   7.195 -0.4081  0.2496  0.0494
   43CHL1    C6 3117   4.539   4.352   7.297  0.1343 -0.0256  0.4802
   43CHL1    H6 3118   4.644   4.372   7.270  0.1179 -1.0387 -0.4273
   43CHL1    C7 3119   4.503   4.368   7.441 -1.1481  0.5660 -0.6670
   43CHL1   H7A 3120   4.572   4.304   7.501  0.6232  0.2230 -2.9273
   43CHL1   H7B 3121   4.515   4.474   7.474 -1.9576  0.9620 -1.5975
   43CHL1    C8 3122   4.359   4.327   7.464  0.5521  0.0149  0.5252
   43CHL1    H8 3123   4.349   4.217   7.468 -0.2453  0.0623  0.0094
   43CHL1   C14 3124   4.311   4.390   7.594  0.2013  0.9244 -0.3517
   43CHL1   H14 3125   4.310   4.499   7.571 -0.0503  1.5598  2.2704
   43CHL1   C15 3126   4.404   4.384   7.718  0.2315  0.3194 -0.1165
   43CHL1  H15A 3127   4.452   4.284   7.721  0.5518  0.4287 -1.3090
   43CHL1  H15B 3128   4.468   4.471   7.693  2.6270 -1.3931 -0.2749
   43CHL1   C16 3129   4.305   4.411   7.837 -0.5591 -0.4945 -0.4962
   43CHL1  H16A 3130   4.305   4.317   7.897 -0.3329 -1.8018 -2.4679
   43CHL1  H16B 3131   4.346   4.493   7.900  2.3499 -1.7249 -0.5937
   43CHL1   C17 3132   4.167   4.435   7.776 -0.0608  0.9260  0.3747
   43CHL1   H17 3133   4.177   4.542   7.752 -0.4094  1.1351  1.1323
   43CHL1   C13 3134   4.163   4.354   7.639 -0.6099 -0.3810 -0.4406
   43CHL1   C18 3135   4.156   4.201   7.667 -0.2572 -0.4313 -0.8650
   43CHL1  H18A 3136   4.060   4.173   7.715  0.9500  0.6711  2.4240
   43CHL1  H18B 3137   4.171   4.156   7.566  2.3298  0.7664 -1.1040
   43CHL1  H18C 3138   4.242   4.168   7.730 -0.0640  2.2660  0.4087
   43CHL1   C12 3139   4.084   4.410   7.528  0.1173 -0.9782  0.0057
   43CHL1  H12A 3140   3.981   4.373   7.542 -0.8892  1.8601  0.7977
   43CHL1  H12B 3141   4.082   4.521   7.522 -0.1988 -0.8570  1.7671
   43CHL1   C11 3142   4.118   4.356   7.386  0.0415 -0.1355  0.5624
   43CHL1  H11A 3143   4.101   4.246   7.381  0.0762 -0.0927 -1.0159
   43CHL1  H11B 3144   4.045   4.399   7.314 -0.5452 -0.2649  1.0711
   43CHL1    C9 3145   4.265   4.381   7.350 -0.1244 -0.1643 -0.0104
   43CHL1    H9 3146   4.281   4.491   7.352 -0.6850 -0.0832  0.6201
   43CHL1   C10 3147   4.307   4.324   7.213 -0.0954  0.0451 -0.6163
   43CHL1   C19 3148   4.259   4.177   7.198 -0.0275  0.0774 -0.0067
   43CHL1  H19A 3149   4.148   4.178   7.195 -0.0589  1.6877  0.6482
   43CHL1  H19B 3150   4.306   4.128   7.110 -0.0047 -1.9854  1.0947
   43CHL1  H19C 3151   4.293   4.117   7.285  1.7752  1.1053  0.0332
   43CHL1    C1 3152   4.229   4.399   7.096  0.2120 -0.6189 -0.5239
   43CHL1   H1A 3153   4.123   4.367   7.092 -0.7738  2.0027  1.6054
   43CHL1   H1B 3154   4.226   4.508   7.117  1.0375 -1.0461  2.2573
   43CHL1    C2 3155   4.291   4.376   6.959 -0.2394  0.6151 -0.7264
   43CHL1   H2A 3156   4.240   4.450   6.894 -0.0075  1.5843  0.1795
   43CHL1   H2B 3157   4.271   4.270   6.930 -2.0484  0.4229  0.9995
   43CHL1   C20 3158   4.053   4.410   7.879 -0.2252  0.9025  0.4624
   43CHL1   H20 3159   4.042   4.301   7.894 -1.3467  0.9217 -0.1733
   43CHL1   C21 3160   3.933   4.483   7.821 -0.0018  0.0059  0.2239
   43CHL1  H21A 3161   3.954   4.590   7.801 -1.1187  0.3739  0.9415
   43CHL1  H21B 3162   3.840   4.463   7.878 -0.2516 -1.2060 -0.5802
   43CHL1  H21C 3163   3.913   4.448   7.717 -2.7050  0.3944  0.5253
   43CHL1   C22 3164   4.095   4.479   8.016 -0.1053  0.3252 -0.2876
   43CHL1  H22A 3165   4.183   4.427   8.062  0.2631  0.3288 -0.9721
   43CHL1  H22B 3166   4.132   4.582   7.998 -0.5113  0.3080 -1.2971
   43CHL1   C23 3167   3.995   4.471   8.133 -0.2635  0.1493  0.2015
   43CHL1  H23A 3168   3.901   4.523   8.107 -0.5712  0.9017  2.5766
   43CHL1  H23B 3169   3.975   4.362   8.144 -0.9341 -0.0078 -2.0709
   43CHL1   C24 3170   4.040   4.531   8.271 -0.8655 -0.3476  0.3810
   43CHL1  H24A 3171   4.119   4.466   8.314 -2.1168 -0.9719  1.7701
   43CHL1  H24B 3172   4.068   4.638   8.258  1.0146 -0.7030  1.1026
   43CHL1   C25 3173   3.928   4.534   8.376  0.5855  0.2774 -0.2372
   43CHL1   H25 3174   3.876   4.436   8.379 -0.5910  0.8891  0.0745
   43CHL1   C26 3175   3.975   4.533   8.526  0.6903  0.5010  0.4357
   43CHL1  H26A 3176   4.068   4.472   8.533  0.0467 -0.3069  2.4979
   43CHL1  H26B 3177   4.003   4.634   8.564 -1.2654  1.0543  0.4858
   43CHL1  H26C 3178   3.905   4.487   8.598 -0.8764  2.0522 -0.0389
   43CHL1   C27 3179   3.830   4.652   8.353  0.4308  0.2419 -0.1206
   43CHL1  H27A 3180   3.751   4.648   8.432  0.6715  0.3318  0.1271
   43CHL1  H27B 3181   3.876   4.753   8.362 -0.3700  0.6352 -0.2816
   43CHL1  H27C 3182   3.779   4.648   8.254  4.0217  0.0811 -2.1030
   44CHL1    C3 3183   5.471   3.389   6.835 -0.4867  0.7131 -0.7971
   44CHL1    H3 3184   5.362   3.411   6.842 -0.9873 -1.5335 -0.5545
   44CHL1    O3 3185   5.520   3.406   6.702  0.3372  0.0742 -0.1015
   44CHL1   H3' 3186   5.459   3.356   6.646  1.5746  0.8942 -2.3152
   44CHL1    C4 3187   5.554   3.476   6.930  0.2979 -0.1245  0.3859
   44CHL1   H4A 3188   5.661   3.453   6.916  0.2301  0.2414 -0.8556
   44CHL1   H4B 3189   5.550   3.585   6.908 -0.9923  0.3970  2.8096
   44CHL1    C5 3190   5.507   3.457   7.074  0.7566 -0.3471 -0.1514
   44CHL1    C6 3191   5.474   3.563   7.153 -0.0111 -0.2677  0.3716
   44CHL1    H6 3192   5.477   3.663   7.108  1.0677 -0.8939 -1.0036
   44CHL1    C7 3193   5.434   3.555   7.301  0.0270  0.4816  0.5968
   44CHL1   H7A 3194   5.496   3.619   7.367 -0.4875  0.7513  0.8232
   44CHL1   H7B 3195   5.327   3.583   7.295 -0.4170 -1.3677 -2.2739
   44CHL1    C8 3196   5.474   3.411   7.356 -0.0749  0.3822 -0.3229
   44CHL1    H8 3197   5.585   3.409   7.366  0.0262 -3.0604 -1.1602
   44CHL1   C14 3198   5.408   3.388   7.486 -0.1624 -0.0466 -0.0121
   44CHL1   H14 3199   5.298   3.381   7.471 -0.7529 -1.1847  3.6804
   44CHL1   C15 3200   5.426   3.497   7.594 -0.1269 -0.5071 -0.3051
   44CHL1  H15A 3201   5.524   3.550   7.593 -0.3559  0.0093  1.1776
   44CHL1  H15B 3202   5.343   3.570   7.604  0.5686  0.0311  2.8354
   44CHL1   C16 3203   5.413   3.416   7.731 -0.0629  0.0039  0.6146
   44CHL1  H16A 3204   5.511   3.425   7.782 -0.3706  0.8498  1.0781
   44CHL1  H16B 3205   5.337   3.463   7.797 -1.9942 -1.1486 -0.6933
   44CHL1   C17 3206   5.377   3.270   7.687  0.3774 -0.2663  0.6050
   44CHL1   H17 3207   5.270   3.260   7.661  1.0298 -0.2547 -2.5224
   44CHL1   C13 3208   5.443   3.254   7.550  0.3145 -0.0208  0.3432
   44CHL1   C18 3209   5.600   3.235   7.569 -1.2655 -0.3475  0.2851
   44CHL1  H18A 3210   5.635   3.298   7.654 -0.8178  0.9117 -0.8009
   44CHL1  H18B 3211   5.629   3.130   7.589  3.2053  0.8174  1.0878
   44CHL1  H18C 3212   5.654   3.261   7.476 -1.7344  0.4757  0.2359
   44CHL1   C12 3213   5.379   3.146   7.469  0.1054 -0.1945 -0.3910
   44CHL1  H12A 3214   5.394   3.050   7.522 -4.4286  0.0889  1.9038
   44CHL1  H12B 3215   5.269   3.143   7.452  0.3826  0.1454 -2.5369
   44CHL1   C11 3216   5.440   3.159   7.321  0.0309 -0.1101 -0.8293
   44CHL1  H11A 3217   5.548   3.136   7.338 -0.0315  0.4425  0.5156
   44CHL1  H11B 3218   5.395   3.083   7.255  1.5274  0.0291 -2.0712
   44CHL1    C9 3219   5.428   3.302   7.261 -0.0692 -0.0890  0.1131
   44CHL1    H9 3220   5.319   3.321   7.248 -0.5142 -1.4080  1.5991
   44CHL1   C10 3221   5.497   3.312   7.126  0.3685 -0.0582 -0.1092
   44CHL1   C19 3222   5.645   3.273   7.139 -0.2006  0.0482 -0.6697
   44CHL1  H19A 3223   5.663   3.163   7.145  0.3054  0.2039  1.3791
   44CHL1  H19B 3224   5.701   3.313   7.052 -0.4016  0.8688 -0.4305
   44CHL1  H19C 3225   5.696   3.313   7.229 -0.5071 -0.1183 -0.4185
   44CHL1    C1 3226   5.426   3.221   7.024 -0.2375 -0.3732 -0.7139
   44CHL1   H1A 3227   5.434   3.114   7.052 -0.3265 -0.5028 -1.1685
   44CHL1   H1B 3228   5.319   3.252   7.026  0.5565  2.6803 -0.0967
   44CHL1    C2 3229   5.477   3.242   6.883 -0.0856 -0.0807 -0.4250
   44CHL1   H2A 3230   5.415   3.179   6.816 -0.9033 -0.2920  0.5201
   44CHL1   H2B 3231   5.582   3.209   6.869 -0.1240 -0.8157  0.9458
   44CHL1   C20 3232   5.411   3.161   7.788  0.3853  0.0211  0.2188
   44CHL1   H20 3233   5.467   3.083   7.733 -2.0505 -1.4606 -0.3204
   44CHL1   C21 3234   5.280   3.096   7.825 -0.4728 -0.4018  0.4066
   44CHL1  H21A 3235   5.203   3.175   7.844 -1.3946 -0.4601 -2.6135
   44CHL1  H21B 3236   5.292   3.034   7.916  3.4600 -0.0747  0.2778
   44CHL1  H21C 3237   5.242   3.030   7.744  0.0922 -0.9901  0.6114
   44CHL1   C22 3238   5.498   3.213   7.910  0.6137 -1.0150 -0.5314
   44CHL1  H22A 3239   5.591   3.260   7.871  4.5880 -3.3603  4.7796
   44CHL1  H22B 3240   5.452   3.279   7.986  0.5879 -1.0270 -0.5368
   44CHL1   C23 3241   5.560   3.089   7.979 -0.6089 -0.3247 -0.8441
   44CHL1  H23A 3242   5.479   3.024   8.018 -0.3288  0.2755  0.8117
   44CHL1  H23B 3243   5.614   3.022   7.908 -0.9317 -0.2167 -1.1941
   44CHL1   C24 3244   5.662   3.139   8.087  0.2504 -0.5741  0.1816
   44CHL1  H24A 3245   5.743   3.066   8.108 -0.1374 -0.5353  2.0014
   44CHL1  H24B 3246   5.709   3.237   8.062  0.9607 -0.3027  2.3741
   44CHL1   C25 3247   5.592   3.168   8.218 -0.1442  0.4347  0.3191
   44CHL1   H25 3248   5.516   3.247   8.202  0.0318  0.3458 -1.0486
   44CHL1   C26 3249   5.525   3.043   8.278 -0.1085 -0.3513 -0.3035
   44CHL1  H26A 3250   5.420   3.031   8.242 -0.5483 -1.5733  1.2633
   44CHL1  H26B 3251   5.592   2.956   8.262  2.6431  0.8905  3.0795
   44CHL1  H26C 3252   5.513   3.068   8.386  2.1983  0.0160 -0.0790
   44CHL1   C27 3253   5.692   3.225   8.319  0.4047  0.2217  0.1301
   44CHL1  H27A 3254   5.767   3.148   8.349 -0.6018 -1.1682 -0.8042
   44CHL1  H27B 3255   5.747   3.311   8.276 -1.1141  1.9431  1.4875
   44CHL1  H27C 3256   5.642   3.266   8.409 -0.3411  1.4268 -0.8179
   45CHL1    C3 3257   5.161   0.180   7.000 -0.2306  0.2805 -0.3312
   45CHL1    H3 3258   5.056   0.146   6.986 -0.9451  2.9589 -2.4782
   45CHL1    O3 3259   5.226   0.207   6.876 -0.1114 -0.7171 -1.0753
   45CHL1   H3' 3260   5.303   0.256   6.907 -0.2376 -0.5423 -1.0336
   45CHL1    C4 3261   5.154   0.311   7.079  0.3830 -0.1563  0.3656
   45CHL1   H4A 3262   5.253   0.363   7.076  0.0886  0.3848 -0.5582
   45CHL1   H4B 3263   5.083   0.376   7.024  0.1590 -1.7825 -1.3703
   45CHL1    C5 3264   5.110   0.290   7.220  0.2371  0.1616  0.0663
   45CHL1    C6 3265   5.001   0.340   7.272 -0.7346 -1.1141 -0.1167
   45CHL1    H6 3266   4.926   0.388   7.206 -1.6587 -4.1105 -1.4051
   45CHL1    C7 3267   4.979   0.360   7.421 -0.1293 -0.1923 -0.7981
   45CHL1   H7A 3268   4.968   0.470   7.436 -2.5421 -0.2823 -1.4294
   45CHL1   H7B 3269   4.882   0.312   7.445  0.6025 -1.4455 -0.2574
   45CHL1    C8 3270   5.081   0.296   7.518  0.2094  0.0401  0.2627
   45CHL1    H8 3271   5.165   0.366   7.535  0.7849 -0.3572 -0.8699
   45CHL1   C14 3272   5.023   0.254   7.654  0.4066  0.4848  0.2252
   45CHL1   H14 3273   4.936   0.186   7.637  0.3238 -0.0411  2.3415
   45CHL1   C15 3274   4.953   0.363   7.739 -0.5827 -0.1542  0.5292
   45CHL1  H15A 3275   5.005   0.460   7.727 -1.9415  0.4753 -0.4759
   45CHL1  H15B 3276   4.849   0.373   7.703 -0.3251  0.1615 -0.1520
   45CHL1   C16 3277   4.970   0.321   7.884 -0.5284  0.7650  0.6023
   45CHL1  H16A 3278   5.038   0.395   7.932 -1.5020  2.0519  0.0384
   45CHL1  H16B 3279   4.872   0.325   7.937 -0.3910  0.7070  0.8638
   45CHL1   C17 3280   5.039   0.179   7.874 -0.1207  0.2962 -0.4225
   45CHL1   H17 3281   4.963   0.102   7.847 -0.8226  1.5337 -2.1480
   45CHL1   C13 3282   5.124   0.174   7.741  0.6510 -0.0183 -0.6682
   45CHL1   C18 3283   5.260   0.245   7.773 -0.3013  0.0577 -0.1791
   45CHL1  H18A 3284   5.324   0.178   7.835  0.8180 -0.3339 -1.7087
   45CHL1  H18B 3285   5.315   0.268   7.679 -2.4813  2.0123 -1.0704
   45CHL1  H18C 3286   5.247   0.344   7.822 -0.2468 -1.7979  4.0209
   45CHL1   C12 3287   5.142   0.034   7.670  0.1927 -0.3132  0.2242
   45CHL1  H12A 3288   5.193  -0.041   7.734  0.6782  0.5393  0.8623
   45CHL1  H12B 3289   5.048  -0.020   7.647  0.0602 -0.2299  0.5580
   45CHL1   C11 3290   5.213   0.062   7.536 -0.6966  0.4882  0.7419
   45CHL1  H11A 3291   5.311   0.103   7.568  0.0029 -0.3696 -0.2523
   45CHL1  H11B 3292   5.229  -0.030   7.475  0.1005  0.3569  1.1383
   45CHL1    C9 3293   5.135   0.166   7.445 -0.0069  0.1966  0.4761
   45CHL1    H9 3294   5.049   0.103   7.414  0.9628 -0.4630 -1.0061
   45CHL1   C10 3295   5.198   0.197   7.308 -0.3198  0.4199  0.5025
   45CHL1   C19 3296   5.332   0.274   7.330 -0.0309 -0.0824 -0.1094
   45CHL1  H19A 3297   5.387   0.273   7.234 -1.2167 -0.2125 -0.8025
   45CHL1  H19B 3298   5.313   0.380   7.356 -1.5611 -0.5735  0.9382
   45CHL1  H19C 3299   5.402   0.233   7.406  0.7212  2.2585  0.5305
   45CHL1    C1 3300   5.210   0.061   7.224 -0.4040 -1.1973  0.1396
   45CHL1   H1A 3301   5.288  -0.004   7.268  2.0759  2.3435  1.4335
   45CHL1   H1B 3302   5.120  -0.000   7.246 -0.4629 -0.1641  3.3987
   45CHL1    C2 3303   5.248   0.082   7.074 -0.1956 -0.5019  0.2084
   45CHL1   H2A 3304   5.245  -0.017   7.025 -0.2578 -1.2585  1.6760
   45CHL1   H2B 3305   5.355   0.111   7.076  0.2905 -2.1827  2.0493
   45CHL1   C20 3306   5.107   0.120   8.003  0.3920  0.3757 -0.8541
   45CHL1   H20 3307   5.184   0.045   7.975  0.7914  0.1168  0.8710
   45CHL1   C21 3308   4.991   0.047   8.074 -0.2395  0.2091 -0.5759
   45CHL1  H21A 3309   4.908   0.120   8.089 -0.2007  0.3531 -1.0576
   45CHL1  H21B 3310   5.031   0.014   8.173  0.1498  0.2041 -0.7311
   45CHL1  H21C 3311   4.939  -0.033   8.019 -0.6472  1.3244 -1.8491
   45CHL1   C22 3312   5.168   0.231   8.090  0.1457 -0.4806 -0.7785
   45CHL1  H22A 3313   5.213   0.312   8.029  1.1670 -1.3590 -1.2204
   45CHL1  H22B 3314   5.096   0.284   8.156  0.1148 -1.3509 -0.0955
   45CHL1   C23 3315   5.284   0.180   8.179 -0.7856 -0.8168  0.3057
   45CHL1  H23A 3316   5.240   0.115   8.258 -1.6308 -2.7306 -1.6427
   45CHL1  H23B 3317   5.362   0.128   8.120  0.0757  0.3884  0.3678
   45CHL1   C24 3318   5.365   0.296   8.247  0.5508  0.2094  1.0527
   45CHL1  H24A 3319   5.393   0.368   8.167 -0.1657 -0.1979  0.4244
   45CHL1  H24B 3320   5.298   0.339   8.324  1.4510  1.7066  1.0360
   45CHL1   C25 3321   5.485   0.251   8.326 -0.1564 -1.0954 -0.0233
   45CHL1   H25 3322   5.556   0.197   8.260 -0.9987  0.0646 -1.9828
   45CHL1   C26 3323   5.570   0.375   8.381 -0.4922 -0.5679 -1.0347
   45CHL1  H26A 3324   5.507   0.462   8.411  1.6699  1.6742 -2.5664
   45CHL1  H26B 3325   5.632   0.347   8.468  0.4071  0.3182 -1.3707
   45CHL1  H26C 3326   5.633   0.418   8.300  0.0653 -1.2957 -0.9925
   45CHL1   C27 3327   5.441   0.157   8.442  0.4645 -0.9912 -0.0259
   45CHL1  H27A 3328   5.357   0.206   8.495  1.7210  0.6714  0.4986
   45CHL1  H27B 3329   5.385   0.067   8.406 -0.0682 -0.2218 -1.2014
   45CHL1  H27C 3330   5.531   0.136   8.502  0.4031  2.4906  1.5077
   46CHL1    C3 3331   6.523   3.609   6.935 -0.7507 -0.0563  0.1380
   46CHL1    H3 3332   6.628   3.644   6.932 -1.0232  0.7195 -0.5381
   46CHL1    O3 3333   6.489   3.580   6.805 -0.0952 -0.2107 -0.2295
   46CHL1   H3' 3334   6.448   3.663   6.779 -0.0456 -0.4471 -1.0750
   46CHL1    C4 3335   6.522   3.472   7.004 -0.4797  0.8656 -0.1306
   46CHL1   H4A 3336   6.426   3.420   6.981 -0.0002 -0.0470 -0.0974
   46CHL1   H4B 3337   6.604   3.406   6.969 -1.1094 -1.1451  1.9246
   46CHL1    C5 3338   6.532   3.492   7.154  0.2933  0.0734 -0.5014
   46CHL1    C6 3339   6.634   3.445   7.230  0.5385  0.0556 -0.0947
   46CHL1    H6 3340   6.704   3.375   7.183 -2.1531 -1.5253 -2.0354
   46CHL1    C7 3341   6.637   3.451   7.379 -0.5213  0.2413  0.3655
   46CHL1   H7A 3342   6.695   3.366   7.421  0.9739  0.4296 -1.1989
   46CHL1   H7B 3343   6.708   3.530   7.411  1.2340 -0.4307 -1.6660
   46CHL1    C8 3344   6.509   3.486   7.451  0.5513  0.2746 -0.1100
   46CHL1    H8 3345   6.438   3.401   7.448  1.4045 -0.4117 -1.7650
   46CHL1   C14 3346   6.539   3.532   7.597 -0.2637 -0.8872  0.0084
   46CHL1   H14 3347   6.600   3.624   7.588 -2.9534  1.2594  2.1614
   46CHL1   C15 3348   6.618   3.432   7.690  0.2929  0.5438  0.7030
   46CHL1  H15A 3349   6.582   3.328   7.672  0.4148  0.7791 -1.1293
   46CHL1  H15B 3350   6.721   3.452   7.654 -0.5236  2.7398 -0.5968
   46CHL1   C16 3351   6.596   3.491   7.829 -0.2103 -0.4861 -0.0552
   46CHL1  H16A 3352   6.543   3.412   7.886 -0.4827 -0.7737 -0.6992
   46CHL1  H16B 3353   6.689   3.530   7.876 -0.7937  0.7202  0.1345
   46CHL1   C17 3354   6.497   3.614   7.814  0.1978 -0.3428  0.0715
   46CHL1   H17 3355   6.569   3.695   7.796 -1.1642  0.3768 -2.6290
   46CHL1   C13 3356   6.421   3.587   7.680  0.3145  0.1790  0.1355
   46CHL1   C18 3357   6.319   3.472   7.691 -0.2142 -0.4589 -0.4742
   46CHL1  H18A 3358   6.257   3.477   7.599  0.7229  2.1163 -1.0274
   46CHL1  H18B 3359   6.375   3.376   7.691  2.1184  0.7779  1.7942
   46CHL1  H18C 3360   6.249   3.503   7.772  1.4736  4.4548 -0.5563
   46CHL1   C12 3361   6.359   3.707   7.603 -0.0971  0.2775  0.3486
   46CHL1  H12A 3362   6.261   3.726   7.652 -0.6730  1.0127 -1.0338
   46CHL1  H12B 3363   6.433   3.789   7.609  1.3836 -0.8567 -1.2992
   46CHL1   C11 3364   6.330   3.674   7.452 -0.1738 -0.1428 -0.0690
   46CHL1  H11A 3365   6.238   3.611   7.449 -0.2653 -0.0815  1.0196
   46CHL1  H11B 3366   6.304   3.769   7.401  1.5381  1.9132  2.6050
   46CHL1    C9 3367   6.445   3.606   7.372  0.4930 -0.0011  0.1961
   46CHL1    H9 3368   6.521   3.686   7.380 -2.1290  2.7251 -0.4875
   46CHL1   C10 3369   6.422   3.576   7.218  0.3823 -0.5364  0.1031
   46CHL1   C19 3370   6.284   3.506   7.207 -0.4670 -1.0714  0.1284
   46CHL1  H19A 3371   6.258   3.466   7.107 -1.0592  0.2255 -0.2532
   46CHL1  H19B 3372   6.269   3.443   7.297 -0.8253 -0.1719  0.7181
   46CHL1  H19C 3373   6.213   3.592   7.209  1.0005  0.2244 -0.8605
   46CHL1    C1 3374   6.412   3.715   7.142  0.4045 -0.0407 -0.4007
   46CHL1   H1A 3375   6.309   3.754   7.152  0.2055 -0.1616 -1.8354
   46CHL1   H1B 3376   6.494   3.777   7.184  1.1576 -1.3586  0.1707
   46CHL1    C2 3377   6.414   3.695   6.986  0.0528 -0.7141  0.0513
   46CHL1   H2A 3378   6.418   3.799   6.947  0.3808 -0.6391  0.2765
   46CHL1   H2B 3379   6.313   3.660   6.958 -1.0331  0.0796  2.6785
   46CHL1   C20 3380   6.414   3.629   7.947  0.7668 -0.4230 -0.0894
   46CHL1   H20 3381   6.354   3.537   7.963 -1.6110  1.0184 -0.1907
   46CHL1   C21 3382   6.311   3.745   7.910  0.0923 -0.3666 -0.1991
   46CHL1  H21A 3383   6.362   3.834   7.866  1.3141 -1.0601 -0.2416
   46CHL1  H21B 3384   6.248   3.790   7.989 -0.3507 -2.5675  0.7809
   46CHL1  H21C 3385   6.227   3.718   7.843  0.6350 -2.0150 -0.2596
   46CHL1   C22 3386   6.505   3.664   8.071 -0.1398 -0.4218  0.9730
   46CHL1  H22A 3387   6.581   3.585   8.093  0.1524  0.1297  2.0171
   46CHL1  H22B 3388   6.555   3.762   8.056 -1.0621 -0.2313 -1.2399
   46CHL1   C23 3389   6.423   3.678   8.205  0.1563  0.2317 -0.4111
   46CHL1  H23A 3390   6.338   3.749   8.196 -0.3561 -0.5083 -1.7284
   46CHL1  H23B 3391   6.378   3.577   8.216  0.7424 -0.1099 -1.1203
   46CHL1   C24 3392   6.502   3.701   8.337 -0.6185 -0.2532  0.3921
   46CHL1  H24A 3393   6.572   3.616   8.342 -1.3969 -1.1182 -1.9607
   46CHL1  H24B 3394   6.556   3.794   8.309 -3.4553  1.4382  0.1244
   46CHL1   C25 3395   6.420   3.711   8.463 -1.0439 -1.0592 -0.6376
   46CHL1   H25 3396   6.347   3.628   8.471  0.8222 -2.7615 -0.2965
   46CHL1   C26 3397   6.509   3.718   8.586  0.0286 -0.1349  0.0103
   46CHL1  H26A 3398   6.452   3.708   8.681 -1.4795  0.0270 -0.8423
   46CHL1  H26B 3399   6.588   3.640   8.579  1.3251  1.1094  0.2410
   46CHL1  H26C 3400   6.555   3.818   8.572  0.0324 -0.0261  0.7570
   46CHL1   C27 3401   6.328   3.833   8.471  0.0829 -0.0682  0.4064
   46CHL1  H27A 3402   6.256   3.803   8.549  0.5880 -3.0408 -0.1585
   46CHL1  H27B 3403   6.377   3.924   8.513 -0.2181 -0.3649  1.4193
   46CHL1  H27C 3404   6.269   3.846   8.377 -2.5186  1.4577  2.1241
   47CHL1    C3 3405   5.197   2.427   6.827  0.9794 -0.5451  1.1711
   47CHL1    H3 3406   5.177   2.533   6.852  0.0889 -0.4129  0.0002
   47CHL1    O3 3407   5.185   2.418   6.688 -0.2514 -0.0077  0.8497
   47CHL1   H3' 3408   5.093   2.419   6.661 -0.1390 -0.4938  0.4332
   47CHL1    C4 3409   5.335   2.384   6.873 -0.5299 -0.5213  0.3997
   47CHL1   H4A 3410   5.358   2.282   6.835 -1.0085 -0.5312  0.1408
   47CHL1   H4B 3411   5.418   2.449   6.838 -1.3488 -1.3503 -3.5197
   47CHL1    C5 3412   5.336   2.370   7.026  0.1459  0.4010  1.1224
   47CHL1    C6 3413   5.435   2.429   7.089  0.1830  0.7144 -0.4859
   47CHL1    H6 3414   5.512   2.471   7.023 -0.3109 -2.4687 -3.3704
   47CHL1    C7 3415   5.452   2.432   7.240  0.4705  0.4512  0.2197
   47CHL1   H7A 3416   5.557   2.422   7.275  0.1696 -3.3742  0.4494
   47CHL1   H7B 3417   5.408   2.527   7.277 -1.3215 -0.0726 -0.4695
   47CHL1    C8 3418   5.367   2.318   7.308 -0.4298 -0.0137 -0.2719
   47CHL1    H8 3419   5.417   2.224   7.277 -0.8893 -1.2484  2.4273
   47CHL1   C14 3420   5.380   2.328   7.451  0.6751 -0.1467  0.3034
   47CHL1   H14 3421   5.335   2.427   7.474  1.8730  1.1409 -2.3418
   47CHL1   C15 3422   5.521   2.329   7.523 -0.2651  0.3471 -0.4438
   47CHL1  H15A 3423   5.593   2.268   7.464  0.5062  2.9798 -2.4395
   47CHL1  H15B 3424   5.571   2.428   7.523  0.5483 -0.0474 -1.0113
   47CHL1   C16 3425   5.491   2.286   7.673 -0.6154 -0.4883  0.6114
   47CHL1  H16A 3426   5.553   2.198   7.699  0.6162 -0.5860 -2.2670
   47CHL1  H16B 3427   5.512   2.375   7.736 -1.5796 -0.0737  0.3664
   47CHL1   C17 3428   5.342   2.260   7.685  0.2298  0.1958  0.6839
   47CHL1   H17 3429   5.296   2.356   7.717 -0.2313  0.0295  0.5264
   47CHL1   C13 3430   5.300   2.230   7.533  0.7707 -0.8177 -0.5116
   47CHL1   C18 3431   5.335   2.087   7.505  0.1488  0.3682 -0.0366
   47CHL1  H18A 3432   5.443   2.068   7.521 -0.6274 -3.5155  1.8719
   47CHL1  H18B 3433   5.285   2.003   7.558 -0.3313 -1.3981 -3.0895
   47CHL1  H18C 3434   5.307   2.062   7.401 -2.7741  1.0931  0.4876
   47CHL1   C12 3435   5.150   2.250   7.489  0.0452 -0.3012 -0.7238
   47CHL1  H12A 3436   5.101   2.167   7.543  1.6478 -0.4118  0.6379
   47CHL1  H12B 3437   5.112   2.343   7.536  1.0459  0.4048 -1.2732
   47CHL1   C11 3438   5.120   2.239   7.342 -0.0180 -0.3018  0.6389
   47CHL1  H11A 3439   5.139   2.130   7.329  3.4084  0.1408  1.2672
   47CHL1  H11B 3440   5.013   2.269   7.333  0.0345  0.2688  1.7906
   47CHL1    C9 3441   5.223   2.325   7.255  0.7789  0.4286  0.1418
   47CHL1    H9 3442   5.191   2.431   7.267  0.3063  0.3116 -0.0462
   47CHL1   C10 3443   5.225   2.301   7.102  0.0792 -0.2482  0.1559
   47CHL1   C19 3444   5.243   2.149   7.084 -0.0963  0.0025 -0.1882
   47CHL1  H19A 3445   5.248   2.116   6.978 -0.2353 -2.4593  0.5047
   47CHL1  H19B 3446   5.340   2.119   7.130  0.1718  2.7442  1.2648
   47CHL1  H19C 3447   5.176   2.084   7.146  1.9395  0.4164  2.6696
   47CHL1    C1 3448   5.096   2.356   7.042 -0.0789  0.1130 -0.5266
   47CHL1   H1A 3449   5.008   2.302   7.083 -0.3914  1.8804  1.3005
   47CHL1   H1B 3450   5.078   2.464   7.055  0.5007  0.4606 -2.3919
   47CHL1    C2 3451   5.088   2.345   6.890  0.2737 -0.0948  0.6016
   47CHL1   H2A 3452   4.988   2.376   6.851  0.1369 -1.0369  0.1770
   47CHL1   H2B 3453   5.107   2.241   6.858 -0.2735 -0.2343  0.7043
   47CHL1   C20 3454   5.302   2.156   7.790  0.3399  0.2885 -0.1349
   47CHL1   H20 3455   5.313   2.054   7.750  0.9620  0.0219  0.6878
   47CHL1   C21 3456   5.159   2.190   7.837 -0.2709 -0.1234 -1.0286
   47CHL1  H21A 3457   5.084   2.208   7.757 -1.2770  0.2771 -0.0238
   47CHL1  H21B 3458   5.167   2.277   7.905  1.3981  0.2322 -1.6242
   47CHL1  H21C 3459   5.123   2.112   7.907  2.0365 -2.2641 -2.0420
   47CHL1   C22 3460   5.399   2.162   7.913 -0.2963 -0.5253  0.5825
   47CHL1  H22A 3461   5.502   2.135   7.880 -0.8851 -1.9809 -0.1538
   47CHL1  H22B 3462   5.414   2.261   7.962 -0.0641  0.1677 -0.8172
   47CHL1   C23 3463   5.383   2.049   8.015  0.2524  0.1819  0.5965
   47CHL1  H23A 3464   5.285   2.047   8.067 -1.0531 -0.4932 -1.7252
   47CHL1  H23B 3465   5.386   1.957   7.953 -0.0058 -0.1505  1.0725
   47CHL1   C24 3466   5.488   2.069   8.128 -0.1391  0.4741  0.2326
   47CHL1  H24A 3467   5.558   1.983   8.113 -1.7526 -0.7241 -0.7730
   47CHL1  H24B 3468   5.544   2.163   8.108 -0.4585  0.7724  0.7361
   47CHL1   C25 3469   5.427   2.068   8.265  0.0554 -0.3197 -0.9929
   47CHL1   H25 3470   5.361   1.979   8.264 -0.8835  0.2787  1.0748
   47CHL1   C26 3471   5.525   2.042   8.383  0.4330 -0.0667 -0.2232
   47CHL1  H26A 3472   5.475   2.051   8.482  0.8662  2.9539 -0.1825
   47CHL1  H26B 3473   5.561   1.937   8.392 -2.1980 -0.9164  1.8085
   47CHL1  H26C 3474   5.618   2.103   8.380 -0.4463  1.2842 -2.2844
   47CHL1   C27 3475   5.357   2.205   8.285  0.2485  0.0600  0.5365
   47CHL1  H27A 3476   5.266   2.197   8.221 -0.1990 -0.8043  1.2678
   47CHL1  H27B 3477   5.304   2.214   8.382  0.8733 -1.2360  1.0173
   47CHL1  H27C 3478   5.425   2.292   8.274 -1.1521  1.3074  1.3513
   48CHL1    C3 3479   3.395   4.356   6.506 -0.6892  0.0452  0.1794
   48CHL1    H3 3480   3.477   4.282   6.513  0.0839  0.8506 -0.0899
   48CHL1    O3 3481   3.358   4.354   6.367 -0.4739  0.7945 -0.1015
   48CHL1   H3' 3482   3.276   4.403   6.354 -0.6463 -0.1296 -3.5716
   48CHL1    C4 3483   3.287   4.311   6.602  0.2900  0.1733 -0.0423
   48CHL1   H4A 3484   3.197   4.371   6.577  0.6101  0.4279 -0.6326
   48CHL1   H4B 3485   3.258   4.204   6.593 -2.8394  1.0564 -2.3831
   48CHL1    C5 3486   3.318   4.335   6.746 -0.7435  0.3477  0.9362
   48CHL1    C6 3487   3.331   4.234   6.837  0.3362  0.2310 -0.4583
   48CHL1    H6 3488   3.318   4.127   6.814  1.8613 -0.2391  0.6593
   48CHL1    C7 3489   3.357   4.262   6.985 -0.0589  0.7177  0.4441
   48CHL1   H7A 3490   3.287   4.200   7.045  0.1793  0.3664  0.3618
   48CHL1   H7B 3491   3.456   4.216   7.004 -0.5544 -0.6312 -0.1453
   48CHL1    C8 3492   3.347   4.413   7.019  0.0433  0.3299 -0.0607
   48CHL1    H8 3493   3.241   4.446   7.017  0.0211  0.8258  3.3497
   48CHL1   C14 3494   3.411   4.427   7.155 -0.2775 -0.3107  0.2728
   48CHL1   H14 3495   3.516   4.395   7.140  0.0076  0.1432  1.2531
   48CHL1   C15 3496   3.359   4.344   7.271  1.3827 -0.8341 -0.0609
   48CHL1  H15A 3497   3.249   4.353   7.261  1.3360 -0.1229  0.8795
   48CHL1  H15B 3498   3.377   4.235   7.261 -0.5796 -1.0894 -1.2469
   48CHL1   C16 3499   3.408   4.415   7.390 -0.7092  0.0009  0.1878
   48CHL1  H16A 3500   3.321   4.446   7.452 -0.1654 -2.6810  2.5382
   48CHL1  H16B 3501   3.473   4.346   7.449 -0.7855 -0.5798 -0.3908
   48CHL1   C17 3502   3.489   4.540   7.339 -0.9473 -0.3164  0.6484
   48CHL1   H17 3503   3.589   4.499   7.315 -1.8871 -1.5948 -1.2466
   48CHL1   C13 3504   3.433   4.574   7.202  0.9723 -0.0088  0.4976
   48CHL1   C18 3505   3.290   4.638   7.212 -0.2400 -0.6619 -0.7941
   48CHL1  H18A 3506   3.290   4.746   7.238 -1.2848 -0.1764 -2.6833
   48CHL1  H18B 3507   3.233   4.618   7.119 -2.2452 -1.4726  0.5464
   48CHL1  H18C 3508   3.218   4.593   7.284 -0.4563  1.9866  0.7781
   48CHL1   C12 3509   3.519   4.655   7.103 -0.0015  0.0752 -0.2199
   48CHL1  H12A 3510   3.532   4.763   7.123 -2.1290  0.3551 -0.0908
   48CHL1  H12B 3511   3.623   4.615   7.104  0.9057  2.2695 -0.7424
   48CHL1   C11 3512   3.452   4.652   6.960 -0.1456  0.0925  0.1841
   48CHL1  H11A 3513   3.360   4.714   6.958 -0.3091 -0.1524  0.1302
   48CHL1  H11B 3514   3.524   4.702   6.892  1.0587 -1.9257 -0.0994
   48CHL1    C9 3515   3.420   4.498   6.916  1.3665 -0.0503 -0.3658
   48CHL1    H9 3516   3.519   4.453   6.894  0.1052 -2.4586 -1.3869
   48CHL1   C10 3517   3.360   4.479   6.776  0.0007 -0.4762 -1.0974
   48CHL1   C19 3518   3.238   4.575   6.760  0.1812  0.1386  0.2999
   48CHL1  H19A 3519   3.178   4.554   6.669  1.0049  1.3100 -0.5412
   48CHL1  H19B 3520   3.170   4.575   6.848  0.2916 -0.4668  0.3867
   48CHL1  H19C 3521   3.269   4.681   6.750 -0.5170  0.3825  0.6494
   48CHL1    C1 3522   3.472   4.521   6.677 -0.5659  0.0075  0.4818
   48CHL1   H1A 3523   3.474   4.632   6.681 -0.3054  0.1831 -2.4457
   48CHL1   H1B 3524   3.577   4.487   6.687 -0.3935 -0.5050 -2.3485
   48CHL1    C2 3525   3.435   4.501   6.527 -0.1240 -0.1506 -0.5068
   48CHL1   H2A 3526   3.521   4.527   6.463  1.2800  0.9212  1.7035
   48CHL1   H2B 3527   3.355   4.572   6.496 -1.4628  0.1786  3.1758
   48CHL1   C20 3528   3.495   4.643   7.449  0.4639 -0.9960 -0.1128
   48CHL1   H20 3529   3.391   4.672   7.476  0.7594  0.9769 -0.9648
   48CHL1   C21 3530   3.561   4.770   7.393  0.0826 -0.1906  0.4626
   48CHL1  H21A 3531   3.664   4.744   7.362 -0.0869  0.0184 -0.3023
   48CHL1  H21B 3532   3.559   4.847   7.473 -0.8022 -0.2861  0.5460
   48CHL1  H21C 3533   3.502   4.822   7.314  0.7876 -2.3610 -1.6443
   48CHL1   C22 3534   3.569   4.602   7.581  0.2272  0.7905  0.1416
   48CHL1  H22A 3535   3.559   4.493   7.601  0.7488  0.3609 -1.6959
   48CHL1  H22B 3536   3.675   4.623   7.553 -0.3798  1.0726 -2.1908
   48CHL1   C23 3537   3.519   4.691   7.701  0.0692 -0.8437  0.1669
   48CHL1  H23A 3538   3.570   4.787   7.678  0.8167 -1.1362  0.5516
   48CHL1  H23B 3539   3.411   4.704   7.681  0.3156 -0.8246 -1.2180
   48CHL1   C24 3540   3.543   4.628   7.848  0.0842  0.4804  1.3142
   48CHL1  H24A 3541   3.493   4.529   7.840  1.5570 -0.2078 -0.1628
   48CHL1  H24B 3542   3.651   4.620   7.875  0.1785 -0.6615  0.6583
   48CHL1   C25 3543   3.481   4.718   7.955 -0.3934 -0.5376 -0.4819
   48CHL1   H25 3544   3.379   4.751   7.928 -0.2573  0.6688  0.4121
   48CHL1   C26 3545   3.485   4.645   8.092  0.2397  0.6597 -0.0005
   48CHL1  H26A 3546   3.586   4.619   8.129  1.3721  0.7423 -2.8044
   48CHL1  H26B 3547   3.458   4.713   8.176 -0.9346 -0.3054  0.4329
   48CHL1  H26C 3548   3.412   4.562   8.095  0.1716  0.7591  1.9577
   48CHL1   C27 3549   3.572   4.842   7.972  0.2653 -0.5690  0.0527
   48CHL1  H27A 3550   3.612   4.879   7.876 -0.5367 -0.6180 -0.3123
   48CHL1  H27B 3551   3.510   4.921   8.019  1.3467 -0.1928  0.8974
   48CHL1  H27C 3552   3.660   4.821   8.036  1.4254 -1.0436 -1.6309
   49CHL1    C3 3553   6.686   0.410   6.670  0.5151  0.1214 -0.0022
   49CHL1    H3 3554   6.607   0.333   6.686 -1.5298  1.8175 -1.3759
   49CHL1    O3 3555   6.727   0.432   6.538 -0.0909  0.3811 -0.1574
   49CHL1   H3' 3556   6.794   0.500   6.537  0.0865  0.2525 -2.4101
   49CHL1    C4 3557   6.623   0.541   6.722 -0.1854  0.3588  0.0475
   49CHL1   H4A 3558   6.705   0.616   6.715  0.1662 -0.0946 -0.9037
   49CHL1   H4B 3559   6.539   0.582   6.662  0.9698  2.9456  0.0528
   49CHL1    C5 3560   6.576   0.537   6.869  0.1375 -0.2376  0.7292
   49CHL1    C6 3561   6.447   0.548   6.911  0.7763  0.0493 -0.2211
   49CHL1    H6 3562   6.362   0.558   6.841 -1.4239 -2.7115  1.8056
   49CHL1    C7 3563   6.407   0.536   7.057 -0.0442 -0.5522  0.0169
   49CHL1   H7A 3564   6.333   0.611   7.091  1.0850  0.8724 -0.5410
   49CHL1   H7B 3565   6.365   0.434   7.069 -0.4522 -0.1883  1.9788
   49CHL1    C8 3566   6.520   0.532   7.160 -0.3103  0.1923  0.2258
   49CHL1    H8 3567   6.561   0.635   7.163 -0.3472  0.2204 -0.1855
   49CHL1   C14 3568   6.476   0.492   7.297  0.5894 -0.0606  0.5488
   49CHL1   H14 3569   6.454   0.383   7.285  0.8704 -0.0375 -0.2641
   49CHL1   C15 3570   6.353   0.564   7.357 -0.1460 -0.2476  0.0293
   49CHL1  H15A 3571   6.356   0.672   7.334 -0.5322 -0.6898 -2.3240
   49CHL1  H15B 3572   6.258   0.527   7.313 -0.2528 -0.7582  0.6787
   49CHL1   C16 3573   6.367   0.527   7.506 -0.1584  0.4387 -0.1937
   49CHL1  H16A 3574   6.365   0.618   7.570  1.5817 -1.0330  2.1039
   49CHL1  H16B 3575   6.284   0.461   7.540  0.7129 -0.8714 -0.5404
   49CHL1   C17 3576   6.500   0.445   7.515  0.9238 -0.2829 -0.1808
   49CHL1   H17 3577   6.470   0.340   7.497  2.2332 -0.4342 -1.7764
   49CHL1   C13 3578   6.587   0.487   7.400  0.4806 -0.5984 -0.3124
   49CHL1   C18 3579   6.633   0.638   7.412  0.0972 -0.4117 -0.0291
   49CHL1  H18A 3580   6.704   0.648   7.497  0.7771 -0.8875 -0.5312
   49CHL1  H18B 3581   6.689   0.675   7.324  2.3392 -0.9129  1.1146
   49CHL1  H18C 3582   6.549   0.710   7.428  1.0659  0.8995 -0.6337
   49CHL1   C12 3583   6.704   0.397   7.360 -0.3523 -0.5041  0.0753
   49CHL1  H12A 3584   6.794   0.416   7.423 -2.0216  1.0869  2.1367
   49CHL1  H12B 3585   6.683   0.291   7.386  0.1140 -1.1782 -2.0537
   49CHL1   C11 3586   6.748   0.418   7.210 -1.4005  0.2665  0.7352
   49CHL1  H11A 3587   6.806   0.512   7.209  0.4717 -0.7574 -2.1013
   49CHL1  H11B 3588   6.818   0.340   7.173 -1.7559  0.2212  0.1307
   49CHL1    C9 3589   6.634   0.441   7.105  0.1644 -0.0698  0.0793
   49CHL1    H9 3590   6.577   0.347   7.086  0.0975 -0.1738  0.7562
   49CHL1   C10 3591   6.691   0.486   6.965  0.6563 -0.0129 -0.5746
   49CHL1   C19 3592   6.805   0.597   6.977  0.1878  0.4617  0.3659
   49CHL1  H19A 3593   6.781   0.695   7.024  1.5181  1.6815 -1.3444
   49CHL1  H19B 3594   6.895   0.562   7.033 -0.0171 -0.0109  0.4009
   49CHL1  H19C 3595   6.838   0.617   6.873 -1.8359 -1.7333 -0.7809
   49CHL1    C1 3596   6.758   0.354   6.905 -0.1189 -0.2401 -0.1240
   49CHL1   H1A 3597   6.848   0.338   6.969 -0.1902  0.5754  0.1862
   49CHL1   H1B 3598   6.712   0.253   6.906  0.9255 -0.7578 -1.1038
   49CHL1    C2 3599   6.805   0.377   6.759 -0.6902 -0.5782  0.0676
   49CHL1   H2A 3600   6.834   0.278   6.718 -1.3149 -1.1202  0.8995
   49CHL1   H2B 3601   6.892   0.445   6.748 -0.3881 -0.6498  1.6302
   49CHL1   C20 3602   6.563   0.454   7.668 -0.0320 -0.3803  0.3833
   49CHL1   H20 3603   6.608   0.556   7.670 -0.6260 -0.0714 -1.0661
   49CHL1   C21 3604   6.666   0.340   7.692  0.0649  0.2450  0.0117
   49CHL1  H21A 3605   6.760   0.342   7.633 -0.1047 -4.3132 -0.8031
   49CHL1  H21B 3606   6.627   0.236   7.683  2.0476 -0.5289 -0.3039
   49CHL1  H21C 3607   6.709   0.342   7.794  2.6883  1.6304 -1.0145
   49CHL1   C22 3608   6.457   0.458   7.781 -0.3847 -0.2040  0.1378
   49CHL1  H22A 3609   6.499   0.490   7.879 -2.6245  0.0241  1.0725
   49CHL1  H22B 3610   6.378   0.534   7.762  0.3162  0.3924 -0.4641
   49CHL1   C23 3611   6.390   0.324   7.794 -0.0854 -0.0553  0.2550
   49CHL1  H23A 3612   6.349   0.301   7.693  0.8731  2.4504 -0.7940
   49CHL1  H23B 3613   6.460   0.246   7.830  1.9661  0.2965 -2.6228
   49CHL1   C24 3614   6.259   0.337   7.879  0.7756  0.4681 -0.1571
   49CHL1  H24A 3615   6.288   0.361   7.983 -1.0174  2.7709 -0.0954
   49CHL1  H24B 3616   6.190   0.417   7.843 -2.1892 -0.9834  1.8874
   49CHL1   C25 3617   6.184   0.203   7.894  0.5353 -1.1100  0.6362
   49CHL1   H25 3618   6.136   0.174   7.798 -0.8062 -1.1920  1.3085
   49CHL1   C26 3619   6.268   0.085   7.938 -0.3704 -0.1621  0.6751
   49CHL1  H26A 3620   6.309   0.089   8.041  1.7245 -1.9127 -0.0307
   49CHL1  H26B 3621   6.205  -0.007   7.936  0.8812 -1.0302 -0.3673
   49CHL1  H26C 3622   6.350   0.051   7.872 -1.6821 -0.1367 -1.0625
   49CHL1   C27 3623   6.060   0.228   7.982  0.0424 -0.8947  0.5311
   49CHL1  H27A 3624   6.017   0.136   8.027  2.0762 -1.7416  0.8512
   49CHL1  H27B 3625   6.082   0.299   8.065 -0.4052 -1.4154  1.1054
   49CHL1  H27C 3626   5.972   0.270   7.928 -0.5411 -1.3158  1.1293
   50CHL1    C3 3627   5.708   1.695   6.984 -0.7356  0.2037  0.0232
   50CHL1    H3 3628   5.775   1.607   6.999  1.7108  1.9203 -0.1455
   50CHL1    O3 3629   5.692   1.723   6.844  0.2505  0.4542 -0.0184
   50CHL1   H3' 3630   5.620   1.667   6.813  0.0794 -0.3728  1.7082
   50CHL1    C4 3631   5.578   1.674   7.053  0.1305 -0.2992 -0.3305
   50CHL1   H4A 3632   5.526   1.771   7.036  1.4061  0.5428  0.3828
   50CHL1   H4B 3633   5.520   1.587   7.014 -1.4786 -0.4204  2.0896
   50CHL1    C5 3634   5.588   1.651   7.208  0.7947  0.4305  0.0499
   50CHL1    C6 3635   5.534   1.539   7.258  0.3266  0.2580  0.1665
   50CHL1    H6 3636   5.501   1.464   7.184 -0.7970 -0.2131  1.1249
   50CHL1    C7 3637   5.536   1.504   7.402  0.7034  0.1011  0.0841
   50CHL1   H7A 3638   5.439   1.460   7.435  1.0463 -0.1852  0.7373
   50CHL1   H7B 3639   5.615   1.429   7.425  1.9172  1.1516 -0.5668
   50CHL1    C8 3640   5.577   1.637   7.483  0.3378  0.7464 -0.1980
   50CHL1    H8 3641   5.492   1.707   7.492  1.4512  2.0389  0.9023
   50CHL1   C14 3642   5.616   1.596   7.628 -0.0871 -0.0540  0.0785
   50CHL1   H14 3643   5.707   1.536   7.611 -0.2044  0.6562 -4.0561
   50CHL1   C15 3644   5.515   1.507   7.701  0.3260  0.0725 -0.3257
   50CHL1  H15A 3645   5.414   1.552   7.707 -0.1521 -1.1785  2.0042
   50CHL1  H15B 3646   5.507   1.400   7.673 -2.3677 -0.3157  1.5303
   50CHL1   C16 3647   5.568   1.509   7.842 -0.3163 -0.0354 -0.1532
   50CHL1  H16A 3648   5.479   1.509   7.908 -1.7023 -2.6382 -1.8443
   50CHL1  H16B 3649   5.622   1.416   7.868  1.8466  1.2861  0.3055
   50CHL1   C17 3650   5.673   1.627   7.858  0.4857 -0.9855 -0.9418
   50CHL1   H17 3651   5.772   1.577   7.858  0.5022 -0.9561 -0.6774
   50CHL1   C13 3652   5.649   1.707   7.730 -0.1374  0.7031 -0.9502
   50CHL1   C18 3653   5.524   1.802   7.746 -0.0930 -0.1750  0.5140
   50CHL1  H18A 3654   5.477   1.830   7.649  0.6097 -1.7064 -0.2937
   50CHL1  H18B 3655   5.438   1.764   7.804  0.5648  1.5018  2.7161
   50CHL1  H18C 3656   5.562   1.902   7.776  0.9316 -0.5969  0.6720
   50CHL1   C12 3657   5.769   1.780   7.672  0.0936  0.1650 -0.3725
   50CHL1  H12A 3658   5.804   1.868   7.729  2.9250 -1.7722  1.1299
   50CHL1  H12B 3659   5.853   1.708   7.664 -0.7602 -0.7338 -1.8366
   50CHL1   C11 3660   5.739   1.824   7.527 -0.5337 -0.5945 -0.4779
   50CHL1  H11A 3661   5.667   1.909   7.526 -1.3442 -1.2516 -2.0853
   50CHL1  H11B 3662   5.825   1.875   7.479 -1.0423  2.6276  1.6915
   50CHL1    C9 3663   5.691   1.714   7.431  0.1219 -0.4041 -0.8957
   50CHL1    H9 3664   5.767   1.636   7.411 -1.3580 -2.3187  0.6676
   50CHL1   C10 3665   5.665   1.767   7.287  0.0814  0.2396 -0.1285
   50CHL1   C19 3666   5.569   1.892   7.296  0.1713  0.7984 -0.2015
   50CHL1  H19A 3667   5.560   1.938   7.195 -2.8417 -0.5713 -0.6664
   50CHL1  H19B 3668   5.467   1.872   7.334  0.3136 -0.3911 -0.3914
   50CHL1  H19C 3669   5.620   1.972   7.353  0.9392 -0.8200  1.5080
   50CHL1    C1 3670   5.791   1.806   7.206 -0.1575 -0.4395  0.1540
   50CHL1   H1A 3671   5.825   1.904   7.245 -1.1551  0.2080 -0.5722
   50CHL1   H1B 3672   5.869   1.732   7.236 -1.3638 -1.9781 -0.3488
   50CHL1    C2 3673   5.778   1.814   7.056  0.6382  0.6835  0.6323
   50CHL1   H2A 3674   5.880   1.833   7.016  0.6802  0.8891  0.8360
   50CHL1   H2B 3675   5.727   1.911   7.035  2.2745  1.3571 -0.5366
   50CHL1   C20 3676   5.670   1.704   7.996  0.2761  0.2799 -0.0385
   50CHL1   H20 3677   5.564   1.740   8.000  0.5527  1.0555  0.5709
   50CHL1   C21 3678   5.777   1.808   8.013  0.6041 -0.0880  0.6113
   50CHL1  H21A 3679   5.751   1.900   7.956  1.5293 -0.1658  0.0368
   50CHL1  H21B 3680   5.869   1.776   7.958 -0.3044  0.0570 -1.0762
   50CHL1  H21C 3681   5.807   1.828   8.118  0.9652  1.9204  0.1833
   50CHL1   C22 3682   5.680   1.612   8.119  0.1975  0.3863 -0.3252
   50CHL1  H22A 3683   5.625   1.524   8.079  1.4546  0.7700 -3.1289
   50CHL1  H22B 3684   5.781   1.574   8.143 -0.6204 -0.6600  1.6630
   50CHL1   C23 3685   5.616   1.668   8.244  0.1155  0.3365 -0.6678
   50CHL1  H23A 3686   5.669   1.765   8.260  0.1645  0.2686 -0.4081
   50CHL1  H23B 3687   5.509   1.687   8.224 -0.4826 -2.2317 -0.2017
   50CHL1   C24 3688   5.630   1.576   8.375  0.1158 -0.0130  0.1089
   50CHL1  H24A 3689   5.585   1.480   8.341 -1.0170  0.5053  0.0724
   50CHL1  H24B 3690   5.735   1.559   8.407  0.0459 -1.0667 -0.1918
   50CHL1   C25 3691   5.550   1.616   8.501 -0.1139  0.0257 -0.5498
   50CHL1   H25 3692   5.590   1.707   8.551 -1.5486 -0.5403  1.7588
   50CHL1   C26 3693   5.401   1.652   8.465 -1.5224  0.2408 -0.4456
   50CHL1  H26A 3694   5.381   1.748   8.412 -0.6281  0.2702 -0.7469
   50CHL1  H26B 3695   5.363   1.570   8.401  1.5110 -3.4314  2.0537
   50CHL1  H26C 3696   5.348   1.661   8.563  3.3235  1.9418  2.3933
   50CHL1   C27 3697   5.554   1.508   8.605  0.6239  0.7875 -0.7309
   50CHL1  H27A 3698   5.487   1.527   8.691  0.9617  3.1130 -0.9256
   50CHL1  H27B 3699   5.522   1.407   8.570  2.3510 -0.1105  0.1202
   50CHL1  H27C 3700   5.658   1.485   8.635  0.3983  0.0825 -0.4573
   51CHL1    C3 3701   2.272   1.446   7.095  0.3163  0.1014  0.0137
   51CHL1    H3 3702   2.338   1.536   7.100 -0.0904  0.4016  0.0575
   51CHL1    O3 3703   2.197   1.458   6.970 -0.0334 -0.8561 -0.8296
   51CHL1   H3' 3704   2.116   1.504   6.993  0.4080 -0.9252  0.9941
   51CHL1    C4 3705   2.366   1.322   7.082 -0.4442  0.1602 -0.2833
   51CHL1   H4A 3706   2.298   1.243   7.044 -0.0462 -0.0720 -0.5130
   51CHL1   H4B 3707   2.444   1.343   7.005 -0.5373 -1.3480 -0.8241
   51CHL1    C5 3708   2.436   1.279   7.211  0.5928  0.8158  0.3321
   51CHL1    C6 3709   2.565   1.239   7.211  0.4893  0.6360  0.3163
   51CHL1    H6 3710   2.622   1.227   7.117  2.3541 -1.2324  1.5834
   51CHL1    C7 3711   2.641   1.196   7.334  0.2689  0.0613  0.0515
   51CHL1   H7A 3712   2.690   1.097   7.318 -0.8720 -1.2586  3.7094
   51CHL1   H7B 3713   2.716   1.270   7.369  0.0117  0.1393  0.4422
   51CHL1    C8 3714   2.555   1.173   7.462 -0.5916  1.0381 -0.0217
   51CHL1    H8 3715   2.504   1.074   7.451  2.6466 -0.5639 -2.4928
   51CHL1   C14 3716   2.634   1.171   7.594  0.4994  0.7492 -0.8344
   51CHL1   H14 3717   2.673   1.275   7.597 -0.3621  1.2110 -3.2206
   51CHL1   C15 3718   2.757   1.083   7.614 -0.0961 -1.1743 -1.2185
   51CHL1  H15A 3719   2.734   0.985   7.568 -3.4664 -1.2002  0.2606
   51CHL1  H15B 3720   2.853   1.122   7.573  1.0974 -0.5560  1.8646
   51CHL1   C16 3721   2.771   1.070   7.768  0.1311  0.6851 -0.3262
   51CHL1  H16A 3722   2.756   0.971   7.816  0.7186  0.1785 -1.1515
   51CHL1  H16B 3723   2.872   1.100   7.804  0.2946 -1.8687  1.6429
   51CHL1   C17 3724   2.657   1.164   7.832 -0.0111  0.0989  0.3576
   51CHL1   H17 3725   2.700   1.267   7.837 -0.9535  0.4834  0.9207
   51CHL1   C13 3726   2.547   1.165   7.728  0.0732  0.1936 -0.1217
   51CHL1   C18 3727   2.478   1.029   7.733  0.0991  0.1596  0.2189
   51CHL1  H18A 3728   2.435   1.017   7.834  1.4671  4.1306  1.4720
   51CHL1  H18B 3729   2.395   1.014   7.660 -0.9825  0.7211  1.2998
   51CHL1  H18C 3730   2.553   0.947   7.735 -2.3719 -2.3345 -1.3845
   51CHL1   C12 3731   2.452   1.285   7.723 -0.2054  0.0382 -0.7301
   51CHL1  H12A 3732   2.388   1.272   7.813  2.1921  0.1710  1.1167
   51CHL1  H12B 3733   2.519   1.373   7.733 -1.1126  0.7272 -0.5851
   51CHL1   C11 3734   2.365   1.291   7.600 -0.2695  1.0167 -0.3256
   51CHL1  H11A 3735   2.294   1.207   7.608  0.8568  0.1252  0.6550
   51CHL1  H11B 3736   2.310   1.388   7.597 -0.4778  0.8847 -1.5166
   51CHL1    C9 3737   2.447   1.281   7.465 -0.6513  0.2581 -0.7545
   51CHL1    H9 3738   2.507   1.375   7.470 -1.3486  0.6423  0.9877
   51CHL1   C10 3739   2.356   1.285   7.340 -0.4492 -0.4755  0.7676
   51CHL1   C19 3740   2.272   1.158   7.345  0.6335  0.5317  0.2971
   51CHL1  H19A 3741   2.183   1.168   7.411  0.2333  0.4433 -0.2190
   51CHL1  H19B 3742   2.226   1.141   7.245  2.7177 -2.5561 -0.2941
   51CHL1  H19C 3743   2.324   1.063   7.372  0.1153  0.6146  1.6549
   51CHL1    C1 3744   2.270   1.414   7.348 -0.3281 -0.2526  0.2797
   51CHL1   H1A 3745   2.204   1.408   7.437 -0.1757  0.2832  0.4320
   51CHL1   H1B 3746   2.331   1.505   7.366 -0.0887 -0.5069  0.7729
   51CHL1    C2 3747   2.183   1.436   7.218  0.2237  0.2215  0.3069
   51CHL1   H2A 3748   2.115   1.524   7.215  0.1846  0.2268  1.1925
   51CHL1   H2B 3749   2.118   1.346   7.206  1.0243 -0.4199  0.6831
   51CHL1   C20 3750   2.612   1.132   7.981 -0.4712  0.2931  0.3405
   51CHL1   H20 3751   2.567   1.030   7.982  1.3406 -0.7179 -3.2253
   51CHL1   C21 3752   2.524   1.239   8.035  0.0281 -0.4766 -0.1230
   51CHL1  H21A 3753   2.418   1.230   8.005 -0.7654  0.9639  1.9924
   51CHL1  H21B 3754   2.555   1.343   8.016 -0.4287 -0.0593  1.2716
   51CHL1  H21C 3755   2.526   1.234   8.146  3.9455  2.9247  0.1813
   51CHL1   C22 3756   2.740   1.111   8.066  0.0136  0.0967 -0.0658
   51CHL1  H22A 3757   2.791   1.019   8.033 -3.3204 -1.9329 -0.0684
   51CHL1  H22B 3758   2.796   1.205   8.047 -0.1116  0.3177  0.6284
   51CHL1   C23 3759   2.729   1.091   8.221 -0.6199 -0.4663  0.7681
   51CHL1  H23A 3760   2.834   1.077   8.253 -0.8102 -1.5119  0.9665
   51CHL1  H23B 3761   2.694   1.180   8.278 -1.0542 -0.4858  0.5321
   51CHL1   C24 3762   2.642   0.977   8.258 -0.1462  0.3182 -0.1043
   51CHL1  H24A 3763   2.538   1.015   8.243 -0.6989 -0.5967  1.2649
   51CHL1  H24B 3764   2.657   0.890   8.191  1.0763 -0.9871  1.7749
   51CHL1   C25 3765   2.665   0.911   8.396  0.6917 -0.0188  0.0227
   51CHL1   H25 3766   2.776   0.905   8.401  0.6149 -2.4931  0.0009
   51CHL1   C26 3767   2.616   0.991   8.516  0.4217  0.0892  0.5612
   51CHL1  H26A 3768   2.505   0.986   8.522  0.3525  2.0470  1.6815
   51CHL1  H26B 3769   2.660   0.948   8.608  0.4240  0.6160  0.8088
   51CHL1  H26C 3770   2.641   1.099   8.508  0.6542  0.0351  0.5681
   51CHL1   C27 3771   2.622   0.767   8.399  0.5814  0.0049 -0.6816
   51CHL1  H27A 3772   2.511   0.768   8.393  0.2959  4.1684  1.3748
   51CHL1  H27B 3773   2.673   0.718   8.314 -1.3438  4.3381 -4.8249
   51CHL1  H27C 3774   2.649   0.726   8.498  1.3540  0.9729 -0.4749
   52CHL1    C3 3775   1.180   2.006   6.790 -0.5597  0.4765 -0.0022
   52CHL1    H3 3776   1.266   2.073   6.810 -0.8371  0.7430  0.3077
   52CHL1    O3 3777   1.156   2.019   6.649  0.0094  0.7937 -0.4369
   52CHL1   H3' 3778   1.123   2.109   6.645  0.2395  1.1695  3.0742
   52CHL1    C4 3779   1.217   1.866   6.827 -0.1583  0.0259 -0.3512
   52CHL1   H4A 3780   1.144   1.791   6.789 -0.2443 -0.3354  0.4969
   52CHL1   H4B 3781   1.312   1.844   6.773  1.0689  0.9785  1.3074
   52CHL1    C5 3782   1.228   1.831   6.972 -0.7855  0.0838  0.5296
   52CHL1    C6 3783   1.342   1.778   7.023  0.2058 -0.3857  1.3520
   52CHL1    H6 3784   1.426   1.757   6.955 -1.3823 -0.1448 -0.7934
   52CHL1    C7 3785   1.367   1.762   7.172 -0.1127  0.5804 -0.0467
   52CHL1   H7A 3786   1.411   1.661   7.178 -1.2818  0.0312 -0.5257
   52CHL1   H7B 3787   1.447   1.833   7.201  0.3478 -0.0071  0.1305
   52CHL1    C8 3788   1.241   1.768   7.257  0.5272  0.2665  0.2383
   52CHL1    H8 3789   1.180   1.677   7.240 -0.6680  1.3541 -1.7645
   52CHL1   C14 3790   1.272   1.797   7.409 -0.3323 -0.2040  0.3394
   52CHL1   H14 3791   1.309   1.902   7.404 -0.6130 -0.0849  0.7238
   52CHL1   C15 3792   1.383   1.708   7.462 -0.2627  0.5584  0.4565
   52CHL1  H15A 3793   1.350   1.602   7.457  0.5510  0.3133  0.0819
   52CHL1  H15B 3794   1.484   1.711   7.415 -0.5725  2.8038 -0.1696
   52CHL1   C16 3795   1.378   1.746   7.610  0.0739  0.0979 -0.5315
   52CHL1  H16A 3796   1.391   1.648   7.662 -0.8165 -0.0545 -0.5937
   52CHL1  H16B 3797   1.459   1.820   7.629 -1.0874  1.2603  0.0696
   52CHL1   C17 3798   1.243   1.823   7.636 -0.2184  0.0037  0.4826
   52CHL1   H17 3799   1.274   1.929   7.639 -0.4295  0.0547  2.6716
   52CHL1   C13 3800   1.161   1.803   7.504  0.6440  0.5816 -0.3338
   52CHL1   C18 3801   1.093   1.665   7.512  0.2913 -0.2067 -0.3599
   52CHL1  H18A 3802   1.152   1.582   7.558 -0.2632 -0.6740 -0.4814
   52CHL1  H18B 3803   0.998   1.668   7.570 -2.0747 -0.0183 -3.9228
   52CHL1  H18C 3804   1.067   1.628   7.411 -0.0121 -2.4985  0.4975
   52CHL1   C12 3805   1.064   1.913   7.456  0.5878  0.7380 -0.0285
   52CHL1  H12A 3806   0.971   1.897   7.514 -0.5463 -0.8643 -2.1523
   52CHL1  H12B 3807   1.104   2.012   7.487 -1.0979  1.0727  1.2155
   52CHL1   C11 3808   1.033   1.912   7.308 -0.2387 -0.0892  0.4511
   52CHL1  H11A 3809   0.963   1.827   7.307 -0.8811  0.3830  2.1322
   52CHL1  H11B 3810   0.975   2.004   7.285 -1.5651 -1.2475 -0.9801
   52CHL1    C9 3811   1.152   1.890   7.217  0.2753  0.3952  0.5426
   52CHL1    H9 3812   1.222   1.976   7.228  0.6034  0.4497 -1.5428
   52CHL1   C10 3813   1.112   1.880   7.065  0.5877  0.2590 -0.2668
   52CHL1   C19 3814   0.995   1.788   7.043  0.6329  0.5430  0.2711
   52CHL1  H19A 3815   0.902   1.826   7.088  2.0842  3.4412  1.0328
   52CHL1  H19B 3816   0.967   1.764   6.938 -0.8422  0.4451  0.6690
   52CHL1  H19C 3817   1.012   1.683   7.077 -4.1783 -0.0019  1.6071
   52CHL1    C1 3818   1.076   2.019   7.013 -0.2386  0.1986 -1.1816
   52CHL1   H1A 3819   0.981   2.041   7.067  0.8552  1.1566  0.4226
   52CHL1   H1B 3820   1.154   2.089   7.048 -0.2412 -0.1631 -0.4412
   52CHL1    C2 3821   1.056   2.052   6.869  0.1514  0.4060  0.7964
   52CHL1   H2A 3822   1.042   2.162   6.858  1.0072  0.3632 -1.1995
   52CHL1   H2B 3823   0.974   1.990   6.828  0.8384 -0.7992  1.1951
   52CHL1   C20 3824   1.171   1.799   7.773  0.3840 -0.0245 -0.1722
   52CHL1   H20 3825   1.130   1.696   7.765  2.1054 -0.6411 -1.7098
   52CHL1   C21 3826   1.067   1.909   7.786 -0.2182  0.0853  0.2498
   52CHL1  H21A 3827   1.107   2.012   7.790  1.0843 -0.4267  2.7252
   52CHL1  H21B 3828   1.013   1.901   7.883  0.5426  1.1464  0.7741
   52CHL1  H21C 3829   0.993   1.893   7.704  0.4371 -1.0713 -0.1393
   52CHL1   C22 3830   1.275   1.802   7.890  0.7180  0.2542  0.1817
   52CHL1  H22A 3831   1.336   1.710   7.876 -2.8427 -2.2888 -0.0467
   52CHL1  H22B 3832   1.323   1.902   7.896 -0.0621  0.5821  1.3767
   52CHL1   C23 3833   1.221   1.784   8.035 -0.3024 -0.3369  0.1577
   52CHL1  H23A 3834   1.180   1.884   8.063  1.3941  1.1417 -2.2327
   52CHL1  H23B 3835   1.141   1.708   8.032 -0.3253 -0.4601  2.2876
   52CHL1   C24 3836   1.340   1.736   8.120  0.0596  0.0579 -0.7829
   52CHL1  H24A 3837   1.392   1.649   8.075  1.8015  1.7272 -2.1908
   52CHL1  H24B 3838   1.412   1.821   8.118 -0.8634  0.8371 -1.8014
   52CHL1   C25 3839   1.306   1.716   8.268  0.5434  0.1866 -0.1270
   52CHL1   H25 3840   1.225   1.640   8.275  2.4768 -1.8594  2.3347
   52CHL1   C26 3841   1.415   1.665   8.366  0.2013  0.0533  0.1543
   52CHL1  H26A 3842   1.472   1.753   8.401 -1.2633  1.6260 -1.2037
   52CHL1  H26B 3843   1.357   1.622   8.450 -1.7736 -0.3906 -1.3561
   52CHL1  H26C 3844   1.481   1.591   8.316 -0.2684 -1.4054  1.6096
   52CHL1   C27 3845   1.246   1.852   8.322 -0.5925 -0.2751 -0.4544
   52CHL1  H27A 3846   1.139   1.865   8.294 -0.7217  0.9432  0.5228
   52CHL1  H27B 3847   1.246   1.850   8.433  0.5057  1.9237 -0.3599
   52CHL1  H27C 3848   1.304   1.938   8.283 -0.0760 -0.6321 -0.4835
   53CHL1    C3 3849   6.184   5.605   7.059  0.2560  0.0137  0.0268
   53CHL1    H3 3850   6.095   5.671   7.068  0.6294  1.0235 -2.6911
   53CHL1    O3 3851   6.210   5.607   6.922  0.2269  0.3248 -0.3305
   53CHL1   H3' 3852   6.135   5.564   6.879 -0.5137 -0.4366  1.6307
   53CHL1    C4 3853   6.303   5.659   7.140  0.6414 -0.0165  0.0951
   53CHL1   H4A 3854   6.387   5.593   7.109  0.0120 -0.8181  0.0564
   53CHL1   H4B 3855   6.317   5.760   7.095 -1.8008  0.9341  1.2899
   53CHL1    C5 3856   6.266   5.668   7.290 -0.5330  0.5732 -0.7080
   53CHL1    C6 3857   6.259   5.790   7.352  0.2682 -0.6886  0.1478
   53CHL1    H6 3858   6.272   5.883   7.296  2.1362 -1.9630 -1.6650
   53CHL1    C7 3859   6.211   5.806   7.495  0.1261 -0.6400  1.4091
   53CHL1   H7A 3860   6.267   5.894   7.533 -0.0360  0.8223 -1.4656
   53CHL1   H7B 3861   6.105   5.840   7.495 -0.0926 -1.1352  3.6925
   53CHL1    C8 3862   6.238   5.677   7.578  0.0926 -0.5040  0.3531
   53CHL1    H8 3863   6.348   5.669   7.586  0.1476 -0.6254 -0.4754
   53CHL1   C14 3864   6.166   5.696   7.708 -0.5320 -0.6114  0.2413
   53CHL1   H14 3865   6.062   5.717   7.675  0.2766  0.9811 -1.4411
   53CHL1   C15 3866   6.198   5.829   7.786 -0.1872  0.5922  0.8004
   53CHL1  H15A 3867   6.306   5.853   7.773  0.7728 -2.3282  2.4558
   53CHL1  H15B 3868   6.142   5.917   7.749 -2.7237 -0.1614  2.5447
   53CHL1   C16 3869   6.160   5.789   7.925  0.4276  0.2370 -0.3303
   53CHL1  H16A 3870   6.251   5.811   7.986  0.2562  1.5910 -0.5232
   53CHL1  H16B 3871   6.081   5.861   7.955 -0.9363 -1.8070  1.1969
   53CHL1   C17 3872   6.098   5.648   7.936  0.3374  0.1830 -0.0696
   53CHL1   H17 3873   5.990   5.636   7.913  0.4331  0.1783 -0.5245
   53CHL1   C13 3874   6.168   5.588   7.811  0.0563  0.2661  0.4772
   53CHL1   C18 3875   6.317   5.557   7.838  0.6865 -0.2315 -0.2442
   53CHL1  H18A 3876   6.321   5.464   7.898 -2.2404 -1.7087 -2.1391
   53CHL1  H18B 3877   6.359   5.525   7.741  0.3964  1.3383 -0.9292
   53CHL1  H18C 3878   6.380   5.643   7.871  0.1646  0.3988 -0.8647
   53CHL1   C12 3879   6.099   5.467   7.741  0.0313 -0.6946 -1.7630
   53CHL1  H12A 3880   6.103   5.373   7.801 -0.2265  1.3577  1.7171
   53CHL1  H12B 3881   5.994   5.502   7.733 -0.1620  0.5298  3.2762
   53CHL1   C11 3882   6.158   5.430   7.594 -0.1632 -0.1407 -0.0809
   53CHL1  H11A 3883   6.253   5.377   7.616 -1.4240 -1.5104  2.4842
   53CHL1  H11B 3884   6.090   5.358   7.545  0.4383 -0.5833 -0.2703
   53CHL1    C9 3885   6.171   5.558   7.507  0.0035 -0.1220 -0.1283
   53CHL1    H9 3886   6.068   5.588   7.476  0.3972  1.1182 -0.2720
   53CHL1   C10 3887   6.226   5.527   7.361 -0.6971  0.0614  0.2657
   53CHL1   C19 3888   6.361   5.439   7.376  0.3981 -0.6083 -0.0971
   53CHL1  H19A 3889   6.417   5.437   7.280 -0.8504  1.2112 -0.9294
   53CHL1  H19B 3890   6.411   5.474   7.469 -1.8424 -0.5133  1.1542
   53CHL1  H19C 3891   6.334   5.333   7.393  1.6700 -0.7316  1.3781
   53CHL1    C1 3892   6.116   5.468   7.269 -0.4445 -0.1410  0.4781
   53CHL1   H1A 3893   6.093   5.368   7.312 -1.9358  0.2760  0.7045
   53CHL1   H1B 3894   6.017   5.518   7.276 -1.0775 -1.3629  0.5757
   53CHL1    C2 3895   6.153   5.465   7.111  0.4757  0.3822 -0.0857
   53CHL1   H2A 3896   6.062   5.428   7.061 -0.2949  0.5684  1.1381
   53CHL1   H2B 3897   6.236   5.394   7.090 -0.3355 -1.0322  1.2647
   53CHL1   C20 3898   6.124   5.577   8.077  0.7702  0.4301  0.0296
   53CHL1   H20 3899   6.229   5.585   8.112  0.2837  0.3444  1.5922
   53CHL1   C21 3900   6.084   5.431   8.065  0.6418  0.2923  0.1176
   53CHL1  H21A 3901   6.073   5.386   8.166 -1.4754  1.5436  0.5105
   53CHL1  H21B 3902   6.145   5.362   8.004 -0.0339 -1.7937  1.6486
   53CHL1  H21C 3903   5.979   5.415   8.031 -0.0658 -2.9789  3.1870
   53CHL1   C22 3904   6.037   5.648   8.185 -0.2429  0.0792 -0.6242
   53CHL1  H22A 3905   6.077   5.751   8.186  0.2288 -0.0961  0.6339
   53CHL1  H22B 3906   5.930   5.633   8.157 -0.1957 -0.0113 -0.7601
   53CHL1   C23 3907   6.063   5.587   8.327  0.3110  0.2571  0.0721
   53CHL1  H23A 3908   6.013   5.489   8.345 -0.0082  0.2602 -0.7408
   53CHL1  H23B 3909   6.171   5.572   8.349  0.1416 -0.8942  0.1578
   53CHL1   C24 3910   5.996   5.679   8.435  0.1040 -0.0107  0.0618
   53CHL1  H24A 3911   6.049   5.776   8.430 -1.1713  0.6976 -0.0120
   53CHL1  H24B 3912   5.894   5.713   8.406  1.3713  2.4959 -1.7759
   53CHL1   C25 3913   5.998   5.612   8.571 -0.2508 -0.4058 -0.0069
   53CHL1   H25 3914   5.975   5.505   8.553 -1.1175 -0.3686  0.8115
   53CHL1   C26 3915   6.138   5.610   8.638 -0.6045 -0.1136 -0.5136
   53CHL1  H26A 3916   6.162   5.718   8.649  2.4823 -0.6374 -1.2588
   53CHL1  H26B 3917   6.129   5.558   8.736 -1.0809 -3.3617 -2.1324
   53CHL1  H26C 3918   6.220   5.566   8.578  0.3033 -0.2669  0.7954
   53CHL1   C27 3919   5.893   5.676   8.667 -0.0234  0.5475 -0.1633
   53CHL1  H27A 3920   5.794   5.699   8.622 -1.3290 -0.8247  1.8721
   53CHL1  H27B 3921   5.876   5.596   8.742 -2.7152  0.6128 -0.6078
   53CHL1  H27C 3922   5.931   5.775   8.700  0.0726  0.6750 -0.6373
   54CHL1    C3 3923   5.179   5.722   7.227  0.2296 -0.5340 -0.1836
   54CHL1    H3 3924   5.072   5.701   7.206  0.2325 -0.9611  0.2080
   54CHL1    O3 3925   5.234   5.757   7.102  0.0013 -0.8773  0.0665
   54CHL1   H3' 3926   5.222   5.680   7.045  0.2649 -0.3107 -0.7671
   54CHL1    C4 3927   5.185   5.846   7.321  0.3272 -0.9732  0.4042
   54CHL1   H4A 3928   5.293   5.875   7.321 -0.0698  0.6385  2.0843
   54CHL1   H4B 3929   5.120   5.921   7.273 -0.9433 -2.3921 -0.1819
   54CHL1    C5 3930   5.150   5.806   7.462  0.0175 -0.1175 -0.0417
   54CHL1    C6 3931   5.060   5.879   7.532 -0.9800  0.3472 -0.9755
   54CHL1    H6 3932   5.011   5.967   7.488 -0.8995  1.0864  0.3667
   54CHL1    C7 3933   5.016   5.840   7.670 -0.2542  0.0330  0.9444
   54CHL1   H7A 3934   4.997   5.929   7.734  1.1983  0.9219  0.2050
   54CHL1   H7B 3935   4.923   5.782   7.656 -1.3331  1.9148 -0.0959
   54CHL1    C8 3936   5.121   5.751   7.747 -0.0578  0.0116  0.4223
   54CHL1    H8 3937   5.215   5.805   7.769  1.3071 -0.4686 -3.4847
   54CHL1   C14 3938   5.064   5.689   7.881 -0.0785 -0.7296  0.0251
   54CHL1   H14 3939   4.975   5.635   7.841 -0.3995 -0.4781  0.3925
   54CHL1   C15 3940   5.008   5.781   7.991  0.0931 -0.0554 -0.6351
   54CHL1  H15A 3941   5.069   5.874   7.987  0.5139 -0.2744  0.3838
   54CHL1  H15B 3942   4.902   5.813   7.983  0.4956  2.3961  2.2211
   54CHL1   C16 3943   5.040   5.714   8.122 -0.3948 -0.1931  0.0906
   54CHL1  H16A 3944   5.126   5.761   8.175 -0.1255 -1.0968  0.4717
   54CHL1  H16B 3945   4.956   5.702   8.194  0.9226 -0.5530  1.6073
   54CHL1   C17 3946   5.079   5.568   8.086  0.0444  0.2312 -0.8478
   54CHL1   H17 3947   4.986   5.515   8.060 -0.1327  0.2528 -0.2740
   54CHL1   C13 3948   5.158   5.594   7.953  0.0651 -0.0213  0.4833
   54CHL1   C18 3949   5.293   5.659   7.984 -0.1865 -0.1749  0.6690
   54CHL1  H18A 3950   5.348   5.676   7.889 -1.5852 -0.6669 -0.2666
   54CHL1  H18B 3951   5.275   5.760   8.027 -3.7293  0.6940 -2.2735
   54CHL1  H18C 3952   5.356   5.592   8.047 -1.7680 -1.8987  0.5058
   54CHL1   C12 3953   5.184   5.474   7.857  0.2810 -0.1508  0.2440
   54CHL1  H12A 3954   5.260   5.403   7.898  0.3660  0.0181  0.3795
   54CHL1  H12B 3955   5.090   5.417   7.847  1.0876 -1.2841 -1.2743
   54CHL1   C11 3956   5.236   5.517   7.714 -0.7063  1.0247 -0.4689
   54CHL1  H11A 3957   5.344   5.529   7.735 -0.4510 -1.3460 -0.1112
   54CHL1  H11B 3958   5.224   5.433   7.643 -3.8959  2.4502 -1.8367
   54CHL1    C9 3959   5.157   5.636   7.650 -0.0205 -0.0017  0.5388
   54CHL1    H9 3960   5.054   5.605   7.623  0.4502  0.4693 -2.0579
   54CHL1   C10 3961   5.218   5.682   7.516 -0.3870  0.3200  0.2342
   54CHL1   C19 3962   5.366   5.722   7.532  0.0271 -0.3503  0.8840
   54CHL1  H19A 3963   5.408   5.780   7.447 -2.1135  0.4513  0.2882
   54CHL1  H19B 3964   5.391   5.789   7.617  1.8832 -0.9841  0.8855
   54CHL1  H19C 3965   5.424   5.629   7.546 -1.3613 -1.2679  0.7351
   54CHL1    C1 3966   5.198   5.562   7.419 -0.1596  0.6943 -0.0500
   54CHL1   H1A 3967   5.268   5.481   7.448 -0.8982  0.1860  0.3675
   54CHL1   H1B 3968   5.093   5.524   7.419 -0.6498  2.0088 -0.2788
   54CHL1    C2 3969   5.233   5.588   7.274  0.4407 -0.2891 -0.1372
   54CHL1   H2A 3970   5.207   5.513   7.196  1.1341  1.7725 -2.4814
   54CHL1   H2B 3971   5.344   5.581   7.272  0.5164 -1.1954  2.6890
   54CHL1   C20 3972   5.152   5.497   8.202  0.5777 -0.5296  0.4628
   54CHL1   H20 3973   5.246   5.553   8.223 -0.1243  0.3629  1.3396
   54CHL1   C21 3974   5.189   5.350   8.169  0.1653  0.3978  0.4414
   54CHL1  H21A 3975   5.264   5.334   8.088  1.9251 -0.5272  2.1770
   54CHL1  H21B 3976   5.100   5.299   8.127 -0.4391  1.4821  0.3656
   54CHL1  H21C 3977   5.224   5.302   8.262  0.2602  1.0129  0.7289
   54CHL1   C22 3978   5.072   5.499   8.338  0.0030  0.0332 -0.0021
   54CHL1  H22A 3979   5.132   5.442   8.412 -1.6821 -2.0812 -0.1368
   54CHL1  H22B 3980   5.063   5.605   8.367  2.1239  0.2914 -0.1635
   54CHL1   C23 3981   4.930   5.434   8.332 -0.0193  1.2612 -0.2666
   54CHL1  H23A 3982   4.866   5.502   8.270 -0.2902  3.2652  2.0479
   54CHL1  H23B 3983   4.935   5.333   8.287  2.3226  1.0042  0.4583
   54CHL1   C24 3984   4.865   5.422   8.472 -0.5401 -0.3781 -0.8647
   54CHL1  H24A 3985   4.933   5.364   8.537 -0.6026  2.1851  1.7029
   54CHL1  H24B 3986   4.840   5.521   8.516 -0.4381 -0.3782 -0.8086
   54CHL1   C25 3987   4.720   5.358   8.470 -0.9952 -0.0143 -0.9291
   54CHL1   H25 3988   4.678   5.351   8.572 -0.9262  0.5455 -0.8579
   54CHL1   C26 3989   4.623   5.446   8.390  0.3664  0.3471 -0.1055
   54CHL1  H26A 3990   4.589   5.545   8.428 -2.2527  0.0358 -1.4019
   54CHL1  H26B 3991   4.669   5.449   8.289 -1.0778  0.5480 -0.7776
   54CHL1  H26C 3992   4.536   5.380   8.369  1.7932 -1.5247 -0.4554
   54CHL1   C27 3993   4.735   5.213   8.421 -0.3836 -0.2533  0.5456
   54CHL1  H27A 3994   4.778   5.207   8.318  0.4352 -0.0007  0.8700
   54CHL1  H27B 3995   4.808   5.172   8.494 -0.4355 -1.2074  0.0752
   54CHL1  H27C 3996   4.632   5.171   8.421 -0.2698 -0.8996 -3.3291
   55CHL1    C3 3997   5.779   6.288   6.970  0.3322  0.0163 -0.0278
   55CHL1    H3 3998   5.722   6.381   6.986  2.1137  0.7046  3.0547
   55CHL1    O3 3999   5.768   6.244   6.835 -0.0144 -0.8042  0.1494
   55CHL1   H3' 4000   5.814   6.160   6.836  0.8122 -0.3537  0.7541
   55CHL1    C4 4001   5.929   6.297   7.012  0.5897 -0.0915 -0.7809
   55CHL1   H4A 4002   5.967   6.197   6.983  1.7239  0.1706 -0.2559
   55CHL1   H4B 4003   5.985   6.368   6.947  2.1904 -1.4652 -0.9693
   55CHL1    C5 4004   5.959   6.325   7.160 -0.0637 -0.1191  0.2553
   55CHL1    C6 4005   6.041   6.432   7.185  0.2095 -0.3189  0.1067
   55CHL1    H6 4006   6.090   6.492   7.108  0.4207 -0.3789  0.1953
   55CHL1    C7 4007   6.072   6.480   7.329  0.0596  0.6157  0.3354
   55CHL1   H7A 4008   6.181   6.482   7.349 -0.3979 -0.3919  3.5734
   55CHL1   H7B 4009   6.032   6.582   7.350 -0.4568  0.2013  1.4617
   55CHL1    C8 4010   6.015   6.382   7.433 -0.2168  0.1101 -0.5654
   55CHL1    H8 4011   6.085   6.297   7.444 -0.1304  0.2894  0.3298
   55CHL1   C14 4012   6.009   6.438   7.584  0.1684  0.5171  0.0192
   55CHL1   H14 4013   5.932   6.517   7.573 -0.2525  0.1153  0.0174
   55CHL1   C15 4014   6.128   6.519   7.630  0.4318 -0.0562 -0.4311
   55CHL1  H15A 4015   6.223   6.464   7.611  0.9541  0.9069 -0.7064
   55CHL1  H15B 4016   6.153   6.613   7.577  2.6926 -1.2336 -1.6216
   55CHL1   C16 4017   6.103   6.543   7.779 -0.9185  0.4840 -0.4422
   55CHL1  H16A 4018   6.184   6.516   7.850  0.2238 -2.2633 -2.5859
   55CHL1  H16B 4019   6.068   6.648   7.789 -1.4287  0.4435 -1.7076
   55CHL1   C17 4020   5.975   6.453   7.813  0.7580  0.2633  0.5532
   55CHL1   H17 4021   5.893   6.529   7.807 -0.1645 -0.6325  1.4728
   55CHL1   C13 4022   5.959   6.347   7.701 -0.4512 -0.0305 -0.5512
   55CHL1   C18 4023   6.058   6.234   7.726 -0.5265  0.2664 -0.2836
   55CHL1  H18A 4024   6.083   6.173   7.637 -1.2153  0.8919 -0.9227
   55CHL1  H18B 4025   6.154   6.258   7.776  0.7319  0.3266 -2.6374
   55CHL1  H18C 4026   6.007   6.157   7.788 -0.0287 -0.1651 -0.4122
   55CHL1   C12 4027   5.827   6.293   7.656 -0.3673 -0.5186  0.2941
   55CHL1  H12A 4028   5.778   6.228   7.732 -0.0961 -1.4482 -0.3075
   55CHL1  H12B 4029   5.761   6.381   7.644  2.0165  1.3371  0.0586
   55CHL1   C11 4030   5.833   6.224   7.518  0.2352  0.6765  1.0994
   55CHL1  H11A 4031   5.895   6.132   7.524 -0.6604 -0.2943 -2.3228
   55CHL1  H11B 4032   5.729   6.206   7.483  0.9832  0.0172 -0.9170
   55CHL1    C9 4033   5.881   6.318   7.399  0.3479 -0.1819 -0.6550
   55CHL1    H9 4034   5.815   6.407   7.401  0.6867  0.0613 -0.1359
   55CHL1   C10 4035   5.880   6.243   7.266  0.2348 -0.4776  0.4197
   55CHL1   C19 4036   5.939   6.104   7.274 -0.3935  0.2574 -0.7977
   55CHL1  H19A 4037   5.872   6.032   7.326 -0.5397  0.5235 -0.6227
   55CHL1  H19B 4038   5.980   6.059   7.180  1.6783 -2.5306  1.2285
   55CHL1  H19C 4039   6.032   6.114   7.334  0.0221  1.4292 -1.5934
   55CHL1    C1 4040   5.729   6.234   7.218  0.2065  0.3320  0.0163
   55CHL1   H1A 4041   5.679   6.153   7.276  1.1336 -1.2653 -1.3212
   55CHL1   H1B 4042   5.678   6.332   7.230 -1.9274 -0.6117 -0.8638
   55CHL1    C2 4043   5.714   6.188   7.068  0.8365 -0.0094 -0.1914
   55CHL1   H2A 4044   5.608   6.173   7.037  0.6008  0.9030  0.1255
   55CHL1   H2B 4045   5.772   6.094   7.056 -0.1143 -0.5462 -0.7155
   55CHL1   C20 4046   5.962   6.408   7.961 -0.1003 -0.6496 -0.1779
   55CHL1   H20 4047   6.053   6.348   7.981 -1.1119 -1.6374  1.6432
   55CHL1   C21 4048   5.830   6.330   7.971  0.2776 -0.4563 -0.4106
   55CHL1  H21A 4049   5.744   6.391   7.937  1.6265  3.5266  2.5947
   55CHL1  H21B 4050   5.797   6.312   8.075  0.3915  1.0706 -0.0905
   55CHL1  H21C 4051   5.840   6.228   7.928  0.5647 -0.7655  0.3897
   55CHL1   C22 4052   5.964   6.533   8.054  0.1061 -0.0189  0.4865
   55CHL1  H22A 4053   6.063   6.578   8.033  1.0876 -1.9732  0.7462
   55CHL1  H22B 4054   5.887   6.603   8.016  1.8242  1.0545 -1.1797
   55CHL1   C23 4055   5.953   6.504   8.204 -0.1633  0.4551  0.8298
   55CHL1  H23A 4056   5.865   6.438   8.222 -0.0173 -0.5021 -1.5684
   55CHL1  H23B 4057   6.040   6.437   8.219 -0.2008  0.1050 -0.3721
   55CHL1   C24 4058   5.968   6.638   8.288  0.5003  0.5278 -0.0568
   55CHL1  H24A 4059   6.020   6.613   8.384  1.2219  0.6938 -0.4034
   55CHL1  H24B 4060   6.029   6.707   8.226  0.1659  0.5520 -0.3624
   55CHL1   C25 4061   5.839   6.725   8.301 -0.3037  0.7573 -0.6270
   55CHL1   H25 4062   5.798   6.731   8.198 -0.6884  0.6293 -0.4819
   55CHL1   C26 4063   5.733   6.656   8.397  0.4297 -0.0595 -0.0709
   55CHL1  H26A 4064   5.710   6.552   8.365 -1.5937  0.3841 -0.2182
   55CHL1  H26B 4065   5.778   6.663   8.498  1.3897  2.6396 -0.6010
   55CHL1  H26C 4066   5.642   6.720   8.388 -0.4675 -1.5286 -2.1951
   55CHL1   C27 4067   5.876   6.867   8.347 -0.3366  0.0528  0.6833
   55CHL1  H27A 4068   5.941   6.927   8.279 -3.1532  1.2016 -1.1749
   55CHL1  H27B 4069   5.778   6.919   8.354 -0.6511 -0.1778 -1.4383
   55CHL1  H27C 4070   5.917   6.870   8.451 -1.0653 -2.0387  1.0887
   56CHL1    C3 4071   0.008   5.788   7.026  0.3319  0.6817  0.4260
   56CHL1    H3 4072  -0.017   5.896   7.037 -1.7902  0.3310 -0.5065
   56CHL1    O3 4073  -0.003   5.763   6.887  0.0512 -0.1441 -0.1142
   56CHL1   H3' 4074   0.060   5.692   6.872  3.4369  2.7750 -1.2014
   56CHL1    C4 4075   0.145   5.738   7.079  0.4741 -0.2565 -0.1957
   56CHL1   H4A 4076   0.163   5.638   7.035  1.2064 -0.1253 -0.1974
   56CHL1   H4B 4077   0.217   5.815   7.046  0.6722 -0.6514 -0.6873
   56CHL1    C5 4078   0.150   5.725   7.228 -0.6298  0.2029 -0.0426
   56CHL1    C6 4079   0.255   5.783   7.295  0.0915 -0.3190 -0.1395
   56CHL1    H6 4080   0.335   5.836   7.241  1.2633 -1.0722  0.7971
   56CHL1    C7 4081   0.270   5.771   7.440  0.0450  0.0675 -1.4112
   56CHL1   H7A 4082   0.368   5.728   7.471  0.1112  0.6192 -0.8310
   56CHL1   H7B 4083   0.259   5.871   7.488  1.2797 -1.2306  1.8709
   56CHL1    C8 4084   0.164   5.686   7.513 -0.4795  0.1165  0.4077
   56CHL1    H8 4085   0.195   5.583   7.485  0.1918 -0.2192  2.2484
   56CHL1   C14 4086   0.159   5.708   7.659 -0.2881 -0.1968 -0.1598
   56CHL1   H14 4087   0.125   5.812   7.674  1.2494  0.1744  1.0195
   56CHL1   C15 4088   0.288   5.695   7.736 -0.2522 -1.0643  0.5527
   56CHL1  H15A 4089   0.356   5.607   7.728  0.4478 -0.5853  1.0594
   56CHL1  H15B 4090   0.349   5.783   7.707 -1.7723 -0.8087 -2.1720
   56CHL1   C16 4091   0.241   5.703   7.885 -0.2825  0.1144  0.1431
   56CHL1  H16A 4092   0.292   5.620   7.938  0.1588  1.8337  2.6247
   56CHL1  H16B 4093   0.276   5.794   7.938 -0.2268  0.7333 -0.9382
   56CHL1   C17 4094   0.083   5.681   7.881  0.0126 -1.1950  0.0169
   56CHL1   H17 4095   0.050   5.787   7.884  0.0456 -1.2011  1.4925
   56CHL1   C13 4096   0.056   5.628   7.737  0.8838 -0.0915  0.2486
   56CHL1   C18 4097   0.090   5.477   7.731 -0.1878  0.3198  0.1910
   56CHL1  H18A 4098   0.002   5.438   7.786 -0.2247  0.9169  0.5735
   56CHL1  H18B 4099   0.103   5.429   7.632  0.3891  0.6080  0.1218
   56CHL1  H18C 4100   0.185   5.452   7.782 -0.2600 -0.9806 -0.2693
   56CHL1   C12 4101  -0.087   5.662   7.683 -0.2112  1.0333  0.3813
   56CHL1  H12A 4102  -0.158   5.591   7.731  1.2215 -1.8846 -1.4989
   56CHL1  H12B 4103  -0.116   5.765   7.712  2.3783  2.0683 -0.4313
   56CHL1   C11 4104  -0.085   5.628   7.533 -0.3224 -0.2419  0.6532
   56CHL1  H11A 4105  -0.075   5.518   7.516  4.2524 -0.1581  1.3642
   56CHL1  H11B 4106  -0.186   5.650   7.494 -0.8564 -3.2120  0.0830
   56CHL1    C9 4107   0.027   5.709   7.455 -0.5745  0.0808  0.7027
   56CHL1    H9 4108   0.009   5.818   7.457  3.8073  1.0614 -0.8644
   56CHL1   C10 4109   0.020   5.665   7.303 -0.1210 -0.8184 -0.2518
   56CHL1   C19 4110   0.031   5.512   7.272 -0.1276 -0.1847  0.4886
   56CHL1  H19A 4111  -0.069   5.466   7.284 -0.3679 -0.9269 -3.1378
   56CHL1  H19B 4112   0.065   5.481   7.171 -0.9058 -0.6265  0.3532
   56CHL1  H19C 4113   0.098   5.461   7.344  0.0899  0.3009  0.6332
   56CHL1    C1 4114  -0.105   5.718   7.245 -0.4655 -0.5232  0.0188
   56CHL1   H1A 4115  -0.196   5.685   7.298  1.3368 -2.1286  2.2979
   56CHL1   H1B 4116  -0.112   5.827   7.268  0.6342 -0.5017  0.3265
   56CHL1    C2 4117  -0.107   5.709   7.093  0.5762 -0.1037 -0.3907
   56CHL1   H2A 4118  -0.201   5.743   7.044  0.1397  0.7852  1.0008
   56CHL1   H2B 4119  -0.120   5.604   7.059 -1.2084 -0.0534  0.0524
   56CHL1   C20 4120   0.020   5.609   8.001  0.2001 -0.5864  0.1618
   56CHL1   H20 4121   0.013   5.504   7.964  0.7982 -0.3004 -0.7997
   56CHL1   C21 4122  -0.127   5.656   8.028 -0.0269  0.2996 -0.4961
   56CHL1  H21A 4123  -0.159   5.599   8.118 -0.9052 -1.3933 -1.8304
   56CHL1  H21B 4124  -0.190   5.642   7.938  1.7663 -3.0416 -1.4021
   56CHL1  H21C 4125  -0.127   5.765   8.050 -0.0311  0.3088 -0.5416
   56CHL1   C22 4126   0.088   5.617   8.138 -0.2338 -0.4562  0.1674
   56CHL1  H22A 4127   0.025   5.570   8.216 -1.5330  1.6540  0.4683
   56CHL1  H22B 4128   0.181   5.556   8.129  0.6109  1.0248 -2.0185
   56CHL1   C23 4129   0.127   5.747   8.205  0.1392  0.5023 -0.3291
   56CHL1  H23A 4130   0.207   5.804   8.154 -0.3998  0.5747 -1.1314
   56CHL1  H23B 4131   0.037   5.813   8.205  0.4777  0.9933  1.1702
   56CHL1   C24 4132   0.179   5.719   8.350 -0.8899 -0.4540  0.4154
   56CHL1  H24A 4133   0.176   5.819   8.399  1.7304  1.9565 -3.7496
   56CHL1  H24B 4134   0.113   5.641   8.393  1.1541 -3.1683 -1.0020
   56CHL1   C25 4135   0.324   5.656   8.375  0.5755 -0.9100  0.1553
   56CHL1   H25 4136   0.335   5.562   8.318 -0.9290 -0.5616 -0.7632
   56CHL1   C26 4137   0.425   5.762   8.330 -0.5877  0.0368 -0.2895
   56CHL1  H26A 4138   0.517   5.705   8.357  0.4670  0.2150 -3.1701
   56CHL1  H26B 4139   0.405   5.862   8.376 -1.3339  0.2909 -1.1408
   56CHL1  H26C 4140   0.423   5.755   8.219 -0.0952  0.2392 -0.3154
   56CHL1   C27 4141   0.333   5.629   8.525  0.2269 -0.1185 -0.1928
   56CHL1  H27A 4142   0.434   5.586   8.543 -0.6328 -1.5953  1.3315
   56CHL1  H27B 4143   0.338   5.723   8.584 -1.4236  1.0669 -1.8291
   56CHL1  H27C 4144   0.246   5.567   8.555 -0.1059 -0.3877 -1.6445
   57SAPC     N 4145   4.480   3.697  10.872 -0.3130  0.0632 -0.3155
   57SAPC   C12 4146   4.540   3.568  10.830 -0.2556  0.3021  0.0844
   57SAPC  H12A 4147   4.581   3.515  10.915 -0.9277 -3.2405 -1.6216
   57SAPC  H12B 4148   4.627   3.581  10.767 -1.0065  0.0530 -1.0374
   57SAPC   C13 4149   4.418   3.766  10.754  0.1633  0.1430  0.1138
   57SAPC  H13A 4150   4.498   3.794  10.687 -0.0330  0.8093  0.1492
   57SAPC  H13B 4151   4.343   3.705  10.706  0.7363 -0.6177  0.1816
   57SAPC  H13C 4152   4.367   3.846  10.805 -2.3756 -2.6840  2.3807
   57SAPC   C14 4153   4.367   3.680  10.970 -0.2113 -0.3243 -0.0428
   57SAPC  H14A 4154   4.296   3.607  10.934 -1.0670  1.9586 -3.5041
   57SAPC  H14B 4155   4.405   3.656  11.068  0.2670  0.9834  0.1040
   57SAPC  H14C 4156   4.313   3.770  10.993  1.7743  0.5306  1.6102
   57SAPC   C15 4157   4.582   3.789  10.932 -0.6299 -0.2612 -0.2251
   57SAPC  H15A 4158   4.664   3.793  10.862 -0.2882 -1.0457  0.1116
   57SAPC  H15B 4159   4.553   3.883  10.976  3.4756  1.7211 -1.2770
   57SAPC  H15C 4160   4.619   3.729  11.014 -1.2017  1.0017  0.9881
   57SAPC   C11 4161   4.452   3.463  10.764 -0.4574  0.6147 -0.3057
   57SAPC  H11A 4162   4.417   3.497  10.664  0.1669 -1.0692 -1.1570
   57SAPC  H11B 4163   4.369   3.441  10.833  0.6526  1.6086  1.4113
   57SAPC     P 4164   4.567   3.248  10.856 -0.2556  0.1351 -0.0382
   57SAPC   O13 4165   4.655   3.323  10.946  0.4140  0.3942 -0.1865
   57SAPC   O14 4166   4.443   3.193  10.916  0.0942 -0.0256  0.1108
   57SAPC   O12 4167   4.531   3.347  10.742  0.1072 -0.2314 -0.0001
   57SAPC   O11 4168   4.648   3.131  10.794 -0.6665 -0.6200 -0.2879
   57SAPC    C1 4169   4.733   3.130  10.680 -0.4346  0.5173  0.4672
   57SAPC    HA 4170   4.822   3.191  10.706  0.1828 -1.2909  3.0164
   57SAPC    HB 4171   4.774   3.027  10.667  1.5714  1.5873 -3.9404
   57SAPC    C2 4172   4.678   3.175  10.537  0.0245 -0.1301 -0.0498
   57SAPC    HS 4173   4.693   3.284  10.524  1.2949 -0.4861 -1.8905
   57SAPC   O21 4174   4.539   3.148  10.518  0.2196  0.4671 -0.0851
   57SAPC   C21 4175   4.473   3.221  10.429 -0.6696 -0.1536 -0.2312
   57SAPC   O22 4176   4.511   3.318  10.368  0.1355 -0.1368 -0.1263
   57SAPC   C22 4177   4.336   3.151  10.408 -0.1414  0.8005 -0.1127
   57SAPC   H2R 4178   4.348   3.043  10.383 -3.3951 -0.1440  1.7337
   57SAPC   H2S 4179   4.289   3.152  10.509  1.3763 -2.0621  0.7346
   57SAPC    C3 4180   4.765   3.111  10.421 -0.2934 -0.6583 -0.2819
   57SAPC    HX 4181   4.747   3.001  10.421  2.7036 -1.2514  0.0956
   57SAPC    HY 4182   4.873   3.121  10.443 -0.1854 -1.7451 -0.2367
   57SAPC   O31 4183   4.732   3.168  10.287 -0.1270 -0.3863 -0.1501
   57SAPC   C31 4184   4.785   3.287  10.249  0.5603  0.1890 -0.4675
   57SAPC   O32 4185   4.864   3.350  10.316 -0.3645 -0.4421 -0.5709
   57SAPC   C32 4186   4.733   3.325  10.112 -0.0559 -0.2738  1.0924
   57SAPC   H2X 4187   4.626   3.296  10.103  0.2173 -1.1688  0.5788
   57SAPC   H2Y 4188   4.786   3.261  10.038 -1.1682 -0.4184  0.3903
   57SAPC   C23 4189   4.248   3.226  10.301  0.1596  0.1488  0.0849
   57SAPC   H3R 4190   4.251   3.334  10.327 -1.5745  0.7819 -2.0610
   57SAPC   H3S 4191   4.146   3.190  10.325  0.2633 -1.4810 -1.6717
   57SAPC   C24 4192   4.280   3.190  10.152  0.3344  0.0719 -0.4121
   57SAPC   H4R 4193   4.218   3.100  10.130  0.0297 -0.4203  2.1529
   57SAPC   H4S 4194   4.389   3.171  10.138  0.0983 -2.2439  0.4598
   57SAPC   C25 4195   4.231   3.293  10.060  1.1352  0.1407  0.2962
   57SAPC   H5R 4196   4.155   3.364  10.095 -0.6497 -0.9201 -1.2571
   57SAPC   C26 4197   4.287   3.320   9.939  0.1374  0.1865  0.2566
   57SAPC   H6R 4198   4.256   3.412   9.886  1.9645 -0.4465 -2.1057
   57SAPC   C27 4199   4.389   3.246   9.854  0.4634  0.1017  0.1815
   57SAPC   H7R 4200   4.447   3.171   9.913 -2.0060 -1.3354  0.9422
   57SAPC   H7S 4201   4.457   3.318   9.803  0.5695 -2.1337 -3.1725
   57SAPC   C28 4202   4.314   3.155   9.758 -0.2083 -0.0849  0.0204
   57SAPC   H8R 4203   4.280   3.064   9.809  1.9280 -1.4804 -0.8938
   57SAPC   C29 4204   4.286   3.169   9.620  0.3262  0.2502 -0.7775
   57SAPC   H9R 4205   4.227   3.090   9.572 -0.4222  0.0428  0.4382
   57SAPC  C210 4206   4.322   3.287   9.536 -0.0170 -0.2368 -0.4291
   57SAPC  H10R 4207   4.375   3.360   9.601 -0.6490  1.3874 -1.6597
   57SAPC  H10S 4208   4.228   3.334   9.499 -1.1258 -1.0686  1.2185
   57SAPC  C211 4209   4.409   3.229   9.426  0.3065 -0.0749 -0.3659
   57SAPC  H11R 4210   4.501   3.180   9.463  0.5922  1.2864  0.8082
   57SAPC  C212 4211   4.375   3.223   9.296  0.7053 -0.1052  0.6159
   57SAPC  H12R 4212   4.442   3.167   9.229  0.4802 -0.1739  0.4454
   57SAPC  C213 4213   4.248   3.269   9.230  0.0242 -0.8552  0.4183
   57SAPC  H13R 4214   4.279   3.351   9.162 -3.3684 -0.3246 -0.7090
   57SAPC  H13S 4215   4.175   3.318   9.298 -0.1172 -0.1897 -0.2000
   57SAPC  C214 4216   4.177   3.154   9.154 -0.3671  0.0203  0.5638
   57SAPC  H14R 4217   4.168   3.055   9.200 -0.2321 -1.7647 -2.9083
   57SAPC  C215 4218   4.138   3.161   9.027  0.1078  0.5099 -0.3016
   57SAPC  H15R 4219   4.079   3.078   8.985  0.9613 -0.5741  0.5842
   57SAPC  C216 4220   4.132   3.275   8.933  0.3747  0.7408 -0.7115
   57SAPC  H16R 4221   4.170   3.368   8.981 -2.0609  1.1577  0.5733
   57SAPC  H16S 4222   4.027   3.290   8.900  0.3430  1.7340 -0.2083
   57SAPC  C217 4223   4.227   3.245   8.814  0.4906  0.7219 -0.2925
   57SAPC  H17R 4224   4.331   3.228   8.850  0.2357 -1.1696 -0.3164
   57SAPC  H17S 4225   4.230   3.336   8.751  0.6949  1.3325  0.5798
   57SAPC  C218 4226   4.178   3.117   8.737 -0.1757  0.2221  0.2709
   57SAPC  H18R 4227   4.068   3.131   8.726 -0.0591  2.4753  1.4125
   57SAPC  H18S 4228   4.207   3.025   8.791 -1.8905 -0.8869 -0.6073
   57SAPC  C219 4229   4.236   3.100   8.596 -0.3802 -0.3765  0.0127
   57SAPC  H19R 4230   4.202   3.186   8.534  1.1541  0.2777  0.0383
   57SAPC  H19S 4231   4.199   3.009   8.545 -1.8217  0.4365 -0.4626
   57SAPC  C220 4232   4.389   3.093   8.596 -0.3808 -0.4129 -0.7433
   57SAPC  H20R 4233   4.425   3.183   8.650  0.7967 -1.8592  1.0003
   57SAPC  H20S 4234   4.424   3.088   8.491  0.0967  0.2989 -0.6218
   57SAPC  H20T 4235   4.424   3.002   8.650 -0.6030  0.0715  0.2363
   57SAPC   C33 4236   4.740   3.474  10.078  0.7192 -0.2621 -0.1696
   57SAPC   H3X 4237   4.842   3.516  10.090  0.7566  0.2037 -1.7901
   57SAPC   H3Y 4238   4.683   3.529  10.155  2.0005  1.3014 -0.2980
   57SAPC   C34 4239   4.680   3.514   9.941  0.3381  0.1216  0.7510
   57SAPC   H4X 4240   4.685   3.624   9.928 -0.5939 -0.0489 -1.7431
   57SAPC   H4Y 4241   4.573   3.484   9.930  0.5007 -0.0465 -0.5548
   57SAPC   C35 4242   4.753   3.450   9.824 -0.3048  0.2330  0.2399
   57SAPC   H5X 4243   4.747   3.339   9.819  0.8793  0.1169 -5.7844
   57SAPC   H5Y 4244   4.863   3.465   9.831 -0.0860 -0.9029 -0.4864
   57SAPC   C36 4245   4.698   3.485   9.682  0.2714 -0.0012 -0.3904
   57SAPC   H6X 4246   4.710   3.594   9.660 -0.8155 -0.2870 -2.7656
   57SAPC   H6Y 4247   4.592   3.451   9.673  0.8469 -1.8124 -0.5918
   57SAPC   C37 4248   4.770   3.401   9.567  1.1944 -0.6779 -0.7516
   57SAPC   H7X 4249   4.739   3.297   9.591 -0.7229 -0.4923 -2.1189
   57SAPC   H7Y 4250   4.881   3.402   9.571  1.2116 -0.0102 -1.2302
   57SAPC   C38 4251   4.723   3.449   9.431 -0.2267  0.1831  0.7353
   57SAPC   H8X 4252   4.762   3.553   9.423  3.1723 -1.0641 -0.4211
   57SAPC   H8Y 4253   4.612   3.444   9.418 -0.0850 -0.5873 -0.2704
   57SAPC   C39 4254   4.794   3.358   9.324 -0.9284 -0.3302 -0.5759
   57SAPC   H9X 4255   4.812   3.255   9.363 -0.6888 -0.8293 -1.9230
   57SAPC   H9Y 4256   4.890   3.402   9.289 -0.0937 -1.9499 -0.4454
   57SAPC  C310 4257   4.712   3.337   9.190  0.4956  0.0768  0.4086
   57SAPC  H10X 4258   4.732   3.416   9.115 -1.9935  0.7634  0.3700
   57SAPC  H10Y 4259   4.607   3.350   9.223  1.1240 -0.4762  2.8005
   57SAPC  C311 4260   4.729   3.189   9.132  0.4095 -0.2785 -0.1255
   57SAPC  H11X 4261   4.674   3.122   9.202  0.1427 -0.3914 -0.4394
   57SAPC  H11Y 4262   4.836   3.170   9.109  0.1351 -0.7676 -1.0308
   57SAPC  C312 4263   4.644   3.167   9.004  0.1357 -0.0462 -0.2089
   57SAPC  H12X 4264   4.536   3.158   9.030 -0.0294  0.4832 -0.6813
   57SAPC  H12Y 4265   4.681   3.073   8.958 -0.2620 -0.1800 -0.2601
   57SAPC  C313 4266   4.657   3.279   8.894  0.6998 -0.1273 -0.4278
   57SAPC  H13X 4267   4.633   3.372   8.949 -0.2562  0.0450 -1.0913
   57SAPC  H13Y 4268   4.582   3.263   8.813  1.9079 -0.0010 -1.6011
   57SAPC  C314 4269   4.797   3.274   8.832  0.3501  0.1768 -0.3919
   57SAPC  H14X 4270   4.811   3.172   8.789  0.8764  0.6284 -1.3074
   57SAPC  H14Y 4271   4.874   3.292   8.910  1.7189 -1.9103 -1.1522
   57SAPC  C315 4272   4.824   3.385   8.725  0.6479  0.5074 -0.3988
   57SAPC  H15X 4273   4.802   3.482   8.775 -1.2804  1.5161 -2.9856
   57SAPC  H15Y 4274   4.751   3.379   8.641  1.5051  1.2797 -1.2197
   57SAPC  C316 4275   4.968   3.377   8.666  0.3593  0.0932  0.6700
   57SAPC  H16X 4276   4.987   3.468   8.604  0.7146  0.0930  0.7752
   57SAPC  H16Y 4277   4.983   3.303   8.585  1.4961  1.6255 -0.5924
   57SAPC  C317 4278   5.089   3.360   8.754  0.7936  0.1333 -0.3956
   57SAPC  H17X 4279   5.088   3.259   8.800  0.0589 -0.1880 -1.0794
   57SAPC  H17Y 4280   5.082   3.435   8.835 -2.5688 -1.2564  0.7724
   57SAPC  C318 4281   5.224   3.378   8.679 -1.4458  0.1428  0.2801
   57SAPC  H18X 4282   5.252   3.289   8.619  0.9781  1.1825 -0.2615
   57SAPC  H18Y 4283   5.317   3.390   8.737 -0.3414 -3.2521 -0.5379
   57SAPC  H18Z 4284   5.204   3.452   8.598 -0.4928 -1.1263 -1.1642
   58SAPC     N 4285   1.153   2.556  10.912 -0.2837 -0.2390 -1.5271
   58SAPC   C12 4286   1.110   2.518  11.053  0.7464  0.5925 -0.4273
   58SAPC  H12A 4287   1.017   2.572  11.065 -0.8880 -2.0988 -0.2533
   58SAPC  H12B 4288   1.181   2.558  11.124  0.5676 -1.8489  1.2441
   58SAPC   C13 4289   1.129   2.705  10.904 -0.3456 -1.0768  0.2762
   58SAPC  H13A 4290   1.191   2.749  10.981 -0.6969  1.4458 -0.7966
   58SAPC  H13B 4291   1.152   2.746  10.807  0.8042  2.1215  1.7508
   58SAPC  H13C 4292   1.026   2.733  10.919 -0.0633  1.1209 -1.4283
   58SAPC   C14 4293   1.304   2.534  10.888  0.7182 -0.0695 -0.0740
   58SAPC  H14A 4294   1.326   2.551  10.783  0.6930  0.2118 -0.0355
   58SAPC  H14B 4295   1.372   2.600  10.940  1.6590  0.8349 -2.3093
   58SAPC  H14C 4296   1.323   2.432  10.917 -1.8902 -0.2586  1.1725
   58SAPC   C15 4297   1.071   2.491  10.807 -0.1113  0.6106 -0.1147
   58SAPC  H15A 4298   1.088   2.521  10.704 -0.4428 -0.8235 -0.6086
   58SAPC  H15B 4299   1.091   2.385  10.807 -1.0261  0.4077 -1.2246
   58SAPC  H15C 4300   0.967   2.514  10.827 -0.1481  1.8713 -1.5326
   58SAPC   C11 4301   1.081   2.375  11.091 -0.1885  0.5485 -0.5931
   58SAPC  H11A 4302   1.065   2.366  11.200  0.6668  0.0401 -0.5023
   58SAPC  H11B 4303   1.171   2.309  11.090 -0.7154 -0.2329  0.7044
   58SAPC     P 4304   0.931   2.167  11.030 -0.3119  0.3049  0.1901
   58SAPC   O13 4305   0.963   2.116  11.164  0.1495  0.1495  0.0143
   58SAPC   O14 4306   0.794   2.142  10.988 -0.1017  0.0074  0.4532
   58SAPC   O12 4307   0.968   2.315  11.023  0.5098  0.2915  0.0019
   58SAPC   O11 4308   1.039   2.099  10.945 -0.0370 -0.4033 -0.5156
   58SAPC    C1 4309   1.012   2.064  10.811 -0.5157 -0.0816  0.2971
   58SAPC    HA 4310   0.972   1.961  10.810  2.3657 -1.3267 -1.7782
   58SAPC    HB 4311   0.951   2.135  10.751  0.1789 -0.1018 -0.4616
   58SAPC    C2 4312   1.150   2.046  10.744  0.1877  0.3340  0.2445
   58SAPC    HS 4313   1.210   2.139  10.751 -0.5150  0.7591  0.8266
   58SAPC   O21 4314   1.132   2.009  10.608  0.0873 -0.5001  0.2097
   58SAPC   C21 4315   1.103   2.113  10.530  0.9074 -0.3557  0.4092
   58SAPC   O22 4316   1.082   2.227  10.566  0.6923 -0.4613  0.4830
   58SAPC   C22 4317   1.061   2.054  10.396  0.3589  0.4193  0.0294
   58SAPC   H2R 4318   1.137   1.983  10.359 -1.0071 -2.5654  2.4629
   58SAPC   H2S 4319   0.971   1.989  10.408  1.0710 -0.4469  0.8083
   58SAPC    C3 4320   1.239   1.933  10.807  0.1367 -0.5466 -0.6198
   58SAPC    HX 4321   1.174   1.848  10.836 -1.7765  1.4857  1.3883
   58SAPC    HY 4322   1.282   1.975  10.900  2.0516  2.9043 -2.7996
   58SAPC   O31 4323   1.342   1.885  10.721 -0.3089 -0.4697  0.3094
   58SAPC   C31 4324   1.456   1.945  10.715 -0.6629  0.8147  0.2274
   58SAPC   O32 4325   1.493   2.040  10.784  0.2383  0.2563  0.4587
   58SAPC   C32 4326   1.558   1.858  10.632 -0.2085 -0.4498  0.0197
   58SAPC   H2X 4327   1.509   1.762  10.605 -0.6755 -0.4613  0.8881
   58SAPC   H2Y 4328   1.648   1.840  10.695 -0.3158  2.0446  0.9690
   58SAPC   C23 4329   1.037   2.162  10.283 -0.0341  0.6041  0.1867
   58SAPC   H3R 4330   1.127   2.174  10.219  0.9053 -1.6233  0.9813
   58SAPC   H3S 4331   1.020   2.259  10.336  0.5217  0.9819 -0.3050
   58SAPC   C24 4332   0.908   2.130  10.202 -0.1344 -0.8681  0.1552
   58SAPC   H4R 4333   0.896   2.216  10.133 -0.9138  0.9391  2.4002
   58SAPC   H4S 4334   0.809   2.138  10.252 -0.5849  0.0936 -0.8525
   58SAPC   C25 4335   0.920   1.992  10.139  0.4587  0.2657 -0.5726
   58SAPC   H5R 4336   0.953   1.903  10.194 -2.5684 -0.0497  0.9527
   58SAPC   C26 4337   0.881   1.978  10.010 -0.9118 -0.6772  0.7784
   58SAPC   H6R 4338   0.910   1.887   9.956  1.3087  0.5522 -0.2579
   58SAPC   C27 4339   0.819   2.088   9.923 -0.6698 -0.4399  0.7337
   58SAPC   H7R 4340   0.771   2.168   9.985 -1.0914  0.5149 -0.7742
   58SAPC   H7S 4341   0.752   2.043   9.847  0.5130 -0.8011 -0.1134
   58SAPC   C28 4342   0.936   2.151   9.847 -0.1110 -0.0895 -0.4765
   58SAPC   H8R 4343   1.003   2.210   9.911 -2.2677  0.1969  1.6409
   58SAPC   C29 4344   0.962   2.148   9.720  0.2532  0.0167 -0.2874
   58SAPC   H9R 4345   1.051   2.198   9.679 -0.2006  2.4227  1.4375
   58SAPC  C210 4346   0.880   2.075   9.609 -1.3012 -0.4907 -0.3580
   58SAPC  H10R 4347   0.833   1.979   9.639  0.3706 -0.6132  2.1939
   58SAPC  H10S 4348   0.960   2.046   9.538 -2.6271 -0.9782 -1.6874
   58SAPC  C211 4349   0.764   2.149   9.548  0.1614  0.3788  0.8883
   58SAPC  H11R 4350   0.683   2.178   9.617 -0.1735  3.0082 -0.4997
   58SAPC  C212 4351   0.734   2.148   9.414 -0.4399  0.4731  0.1457
   58SAPC  H12R 4352   0.637   2.199   9.399 -0.5265  0.1403 -0.4741
   58SAPC  C213 4353   0.815   2.101   9.292  0.1140  0.4240 -0.1594
   58SAPC  H13R 4354   0.820   1.990   9.301 -2.2247  0.3134  0.4796
   58SAPC  H13S 4355   0.913   2.151   9.306 -0.1565  0.1865  3.6512
   58SAPC  C214 4356   0.748   2.128   9.160 -0.7665  0.4104  0.0589
   58SAPC  H14R 4357   0.639   2.140   9.154 -1.0472 -1.0983  1.3674
   58SAPC  C215 4358   0.812   2.127   9.041 -0.3435  0.1097  0.7470
   58SAPC  H15R 4359   0.760   2.149   8.947  1.0128  1.4117  0.2702
   58SAPC  C216 4360   0.954   2.086   9.012  1.0778  0.0560 -0.1338
   58SAPC  H16R 4361   0.995   2.044   9.106 -0.5797  0.0250  0.6223
   58SAPC  H16S 4362   1.011   2.176   8.980  1.9318 -0.0859  0.9462
   58SAPC  C217 4363   0.957   1.968   8.916  0.1072  0.4779  0.6014
   58SAPC  H17R 4364   1.062   1.938   8.894 -0.4883 -2.6188  1.5969
   58SAPC  H17S 4365   0.919   1.985   8.813  2.7889  0.1498 -0.5178
   58SAPC  C218 4366   0.908   1.832   8.979  0.5423 -0.6646  0.2992
   58SAPC  H18R 4367   0.803   1.843   9.013  0.3779 -4.0420  1.2530
   58SAPC  H18S 4368   0.974   1.814   9.066  1.2544 -0.4618 -0.1830
   58SAPC  C219 4369   0.918   1.722   8.870  0.3542  0.6240  0.2338
   58SAPC  H19R 4370   1.026   1.709   8.844  0.0281  0.5562 -1.1374
   58SAPC  H19S 4371   0.863   1.760   8.782  1.7805  0.0068 -0.9658
   58SAPC  C220 4372   0.849   1.590   8.908 -0.1541  0.2296 -0.1909
   58SAPC  H20R 4373   0.836   1.521   8.822 -2.1181  0.0838  0.1907
   58SAPC  H20S 4374   0.748   1.603   8.951 -1.4422  0.3680 -3.0159
   58SAPC  H20T 4375   0.915   1.542   8.983 -0.1141 -0.3292 -0.5747
   58SAPC   C33 4376   1.602   1.931  10.493 -0.4101  0.1802 -1.1945
   58SAPC   H3X 4377   1.691   1.889  10.442 -0.5837 -0.9466 -0.6233
   58SAPC   H3Y 4378   1.643   2.030  10.519  1.4285 -0.7700 -0.2759
   58SAPC   C34 4379   1.490   1.927  10.393 -0.4598  0.0501 -0.2708
   58SAPC   H4X 4380   1.395   1.956  10.444 -1.5749 -0.6222 -1.8623
   58SAPC   H4Y 4381   1.478   1.822  10.360 -0.4981 -0.4704  1.3062
   58SAPC   C35 4382   1.519   2.020  10.279  0.0694  0.5635  0.5790
   58SAPC   H5X 4383   1.567   1.957  10.201 -0.3895  0.8337  0.0728
   58SAPC   H5Y 4384   1.596   2.095  10.308  0.0507  1.2859 -1.1103
   58SAPC   C36 4385   1.399   2.093  10.223  0.1921 -0.3165 -0.1069
   58SAPC   H6X 4386   1.353   2.170  10.288 -0.2464 -1.7286  1.3441
   58SAPC   H6Y 4387   1.323   2.016  10.195 -0.4681  0.3033 -0.0515
   58SAPC   C37 4388   1.431   2.169  10.089 -0.3299  0.0274 -0.2282
   58SAPC   H7X 4389   1.466   2.098  10.010 -2.1349 -0.2249 -0.8515
   58SAPC   H7Y 4390   1.510   2.246  10.101 -0.2201  0.1489 -1.5763
   58SAPC   C38 4391   1.318   2.256  10.026  0.4766 -0.1462 -0.2625
   58SAPC   H8X 4392   1.284   2.316  10.114 -0.9465 -0.6928 -0.4109
   58SAPC   H8Y 4393   1.231   2.192  10.000  0.6752  0.6328 -3.0637
   58SAPC   C39 4394   1.351   2.329   9.889 -0.4094  0.3505 -0.9741
   58SAPC   H9X 4395   1.363   2.244   9.818 -0.7195 -1.6995  1.2837
   58SAPC   H9Y 4396   1.449   2.379   9.898 -0.0362 -0.1387 -2.1251
   58SAPC  C310 4397   1.238   2.417   9.841  0.3443 -0.6673  0.2160
   58SAPC  H10X 4398   1.150   2.352   9.825 -0.0968 -0.7667  2.6678
   58SAPC  H10Y 4399   1.263   2.459   9.741 -2.2366  1.5007  0.3981
   58SAPC  C311 4400   1.196   2.534   9.932  1.1402 -0.1759  0.3677
   58SAPC  H11X 4401   1.285   2.598   9.945  1.8075 -0.9391 -0.3566
   58SAPC  H11Y 4402   1.168   2.488  10.029  1.3260 -2.3409 -0.5562
   58SAPC  C312 4403   1.082   2.610   9.880 -0.7981 -0.5207  0.0072
   58SAPC  H12X 4404   1.102   2.638   9.774 -0.3446 -0.3952  0.1245
   58SAPC  H12Y 4405   1.092   2.706   9.934 -0.0203 -0.4948 -0.1695
   58SAPC  C313 4406   0.947   2.545   9.896 -0.3475  0.1232 -0.1679
   58SAPC  H13X 4407   0.952   2.435   9.888  2.9674  0.0873  0.9006
   58SAPC  H13Y 4408   0.898   2.582   9.803  1.8882  1.8326 -0.7722
   58SAPC  C314 4409   0.880   2.587  10.021 -0.0637 -0.1227  0.2627
   58SAPC  H14X 4410   0.910   2.693  10.038 -0.3197  0.1533 -0.9177
   58SAPC  H14Y 4411   0.922   2.520  10.099 -1.1686  0.8557  1.7603
   58SAPC  C315 4412   0.729   2.573  10.022  0.4103 -0.6975 -0.6358
   58SAPC  H15X 4413   0.710   2.466  10.000 -1.6196 -0.7880  1.1742
   58SAPC  H15Y 4414   0.689   2.631   9.936 -1.1661  1.0808  1.1735
   58SAPC  C316 4415   0.647   2.605  10.153  0.3198  0.8362 -0.9549
   58SAPC  H16X 4416   0.543   2.571  10.132  0.6588  0.6515 -2.4015
   58SAPC  H16Y 4417   0.648   2.712  10.181  0.5058  0.5766  0.0720
   58SAPC  C317 4418   0.679   2.523  10.277  0.2354 -0.1114  0.3696
   58SAPC  H17X 4419   0.656   2.581  10.369 -0.7962  2.2102 -1.2520
   58SAPC  H17Y 4420   0.786   2.494  10.273 -0.5121 -3.1835 -0.5349
   58SAPC  C318 4421   0.590   2.392  10.281 -0.0182 -0.1408 -0.2255
   58SAPC  H18X 4422   0.624   2.330  10.367 -1.3452  0.5303  0.8270
   58SAPC  H18Y 4423   0.608   2.313  10.205 -1.9211 -0.4370 -0.4196
   58SAPC  H18Z 4424   0.484   2.423  10.293 -0.1233 -0.9640  1.1857
   59SAPC     N 4425   2.194   1.722  11.039 -0.0584  0.2835 -0.1095
   59SAPC   C12 4426   2.092   1.646  10.963  0.4550 -0.2999 -0.6935
   59SAPC  H12A 4427   2.064   1.711  10.881  0.3927  2.9635  1.7234
   59SAPC  H12B 4428   2.002   1.629  11.020  0.3074 -0.7072 -1.0414
   59SAPC   C13 4429   2.222   1.651  11.163  0.2531 -0.0149 -0.3407
   59SAPC  H13A 4430   2.300   1.692  11.226 -1.0108 -2.6015  3.2557
   59SAPC  H13B 4431   2.129   1.635  11.214 -0.5559 -2.9698 -2.4323
   59SAPC  H13C 4432   2.251   1.549  11.141  1.1074  0.2809 -0.6441
   59SAPC   C14 4433   2.327   1.736  10.963 -0.4883  0.5419  0.3282
   59SAPC  H14A 4434   2.379   1.642  10.976 -0.4696  0.5742  0.4813
   59SAPC  H14B 4435   2.307   1.747  10.857 -0.9210 -1.7967  0.1211
   59SAPC  H14C 4436   2.394   1.814  10.998 -0.0897  0.3978 -0.1045
   59SAPC   C15 4437   2.144   1.857  11.076  0.8670  0.0507 -0.1106
   59SAPC  H15A 4438   2.049   1.846  11.127  0.7578  1.4736  0.0308
   59SAPC  H15B 4439   2.213   1.909  11.141  1.0577  1.1879 -1.1765
   59SAPC  H15C 4440   2.125   1.917  10.988  0.5444 -2.9748 -2.2708
   59SAPC   C11 4441   2.128   1.511  10.903 -0.2843 -0.4509  0.1151
   59SAPC  H11A 4442   2.222   1.524  10.845 -1.1386  0.4004 -1.1538
   59SAPC  H11B 4443   2.048   1.491  10.827  1.1411  2.0909 -2.2493
   59SAPC     P 4444   2.016   1.304  11.011 -0.3628  0.2950  0.0497
   59SAPC   O13 4445   2.067   1.184  11.077 -0.2298 -0.0947 -0.0143
   59SAPC   O14 4446   1.904   1.365  11.083  0.2739 -0.1733 -0.1848
   59SAPC   O12 4447   2.134   1.412  11.008  0.4734  0.2377  0.4231
   59SAPC   O11 4448   1.989   1.279  10.851 -0.2336  0.1561  0.0135
   59SAPC    C1 4449   2.067   1.178  10.781  0.1617  0.2624  0.6706
   59SAPC    HA 4450   2.096   1.097  10.851  2.4901  0.4584  0.0216
   59SAPC    HB 4451   2.011   1.129  10.699  1.7179 -0.1387 -0.1861
   59SAPC    C2 4452   2.189   1.238  10.702  0.1130  0.3963  0.3197
   59SAPC    HS 4453   2.239   1.313  10.767  0.8936  1.9386 -1.9692
   59SAPC   O21 4454   2.139   1.287  10.579  0.5137 -0.2706 -0.2382
   59SAPC   C21 4455   2.178   1.407  10.548 -0.4175  0.2508 -0.0533
   59SAPC   O22 4456   2.272   1.474  10.595 -1.0207  0.8236 -0.1898
   59SAPC   C22 4457   2.087   1.449  10.438 -0.1658  0.5475  0.8315
   59SAPC   H2R 4458   2.026   1.363  10.402 -1.4390  1.7476 -0.0012
   59SAPC   H2S 4459   2.008   1.518  10.473 -1.5740 -0.4763 -0.1741
   59SAPC    C3 4460   2.287   1.127  10.668 -0.1154 -0.0705  0.1973
   59SAPC    HX 4461   2.225   1.076  10.591 -1.8000  2.7203 -0.4321
   59SAPC    HY 4462   2.303   1.064  10.758 -0.8152 -1.2744 -0.4969
   59SAPC   O31 4463   2.404   1.180  10.610 -0.1195  0.0677  0.2930
   59SAPC   C31 4464   2.487   1.232  10.689 -0.6835  0.1355 -0.2654
   59SAPC   O32 4465   2.483   1.258  10.809 -0.0551 -0.6657 -0.1421
   59SAPC   C32 4466   2.618   1.257  10.608  0.3074 -0.8130 -0.1078
   59SAPC   H2X 4467   2.684   1.170  10.629  1.8064 -0.1049 -1.6640
   59SAPC   H2Y 4468   2.661   1.349  10.652  0.7098 -0.2493 -1.6416
   59SAPC   C23 4469   2.171   1.520  10.323  0.5318  0.0030 -0.9661
   59SAPC   H3R 4470   2.222   1.607  10.369  0.3778 -1.3666  2.0142
   59SAPC   H3S 4471   2.097   1.569  10.256  1.0168  1.2116 -0.6396
   59SAPC   C24 4472   2.257   1.422  10.245  0.4191  0.2271  0.7184
   59SAPC   H4R 4473   2.306   1.346  10.310 -0.3615 -0.3153  0.6905
   59SAPC   H4S 4474   2.341   1.478  10.198  0.2792  0.6537  0.9748
   59SAPC   C25 4475   2.186   1.340  10.141  0.9659 -0.4061 -0.3571
   59SAPC   H5R 4476   2.147   1.241  10.171 -0.3452 -0.3885 -1.8500
   59SAPC   C26 4477   2.137   1.379  10.019 -0.1222  0.2247 -0.2921
   59SAPC   H6R 4478   2.087   1.300   9.961 -0.7411 -1.5883  2.5445
   59SAPC   C27 4479   2.174   1.517   9.966 -0.0931  0.1827  0.0695
   59SAPC   H7R 4480   2.263   1.508   9.900  1.2593  1.5931  1.6300
   59SAPC   H7S 4481   2.198   1.588  10.048 -0.8187 -0.3637  0.7768
   59SAPC   C28 4482   2.059   1.568   9.886 -0.6808  0.7548  0.3791
   59SAPC   H8R 4483   1.969   1.577   9.948 -1.5914  1.4427 -0.9872
   59SAPC   C29 4484   2.050   1.603   9.750 -0.4651  0.3546  0.2399
   59SAPC   H9R 4485   1.959   1.652   9.711  0.6154  1.0338 -1.5592
   59SAPC  C210 4486   2.170   1.595   9.657  0.1613  0.1036 -0.2577
   59SAPC  H10R 4487   2.148   1.505   9.595  4.1744  0.1450 -1.9948
   59SAPC  H10S 4488   2.261   1.575   9.717  0.8408  2.8039 -0.2974
   59SAPC  C211 4489   2.189   1.720   9.570 -0.1021  0.6116 -0.0744
   59SAPC  H11R 4490   2.140   1.816   9.593 -2.5210 -0.1582 -1.5996
   59SAPC  C212 4491   2.263   1.725   9.456  0.0650  0.0115 -0.8713
   59SAPC  H12R 4492   2.263   1.824   9.409 -1.3340 -0.4177 -1.8534
   59SAPC  C213 4493   2.337   1.611   9.397  0.3592  0.2469  0.2502
   59SAPC  H13R 4494   2.277   1.518   9.395  1.4656 -0.5023  0.9117
   59SAPC  H13S 4495   2.414   1.573   9.468  1.8722 -1.3626 -2.0923
   59SAPC  C214 4496   2.389   1.637   9.257 -0.1511  0.2067  0.7856
   59SAPC  H14R 4497   2.474   1.706   9.260  0.0212  0.0784 -0.5256
   59SAPC  C215 4498   2.354   1.583   9.142 -0.5583  0.1120  0.5248
   59SAPC  H15R 4499   2.405   1.616   9.051  0.1783  0.8879  1.2031
   59SAPC  C216 4500   2.252   1.482   9.127 -0.0125 -0.0570  0.0976
   59SAPC  H16R 4501   2.164   1.517   9.069 -0.2560  1.5987  1.3788
   59SAPC  H16S 4502   2.193   1.460   9.219  0.7556  0.4586  0.7266
   59SAPC  C217 4503   2.309   1.333   9.088  0.3940  0.0122  0.1016
   59SAPC  H17R 4504   2.377   1.293   9.167 -0.9964 -0.9009  0.8754
   59SAPC  H17S 4505   2.361   1.337   8.990  1.5175 -2.4530  0.5294
   59SAPC  C218 4506   2.193   1.238   9.081 -0.3020 -0.4200 -0.2730
   59SAPC  H18R 4507   2.126   1.266   8.997  1.1504  1.5122 -0.8380
   59SAPC  H18S 4508   2.129   1.243   9.172 -0.0293  2.1709 -0.1555
   59SAPC  C219 4509   2.242   1.094   9.039  0.6757 -0.5775  0.4424
   59SAPC  H19R 4510   2.308   1.039   9.110 -0.3560 -0.5889  1.4284
   59SAPC  H19S 4511   2.301   1.093   8.945  1.3059  0.1657  0.8135
   59SAPC  C220 4512   2.120   0.999   9.028  0.3489  0.0309  0.8353
   59SAPC  H20R 4513   2.067   1.010   9.125  0.8660  3.7898  0.8415
   59SAPC  H20S 4514   2.147   0.892   9.024  0.0638  0.0006 -1.3621
   59SAPC  H20T 4515   2.048   1.019   8.946 -0.3623 -2.3031  0.8141
   59SAPC   C33 4516   2.592   1.268  10.453  0.3504 -0.3941 -0.3868
   59SAPC   H3X 4517   2.517   1.350  10.441  0.7908  0.1148  0.2232
   59SAPC   H3Y 4518   2.545   1.174  10.419 -1.2324  1.2321 -3.0827
   59SAPC   C34 4519   2.710   1.283  10.366 -0.4153 -0.6533  0.0480
   59SAPC   H4X 4520   2.785   1.207  10.397 -0.6807 -1.1843 -0.6049
   59SAPC   H4Y 4521   2.757   1.378  10.401  3.2358 -2.0425 -0.6280
   59SAPC   C35 4522   2.683   1.295  10.214  0.1845  0.4389  0.7689
   59SAPC   H5X 4523   2.619   1.212  10.175  1.0595  0.4620 -0.8098
   59SAPC   H5Y 4524   2.778   1.265  10.166 -0.6451 -2.9457  0.9721
   59SAPC   C36 4525   2.622   1.430  10.183 -0.1010  0.4233  0.1814
   59SAPC   H6X 4526   2.690   1.514  10.210 -0.9867  2.0464 -2.2369
   59SAPC   H6Y 4527   2.538   1.454  10.251 -0.0331 -0.3632  0.5517
   59SAPC   C37 4528   2.574   1.443  10.036 -0.1228 -0.1445 -1.4087
   59SAPC   H7X 4529   2.527   1.543  10.037  1.4336  0.7017  1.8965
   59SAPC   H7Y 4530   2.503   1.358  10.025  0.9645 -1.4526  0.8031
   59SAPC   C38 4531   2.675   1.421   9.926 -0.0827  0.6418 -0.2192
   59SAPC   H8X 4532   2.707   1.315   9.918 -0.3620  0.4238  1.2407
   59SAPC   H8Y 4533   2.770   1.478   9.939 -0.5350  2.1631 -2.9430
   59SAPC   C39 4534   2.612   1.460   9.790  0.1205 -0.0915 -0.0072
   59SAPC   H9X 4535   2.568   1.560   9.810 -0.1467 -0.4906  1.5818
   59SAPC   H9Y 4536   2.522   1.400   9.763  0.4332 -0.0132 -1.2816
   59SAPC  C310 4537   2.715   1.449   9.678  0.3460  0.2751  0.2801
   59SAPC  H10X 4538   2.743   1.344   9.655  1.6892  0.7774 -0.5301
   59SAPC  H10Y 4539   2.809   1.490   9.720  2.2867 -3.9913  0.6268
   59SAPC  C311 4540   2.673   1.514   9.546 -0.5394  0.0640  0.3451
   59SAPC  H11X 4541   2.616   1.607   9.567 -1.1896  0.3502 -2.3299
   59SAPC  H11Y 4542   2.591   1.456   9.500 -0.4411  0.5714 -0.4992
   59SAPC  C312 4543   2.786   1.519   9.445  0.2980 -0.0442  0.4330
   59SAPC  H12X 4544   2.841   1.422   9.445  1.0822  0.3612  1.9249
   59SAPC  H12Y 4545   2.864   1.591   9.479 -1.7448  2.4559  0.1042
   59SAPC  C313 4546   2.739   1.552   9.306 -0.2972  0.3088 -0.1099
   59SAPC  H13X 4547   2.681   1.646   9.298  1.5767  1.4971 -0.3921
   59SAPC  H13Y 4548   2.685   1.462   9.269 -0.7455 -0.9984  3.3744
   59SAPC  C314 4549   2.858   1.562   9.209 -0.7087 -0.1191 -0.4334
   59SAPC  H14X 4550   2.930   1.477   9.210  0.0895  0.5138 -1.7621
   59SAPC  H14Y 4551   2.911   1.656   9.235 -1.8142  0.6839 -1.0023
   59SAPC  C315 4552   2.805   1.579   9.068 -0.1206  0.3281 -0.4140
   59SAPC  H15X 4553   2.724   1.506   9.047  0.0398 -0.0701  0.3191
   59SAPC  H15Y 4554   2.885   1.537   9.004  1.0609  1.3898  0.3135
   59SAPC  C316 4555   2.781   1.727   9.036  0.4054  0.3586  0.0568
   59SAPC  H16X 4556   2.870   1.791   9.057  0.3458  0.9631 -1.4439
   59SAPC  H16Y 4557   2.702   1.776   9.098  1.2003 -0.1869  1.5687
   59SAPC  C317 4558   2.749   1.756   8.891  0.5236  0.1869  0.9136
   59SAPC  H17X 4559   2.804   1.677   8.836 -0.5897  0.9557 -1.4485
   59SAPC  H17Y 4560   2.788   1.854   8.857  0.6378  0.0013  0.5059
   59SAPC  C318 4561   2.589   1.750   8.851 -0.1245  0.0889  0.6306
   59SAPC  H18X 4562   2.581   1.760   8.740  0.2109 -2.3936  0.3441
   59SAPC  H18Y 4563   2.548   1.846   8.889  0.5239  0.6741 -0.0816
   59SAPC  H18Z 4564   2.537   1.661   8.891  0.6100  0.2079  1.9049
   60SAPC     N 4565   1.658   0.883  10.943 -0.3391 -0.8175  0.1594
   60SAPC   C12 4566   1.562   0.910  10.831 -0.7202 -0.4644  0.3355
   60SAPC  H12A 4567   1.604   0.883  10.735  0.7471  0.3052  0.7286
   60SAPC  H12B 4568   1.543   1.016  10.834  0.4694 -0.2419  0.3912
   60SAPC   C13 4569   1.592   0.899  11.075  0.2509 -0.3861 -0.7241
   60SAPC  H13A 4570   1.528   0.815  11.098  3.5242 -2.9070 -0.1184
   60SAPC  H13B 4571   1.661   0.909  11.157  0.5097 -4.0483 -0.3503
   60SAPC  H13C 4572   1.519   0.979  11.068  0.4594 -0.2375 -1.2268
   60SAPC   C14 4573   1.715   0.747  10.935 -0.8522  0.2478  0.3565
   60SAPC  H14A 4574   1.758   0.711  11.028  2.2275  2.7142  0.0527
   60SAPC  H14B 4575   1.645   0.668  10.912  1.9604 -2.5688  0.6497
   60SAPC  H14C 4576   1.794   0.736  10.862 -1.3646 -2.4853  0.0991
   60SAPC   C15 4577   1.775   0.976  10.944 -0.0951 -0.5319  0.2170
   60SAPC  H15A 4578   1.844   0.950  11.022  0.2908  0.9968  0.4224
   60SAPC  H15B 4579   1.831   0.974  10.851  0.1566 -0.0523  0.3560
   60SAPC  H15C 4580   1.746   1.078  10.966 -0.3738 -0.8984  1.5814
   60SAPC   C11 4581   1.429   0.834  10.854 -0.3412  0.5834  0.3923
   60SAPC  H11A 4582   1.364   0.881  10.777  1.9242 -0.1508 -2.1328
   60SAPC  H11B 4583   1.379   0.860  10.950 -0.0551  1.6336  0.2670
   60SAPC     P 4584   1.451   0.639  10.686 -0.0704 -0.2594 -0.0950
   60SAPC   O13 4585   1.542   0.523  10.674 -0.3024 -1.2411 -0.4629
   60SAPC   O14 4586   1.314   0.612  10.637 -0.0184  0.2719  0.2298
   60SAPC   O12 4587   1.450   0.696  10.828 -0.2608 -0.8336  0.2382
   60SAPC   O11 4588   1.505   0.748  10.588  0.1012  0.4761 -0.0512
   60SAPC    C1 4589   1.430   0.838  10.502 -0.1700  0.3694  0.1299
   60SAPC    HA 4590   1.328   0.855  10.542 -1.5084 -0.2815 -2.6987
   60SAPC    HB 4591   1.477   0.938  10.495  1.5763 -0.3289  1.2695
   60SAPC    C2 4592   1.423   0.788  10.356  0.2467 -0.5488 -0.1802
   60SAPC    HS 4593   1.388   0.683  10.368 -3.8794  0.8106  1.3030
   60SAPC   O21 4594   1.554   0.779  10.310 -0.6700 -0.6421 -0.4273
   60SAPC   C21 4595   1.595   0.686  10.220 -0.7349  0.1417  0.7981
   60SAPC   O22 4596   1.532   0.589  10.185  0.1984  0.7280 -0.2016
   60SAPC   C22 4597   1.733   0.714  10.177  0.0039 -0.3434  0.8913
   60SAPC   H2R 4598   1.731   0.778  10.087  2.6149  1.0391  1.7094
   60SAPC   H2S 4599   1.785   0.778  10.252  1.5449  0.8664 -1.1034
   60SAPC    C3 4600   1.342   0.877  10.257  0.4187 -0.6424  0.6562
   60SAPC    HX 4601   1.405   0.967  10.239 -1.3633  0.9679  1.9914
   60SAPC    HY 4602   1.256   0.918  10.313  0.0831 -2.2271  1.3373
   60SAPC   O31 4603   1.307   0.808  10.135 -0.4170  0.5278  0.4355
   60SAPC   C31 4604   1.188   0.736  10.131 -0.1532 -0.4646 -0.2367
   60SAPC   O32 4605   1.113   0.730  10.233 -0.5911 -0.0562  0.1433
   60SAPC   C32 4606   1.164   0.709   9.987 -0.0194  0.0525 -0.0564
   60SAPC   H2X 4607   1.249   0.655   9.940 -0.1980  0.3935 -0.7938
   60SAPC   H2Y 4608   1.145   0.809   9.941  1.4793  0.7246  0.6956
   60SAPC   C23 4609   1.822   0.598  10.147 -0.1162  0.1186  0.2086
   60SAPC   H3R 4610   1.806   0.560  10.044 -2.9586 -1.0402  0.9907
   60SAPC   H3S 4611   1.791   0.522  10.222  0.1613  1.2983  1.5638
   60SAPC   C24 4612   1.976   0.620  10.172 -0.4528 -0.1434  0.5901
   60SAPC   H4R 4613   1.989   0.681  10.263 -2.5013  1.4727 -0.1435
   60SAPC   H4S 4614   2.001   0.690  10.089  0.2231  0.0412  0.9348
   60SAPC   C25 4615   2.068   0.497  10.180  0.0067  0.1009  0.4645
   60SAPC   H5R 4616   2.069   0.433  10.269  0.3173 -1.4101 -0.6010
   60SAPC   C26 4617   2.156   0.462  10.080  1.3271 -0.6010  0.0483
   60SAPC   H6R 4618   2.224   0.378  10.102  1.8723 -0.0068  0.7040
   60SAPC   C27 4619   2.183   0.530   9.948  0.0602  0.2735 -0.1164
   60SAPC   H7R 4620   2.289   0.507   9.923  0.4073  0.5883  1.0137
   60SAPC   H7S 4621   2.179   0.640   9.955  0.9500  0.1956  2.1561
   60SAPC   C28 4622   2.097   0.484   9.840  0.4224 -0.1753  0.0810
   60SAPC   H8R 4623   2.015   0.419   9.874  0.8421 -0.3595  0.7647
   60SAPC   C29 4624   2.124   0.502   9.706 -0.3164 -0.0515  0.8325
   60SAPC   H9R 4625   2.044   0.462   9.642 -0.8033  0.7643  0.9211
   60SAPC  C210 4626   2.233   0.582   9.639 -0.1720  0.1054 -0.7878
   60SAPC  H10R 4627   2.288   0.636   9.718  0.2821 -0.9543 -0.3678
   60SAPC  H10S 4628   2.186   0.664   9.579 -0.7285 -0.2097 -0.7944
   60SAPC  C211 4629   2.332   0.501   9.564  0.5395  0.2396 -0.0933
   60SAPC  H11R 4630   2.365   0.404   9.606  0.4257 -0.1114 -0.7938
   60SAPC  C212 4631   2.409   0.531   9.456 -0.3480 -0.8659  0.6287
   60SAPC  H12R 4632   2.477   0.455   9.416 -0.1331  0.1531 -1.0527
   60SAPC  C213 4633   2.396   0.658   9.378  0.7369  0.1547 -0.4028
   60SAPC  H13R 4634   2.495   0.690   9.338  1.2907 -2.0262 -0.8997
   60SAPC  H13S 4635   2.358   0.742   9.441 -0.3757 -0.5596 -0.0939
   60SAPC  C214 4636   2.291   0.642   9.266  0.1674 -0.6976 -0.2162
   60SAPC  H14R 4637   2.193   0.642   9.316  0.6931  1.1389  0.9484
   60SAPC  C215 4638   2.308   0.643   9.134 -0.3262 -0.6479  0.3229
   60SAPC  H15R 4639   2.223   0.644   9.064  0.0426 -0.5909 -0.1296
   60SAPC  C216 4640   2.442   0.650   9.069 -0.1459  0.0258  0.8559
   60SAPC  H16R 4641   2.493   0.552   9.075 -2.8491 -1.4176  1.5406
   60SAPC  H16S 4642   2.502   0.730   9.118 -3.4912  2.2659  1.6100
   60SAPC  C217 4643   2.425   0.705   8.928 -0.3169 -0.5035  0.2758
   60SAPC  H17R 4644   2.524   0.725   8.880 -1.0608  0.9209 -0.7275
   60SAPC  H17S 4645   2.369   0.799   8.912 -1.4214 -1.3409 -0.9678
   60SAPC  C218 4646   2.356   0.599   8.834 -0.3993  0.3149 -0.7913
   60SAPC  H18R 4647   2.252   0.575   8.864 -0.0032 -0.3177  0.1429
   60SAPC  H18S 4648   2.433   0.520   8.847 -0.7829 -0.1553 -1.3193
   60SAPC  C219 4649   2.361   0.633   8.685 -0.3361 -0.2874  0.9589
   60SAPC  H19R 4650   2.453   0.693   8.666 -0.3505 -0.8745 -1.2130
   60SAPC  H19S 4651   2.281   0.703   8.655  0.6744  0.8816  0.9027
   60SAPC  C220 4652   2.353   0.510   8.589 -0.0439 -1.0036  0.2104
   60SAPC  H20R 4653   2.370   0.531   8.481 -0.4644 -1.2825  0.0875
   60SAPC  H20S 4654   2.252   0.468   8.604 -0.5429  0.1328  0.1257
   60SAPC  H20T 4655   2.435   0.438   8.612  0.3860  0.0151  2.0242
   60SAPC   C33 4656   1.042   0.615   9.969 -0.0699  0.1260 -0.3277
   60SAPC   H3X 4657   0.950   0.649  10.022  0.0499  0.3920 -0.2876
   60SAPC   H3Y 4658   1.054   0.514  10.014  1.3633  0.0571 -0.8026
   60SAPC   C34 4659   1.020   0.603   9.819 -0.7103  0.4243  0.4009
   60SAPC   H4X 4660   1.034   0.701   9.769  1.1501  0.1675  0.3246
   60SAPC   H4Y 4661   0.913   0.577   9.802 -0.9587  1.8346 -0.3013
   60SAPC   C35 4662   1.117   0.499   9.755 -0.5412  0.0509 -0.4807
   60SAPC   H5X 4663   1.078   0.397   9.776  3.1907 -1.5301 -0.5297
   60SAPC   H5Y 4664   1.220   0.507   9.795 -0.2136 -1.1149 -1.0614
   60SAPC   C36 4665   1.131   0.493   9.602 -0.0036 -0.0155 -0.3358
   60SAPC   H6X 4666   1.187   0.401   9.575  0.6965 -0.5973  2.7537
   60SAPC   H6Y 4667   1.192   0.582   9.574  0.5955  0.8966  3.2718
   60SAPC   C37 4668   1.002   0.510   9.533  0.1069 -0.3019 -0.0807
   60SAPC   H7X 4669   0.970   0.616   9.535  1.5772  0.1725  1.4670
   60SAPC   H7Y 4670   0.928   0.451   9.592 -1.9002  2.0803 -0.0463
   60SAPC   C38 4671   0.992   0.452   9.391 -0.9814  0.2985 -0.1764
   60SAPC   H8X 4672   0.887   0.454   9.353 -0.9146 -1.2567 -0.5176
   60SAPC   H8Y 4673   1.035   0.350   9.391  1.0785  1.0731  2.2550
   60SAPC   C39 4674   1.070   0.543   9.296  0.5546  0.8240 -0.1499
   60SAPC   H9X 4675   1.174   0.548   9.334  0.6330 -1.8846  0.1834
   60SAPC   H9Y 4676   1.020   0.642   9.282 -0.2748  0.3737 -0.4359
   60SAPC  C310 4677   1.080   0.478   9.158 -0.1452 -0.0486 -0.2175
   60SAPC  H10X 4678   0.988   0.423   9.131 -2.1811  2.5562  0.9165
   60SAPC  H10Y 4679   1.159   0.401   9.167  0.1847  0.3440  0.3202
   60SAPC  C311 4680   1.117   0.582   9.048 -0.2945 -0.3365  0.2460
   60SAPC  H11X 4681   1.213   0.623   9.088  0.5079 -2.6770  0.9412
   60SAPC  H11Y 4682   1.041   0.661   9.063  1.5274  1.5509 -0.0868
   60SAPC  C312 4683   1.136   0.538   8.905  0.6424  0.7994 -0.6096
   60SAPC  H12X 4684   1.197   0.446   8.911  0.7261  0.8555 -0.6083
   60SAPC  H12Y 4685   1.195   0.621   8.862  0.4195  1.4987  0.4012
   60SAPC  C313 4686   1.009   0.513   8.818 -0.3587 -0.0198  0.1280
   60SAPC  H13X 4687   0.935   0.593   8.839 -1.3646 -0.3676 -1.8556
   60SAPC  H13Y 4688   0.969   0.418   8.859  1.0815 -0.5850  0.2762
   60SAPC  C314 4689   1.036   0.512   8.670 -0.3330  0.5823 -0.2567
   60SAPC  H14X 4690   1.106   0.429   8.645 -1.6384 -0.8856  0.8131
   60SAPC  H14Y 4691   1.079   0.608   8.633  0.2569 -0.0308 -1.2037
   60SAPC  C315 4692   0.909   0.489   8.586  0.2087 -0.4249  0.0897
   60SAPC  H15X 4693   0.821   0.550   8.616 -0.4939 -0.5852 -1.5046
   60SAPC  H15Y 4694   0.889   0.379   8.590  3.8932 -1.2115  0.3761
   60SAPC  C316 4695   0.924   0.517   8.434 -0.3339 -0.5059 -0.5644
   60SAPC  H16X 4696   0.948   0.625   8.429  0.9002 -0.6210  1.6290
   60SAPC  H16Y 4697   0.829   0.492   8.383  0.3984 -1.7391 -1.3771
   60SAPC  C317 4698   1.045   0.449   8.355  0.2184 -0.1167  0.1877
   60SAPC  H17X 4699   1.023   0.340   8.348  1.0733 -0.3648  1.0402
   60SAPC  H17Y 4700   1.138   0.465   8.414 -0.1906  0.5115  0.6628
   60SAPC  C318 4701   1.069   0.504   8.218  0.1079  0.5654  0.5150
   60SAPC  H18X 4702   1.149   0.448   8.167 -1.8037 -1.2518 -0.6335
   60SAPC  H18Y 4703   1.099   0.610   8.231 -0.2677  0.5695  1.4633
   60SAPC  H18Z 4704   0.978   0.522   8.157  1.3822  1.7848 -1.1171
   61SAPC     N 4705   1.858   5.686  11.148 -0.3624  0.5868 -0.1499
   61SAPC   C12 4706   1.718   5.700  11.103 -0.1926 -0.0265  0.2335
   61SAPC  H12A 4707   1.650   5.740  11.176 -2.0964  1.9943 -2.4306
   61SAPC  H12B 4708   1.681   5.601  11.082  0.4936 -0.1101 -0.6684
   61SAPC   C13 4709   1.860   5.577  11.253  0.2792 -0.1007 -0.1412
   61SAPC  H13A 4710   1.824   5.485  11.209  2.9705 -0.6063 -1.5137
   61SAPC  H13B 4711   1.955   5.555  11.300  0.4946  0.7672 -0.1541
   61SAPC  H13C 4712   1.787   5.595  11.331  0.9999  1.9511  0.1215
   61SAPC   C14 4713   1.942   5.641  11.037 -0.3463 -0.2805  0.2823
   61SAPC  H14A 4714   1.965   5.727  10.977 -3.2659  0.1052 -0.4559
   61SAPC  H14B 4715   2.033   5.596  11.073  0.0044 -0.5753 -0.9209
   61SAPC  H14C 4716   1.891   5.567  10.977 -0.1656 -1.1530  1.1758
   61SAPC   C15 4717   1.913   5.809  11.220  0.0647 -0.2709 -0.3865
   61SAPC  H15A 4718   2.020   5.823  11.214  0.5642 -2.9392  0.9267
   61SAPC  H15B 4719   1.868   5.895  11.173  0.6420  0.1207 -0.2370
   61SAPC  H15C 4720   1.895   5.814  11.327  0.7275 -0.6463 -0.2497
   61SAPC   C11 4721   1.690   5.785  10.974 -0.2414 -0.3160 -0.4253
   61SAPC  H11A 4722   1.585   5.777  10.939 -0.4852 -2.0613  0.5853
   61SAPC  H11B 4723   1.746   5.747  10.887  0.2911 -1.1417  0.2594
   61SAPC     P 4724   1.642   6.035  11.056  0.1682  0.0707  0.5383
   61SAPC   O13 4725   1.592   5.990  11.186 -0.6267  0.1894  0.1153
   61SAPC   O14 4726   1.705   6.172  11.057 -0.0752  0.5906 -0.0496
   61SAPC   O12 4727   1.726   5.922  10.992 -0.3390  0.1283  0.2355
   61SAPC   O11 4728   1.513   6.032  10.956 -0.4462 -0.2752  0.5891
   61SAPC    C1 4729   1.522   6.088  10.827  0.2806 -0.1415  0.1300
   61SAPC    HA 4730   1.454   6.176  10.826  0.6313  0.1604  1.6855
   61SAPC    HB 4731   1.624   6.119  10.796  0.5644 -1.1366  0.0309
   61SAPC    C2 4732   1.475   5.978  10.723 -0.3038 -0.3944  0.2739
   61SAPC    HS 4733   1.417   5.896  10.770  0.5215 -1.2620 -0.1922
   61SAPC   O21 4734   1.608   5.921  10.685  0.0813  0.4181  0.0993
   61SAPC   C21 4735   1.590   5.802  10.619  0.0938 -0.1942 -0.6280
   61SAPC   O22 4736   1.482   5.741  10.607 -0.5091  0.0344  0.6409
   61SAPC   C22 4737   1.722   5.746  10.557  0.3064  0.8123  0.3663
   61SAPC   H2R 4738   1.775   5.831  10.509  0.4302 -0.8539 -2.7416
   61SAPC   H2S 4739   1.786   5.715  10.642  0.7918 -2.3365 -0.9960
   61SAPC    C3 4740   1.413   6.025  10.590  0.5875 -0.4324  0.7923
   61SAPC    HX 4741   1.313   6.065  10.618  0.6175  0.1527  0.0996
   61SAPC    HY 4742   1.385   5.938  10.527 -1.2795 -0.2702  1.3524
   61SAPC   O31 4743   1.492   6.113  10.505  0.2203  0.1210  0.1693
   61SAPC   C31 4744   1.487   6.243  10.524  0.8465 -0.5814  0.2021
   61SAPC   O32 4745   1.427   6.295  10.616 -0.1713  0.5285  0.1291
   61SAPC   C32 4746   1.548   6.329  10.411 -0.7760 -0.1854  0.2654
   61SAPC   H2X 4747   1.619   6.400  10.460 -1.7291 -0.4355  2.0866
   61SAPC   H2Y 4748   1.469   6.390  10.361  0.3549 -0.3105 -1.7738
   61SAPC   C23 4749   1.703   5.614  10.477  1.1025  0.4438  0.3986
   61SAPC   H3R 4750   1.620   5.630  10.405  0.0382  0.5193  1.6139
   61SAPC   H3S 4751   1.664   5.526  10.534  0.3770 -0.6958 -1.7330
   61SAPC   C24 4752   1.840   5.576  10.417 -0.3064  0.7091  0.0777
   61SAPC   H4R 4753   1.914   5.596  10.497 -0.5341 -0.2118  0.5406
   61SAPC   H4S 4754   1.853   5.649  10.335 -2.0718  2.4942  1.3051
   61SAPC   C25 4755   1.851   5.434  10.371  0.2985 -0.5033  0.8829
   61SAPC   H5R 4756   1.810   5.370  10.451 -1.3897 -0.1007  0.3750
   61SAPC   C26 4757   1.883   5.389  10.249 -0.4960  1.4944 -0.0646
   61SAPC   H6R 4758   1.877   5.283  10.222 -1.9830  1.8340 -1.2542
   61SAPC   C27 4759   1.920   5.472  10.125  0.3831  0.1855  0.1614
   61SAPC   H7R 4760   1.906   5.579  10.149 -1.6028 -0.1391  0.5770
   61SAPC   H7S 4761   1.848   5.458  10.041 -0.3035  0.6385  0.6724
   61SAPC   C28 4762   2.069   5.454  10.092 -0.2593 -0.2752  0.4143
   61SAPC   H8R 4763   2.130   5.439  10.183  1.4097 -0.8006 -0.7302
   61SAPC   C29 4764   2.127   5.431   9.970 -0.2287 -0.0724  0.6098
   61SAPC   H9R 4765   2.236   5.413   9.964 -0.2376 -1.0157  2.5389
   61SAPC  C210 4766   2.047   5.422   9.844 -0.7723  1.0289 -0.2123
   61SAPC  H10R 4767   2.018   5.521   9.803  0.1282  0.2362 -3.0192
   61SAPC  H10S 4768   1.945   5.381   9.854  0.1636 -1.6711 -0.7486
   61SAPC  C211 4769   2.123   5.348   9.734 -0.6355 -0.2951  0.4342
   61SAPC  H11R 4770   2.162   5.250   9.768  0.1434  0.5956  2.2354
   61SAPC  C212 4771   2.152   5.385   9.607  0.2269 -0.3194  0.3075
   61SAPC  H12R 4772   2.210   5.318   9.541 -1.8931 -1.7398 -0.2325
   61SAPC  C213 4773   2.109   5.509   9.543  0.2644 -0.5766 -0.3479
   61SAPC  H13R 4774   2.185   5.550   9.473 -0.4398  3.5856  1.0531
   61SAPC  H13S 4775   2.114   5.592   9.617  0.0449 -2.0434  1.3640
   61SAPC  C214 4776   1.974   5.518   9.481  0.0939  0.0297  0.0035
   61SAPC  H14R 4777   1.892   5.496   9.551  0.2741 -0.4616  0.0679
   61SAPC  C215 4778   1.944   5.514   9.351  0.5459  0.3000  0.5439
   61SAPC  H15R 4779   1.839   5.513   9.320  0.6437 -0.2738  0.2206
   61SAPC  C216 4780   2.037   5.493   9.239 -0.4713 -0.6811  0.4083
   61SAPC  H16R 4781   2.068   5.389   9.219 -0.5681 -0.7107  0.4123
   61SAPC  H16S 4782   2.123   5.562   9.252  1.2644 -2.9446  1.5652
   61SAPC  C217 4783   1.967   5.546   9.110  0.5971 -0.1712  0.2188
   61SAPC  H17R 4784   1.954   5.657   9.113  1.8614 -0.0056  0.1521
   61SAPC  H17S 4785   1.870   5.497   9.087  0.8045  0.5263 -2.4358
   61SAPC  C218 4786   2.063   5.533   8.994  0.0846 -0.4155 -0.5251
   61SAPC  H18R 4787   2.097   5.428   8.984 -0.3756 -0.7646  1.1728
   61SAPC  H18S 4788   2.151   5.600   9.001 -1.5554  1.8705 -0.7087
   61SAPC  C219 4789   1.989   5.559   8.860  0.3490 -0.0277  0.8729
   61SAPC  H19R 4790   1.976   5.669   8.867  0.9000  0.2476 -1.5316
   61SAPC  H19S 4791   1.888   5.514   8.860  0.4483 -0.2527  0.8892
   61SAPC  C220 4792   2.065   5.527   8.730  0.4110  0.5268 -0.8059
   61SAPC  H20R 4793   2.026   5.577   8.639 -1.4485  1.8466  0.6404
   61SAPC  H20S 4794   2.064   5.416   8.718  1.1184  0.6692 -2.4633
   61SAPC  H20T 4795   2.173   5.555   8.733  0.3513  0.6880  1.0324
   61SAPC   C33 4796   1.604   6.251  10.288  0.0598  0.1965 -1.3488
   61SAPC   H3X 4797   1.529   6.172  10.267 -1.5410  1.8122 -2.0285
   61SAPC   H3Y 4798   1.703   6.207  10.314 -0.7417 -0.6957  0.3041
   61SAPC   C34 4799   1.609   6.323  10.154  0.4921  0.5548 -0.2162
   61SAPC   H4X 4800   1.506   6.347  10.120  0.9930  1.8303 -0.8850
   61SAPC   H4Y 4801   1.638   6.240  10.085  1.1913  0.0129  0.7007
   61SAPC   C35 4802   1.708   6.443  10.151 -0.0182  0.3974  0.3863
   61SAPC   H5X 4803   1.794   6.429  10.221  0.7233 -1.8113 -0.8682
   61SAPC   H5Y 4804   1.643   6.526  10.184 -0.4755  0.2916 -0.2420
   61SAPC   C36 4805   1.757   6.468  10.009  0.4530 -1.0950 -0.4373
   61SAPC   H6X 4806   1.770   6.577   9.996  1.8915 -1.2412 -0.3883
   61SAPC   H6Y 4807   1.661   6.452   9.956 -0.3256 -0.6752  0.7877
   61SAPC   C37 4808   1.874   6.385   9.967 -0.2942 -0.5839  0.5822
   61SAPC   H7X 4809   1.872   6.279   9.999  0.2297 -0.9775 -0.6349
   61SAPC   H7Y 4810   1.961   6.428  10.021 -0.7553 -3.0081  3.5105
   61SAPC   C38 4811   1.901   6.392   9.811  0.0670 -0.0062  0.3490
   61SAPC   H8X 4812   2.011   6.385   9.796 -0.0862 -0.6100 -0.5421
   61SAPC   H8Y 4813   1.858   6.485   9.767  3.2406  0.3904 -2.2815
   61SAPC   C39 4814   1.842   6.271   9.737  0.1954  0.6669 -0.0561
   61SAPC   H9X 4815   1.892   6.184   9.785  2.0054  1.6105 -0.1238
   61SAPC   H9Y 4816   1.876   6.269   9.631 -0.6088 -1.8801 -0.3263
   61SAPC  C310 4817   1.688   6.270   9.726 -0.6872  0.3178 -0.2157
   61SAPC  H10X 4818   1.641   6.267   9.827 -1.0134  1.3258 -0.3334
   61SAPC  H10Y 4819   1.667   6.176   9.671  1.3842 -1.1542  1.3392
   61SAPC  C311 4820   1.624   6.381   9.646  0.7674  0.0463 -0.4090
   61SAPC  H11X 4821   1.615   6.475   9.706  0.2766  0.1527 -0.6480
   61SAPC  H11Y 4822   1.518   6.349   9.638  0.1089  1.1756  2.3335
   61SAPC  C312 4823   1.679   6.413   9.510 -0.4847  0.0154 -0.4736
   61SAPC  H12X 4824   1.680   6.312   9.462 -0.0301 -0.7875  1.1402
   61SAPC  H12Y 4825   1.781   6.456   9.523  0.6622 -2.4310 -0.6900
   61SAPC  C313 4826   1.588   6.508   9.436  0.1459 -0.4093 -0.6115
   61SAPC  H13X 4827   1.562   6.590   9.507  0.6289  0.1859 -1.1086
   61SAPC  H13Y 4828   1.488   6.460   9.423 -1.2460  1.3833  2.2997
   61SAPC  C314 4829   1.637   6.554   9.301 -0.4409 -0.1093  0.6830
   61SAPC  H14X 4830   1.747   6.552   9.286 -0.5133  1.3042 -0.1643
   61SAPC  H14Y 4831   1.596   6.653   9.274  2.3055  0.5744 -1.4470
   61SAPC  C315 4832   1.578   6.470   9.188 -0.4169 -0.0268  0.4264
   61SAPC  H15X 4833   1.618   6.520   9.097 -2.9307  1.0258 -0.1907
   61SAPC  H15Y 4834   1.468   6.481   9.184 -0.3039  1.6480  1.2325
   61SAPC  C316 4835   1.628   6.326   9.197  0.3767  0.1718 -0.5338
   61SAPC  H16X 4836   1.576   6.270   9.278  1.4901 -2.2183 -1.3778
   61SAPC  H16Y 4837   1.738   6.339   9.213  0.3927  1.2322 -1.3937
   61SAPC  C317 4838   1.622   6.241   9.076  0.1914  0.0901  0.3927
   61SAPC  H17X 4839   1.661   6.303   8.992 -1.7981  0.2952 -0.4426
   61SAPC  H17Y 4840   1.519   6.215   9.041  0.3899  0.4946 -0.5099
   61SAPC  C318 4841   1.693   6.111   9.096 -0.6639  0.2489 -0.7391
   61SAPC  H18X 4842   1.796   6.117   9.056 -0.1066  1.9473  0.7851
   61SAPC  H18Y 4843   1.635   6.026   9.054  0.6075 -1.5386  0.9136
   61SAPC  H18Z 4844   1.689   6.085   9.204 -3.5363 -0.9437 -1.0329
   62SAPC     N 4845   4.535   0.374  11.069  0.7265 -0.2446  0.5031
   62SAPC   C12 4846   4.532   0.336  10.923 -0.3002 -0.2264 -0.7306
   62SAPC  H12A 4847   4.605   0.260  10.900 -0.4055 -0.4185 -0.4338
   62SAPC  H12B 4848   4.562   0.425  10.870 -0.5165 -0.4292 -1.1993
   62SAPC   C13 4849   4.431   0.475  11.096  0.7963 -0.2181 -0.4776
   62SAPC  H13A 4850   4.344   0.455  11.036  0.2713  3.7644 -1.2968
   62SAPC  H13B 4851   4.407   0.481  11.202  0.2383 -2.3387 -0.4393
   62SAPC  H13C 4852   4.464   0.574  11.068 -0.3240  0.5998  0.9402
   62SAPC   C14 4853   4.507   0.251  11.156  0.1138 -0.3700  0.1805
   62SAPC  H14A 4854   4.554   0.165  11.112 -0.2318  0.4165 -1.7906
   62SAPC  H14B 4855   4.551   0.276  11.252 -0.1365  1.5419 -0.1465
   62SAPC  H14C 4856   4.401   0.238  11.173 -0.0849 -1.4355 -1.7204
   62SAPC   C15 4857   4.682   0.413  11.093  0.4588  0.3735  0.0245
   62SAPC  H15A 4858   4.691   0.448  11.195 -1.4772  0.1862  0.2886
   62SAPC  H15B 4859   4.753   0.333  11.077 -2.5004 -2.9102  1.9095
   62SAPC  H15C 4860   4.705   0.494  11.025 -0.6578  1.5341  0.9799
   62SAPC   C11 4861   4.405   0.280  10.850  1.6020 -0.3353  0.4148
   62SAPC  H11A 4862   4.370   0.187  10.899  2.4739  0.4801  2.6807
   62SAPC  H11B 4863   4.425   0.233  10.751  0.1863 -0.9298  0.3870
   62SAPC     P 4864   4.271   0.476  10.737 -0.2889 -0.5477  0.2957
   62SAPC   O13 4865   4.245   0.612  10.799 -0.4341 -0.3583  0.1932
   62SAPC   O14 4866   4.371   0.474  10.627  0.4726 -0.4801 -0.0000
   62SAPC   O12 4867   4.297   0.371  10.844  0.5671 -0.0924 -0.6664
   62SAPC   O11 4868   4.133   0.415  10.687 -0.0676  0.1341  0.4739
   62SAPC    C1 4869   4.126   0.300  10.603 -0.5933  0.1797  0.7505
   62SAPC    HA 4870   4.199   0.221  10.631 -0.0898  1.3450  2.9681
   62SAPC    HB 4871   4.026   0.252  10.613 -0.5451  0.0406  0.5682
   62SAPC    C2 4872   4.145   0.338  10.454 -0.3280  0.0790 -0.3941
   62SAPC    HS 4873   4.247   0.378  10.441 -0.2291 -0.2454 -0.6431
   62SAPC   O21 4874   4.044   0.431  10.422  0.4882 -0.1386 -0.0433
   62SAPC   C21 4875   4.063   0.545  10.365 -1.0147  1.0029 -0.0646
   62SAPC   O22 4876   4.167   0.579  10.308  0.6698  0.1436 -0.0237
   62SAPC   C22 4877   3.935   0.621  10.361  0.0378 -0.0440  0.0650
   62SAPC   H2R 4878   3.904   0.641  10.466  1.8021  0.8476  0.4589
   62SAPC   H2S 4879   3.951   0.722  10.319  2.0146 -0.2234  0.2816
   62SAPC    C3 4880   4.120   0.212  10.366 -0.4900 -0.2792  0.1360
   62SAPC    HX 4881   4.022   0.160  10.371 -0.9423  0.2858 -2.1215
   62SAPC    HY 4882   4.198   0.133  10.379  1.3738  1.8507  3.6425
   62SAPC   O31 4883   4.125   0.252  10.231  0.3815 -0.0494  0.1583
   62SAPC   C31 4884   4.250   0.276  10.189 -0.2968 -0.4746  0.2534
   62SAPC   O32 4885   4.356   0.272  10.253 -0.1373 -0.2105  0.1932
   62SAPC   C32 4886   4.236   0.311  10.044 -0.1603 -0.1034  0.4577
   62SAPC   H2X 4887   4.138   0.270  10.012 -0.7465  0.4534  1.4801
   62SAPC   H2Y 4888   4.309   0.250   9.986  0.0776 -1.7323  2.3334
   62SAPC   C23 4889   3.818   0.547  10.296  0.2008  0.2347  0.0854
   62SAPC   H3R 4890   3.731   0.614  10.306 -0.5065 -0.2616 -2.1811
   62SAPC   H3S 4891   3.796   0.456  10.356 -1.7440  1.4406  1.2795
   62SAPC   C24 4892   3.818   0.515  10.144  0.5931 -0.4616  0.6691
   62SAPC   H4R 4893   3.741   0.437  10.128 -0.1580  0.1668  1.1489
   62SAPC   H4S 4894   3.913   0.465  10.115  0.5642 -0.8325  1.1920
   62SAPC   C25 4895   3.786   0.637  10.064 -0.2398 -0.3096  0.0016
   62SAPC   H5R 4896   3.768   0.725  10.128 -0.9763 -2.6637  3.2720
   62SAPC   C26 4897   3.805   0.653   9.929  0.1742  0.0531 -0.0898
   62SAPC   H6R 4898   3.808   0.746   9.871 -1.3254 -0.4174 -0.9828
   62SAPC   C27 4899   3.844   0.546   9.832 -0.0757  0.6745  1.0915
   62SAPC   H7R 4900   3.862   0.448   9.883  0.3515  0.2807  0.2092
   62SAPC   H7S 4901   3.938   0.576   9.781 -1.4466  2.1776 -0.6968
   62SAPC   C28 4902   3.747   0.505   9.723 -0.6448  0.2319 -0.1025
   62SAPC   H8R 4903   3.687   0.423   9.765  1.3763 -1.4704 -0.3829
   62SAPC   C29 4904   3.727   0.562   9.601  0.3380 -0.3383 -0.0633
   62SAPC   H9R 4905   3.655   0.517   9.531  1.6561 -0.8779 -1.1264
   62SAPC  C210 4906   3.808   0.674   9.527 -0.2782 -0.4054 -0.8830
   62SAPC  H10R 4907   3.851   0.645   9.429 -0.2768 -1.5551 -0.5500
   62SAPC  H10S 4908   3.899   0.700   9.585 -0.9099 -0.3554  0.1249
   62SAPC  C211 4909   3.722   0.797   9.524 -0.8606 -0.1133  0.5208
   62SAPC  H11R 4910   3.721   0.855   9.617  0.3421 -0.3429  0.6866
   62SAPC  C212 4911   3.654   0.836   9.415  0.9093  0.5565 -0.0171
   62SAPC  H12R 4912   3.581   0.918   9.428 -0.2681 -0.3652 -0.5490
   62SAPC  C213 4913   3.664   0.773   9.276  0.3903  0.4075  0.2722
   62SAPC  H13R 4914   3.571   0.726   9.237  0.7648 -0.0134 -0.1511
   62SAPC  H13S 4915   3.738   0.689   9.275 -0.9483 -0.8363  1.4534
   62SAPC  C214 4916   3.707   0.873   9.174 -1.1008  0.6475  0.2829
   62SAPC  H14R 4917   3.625   0.945   9.164 -2.0244 -0.2920  0.8169
   62SAPC  C215 4918   3.827   0.893   9.122 -0.7596  0.2834  1.0972
   62SAPC  H15R 4919   3.836   0.980   9.056 -1.0817  1.4531  2.5194
   62SAPC  C216 4920   3.950   0.808   9.134 -0.4555 -0.5013 -0.2171
   62SAPC  H16R 4921   3.957   0.744   9.225  2.4434 -0.2941 -0.1901
   62SAPC  H16S 4922   4.049   0.858   9.125 -0.1375 -1.2874 -1.3463
   62SAPC  C217 4923   3.944   0.707   9.009 -0.0522 -0.7438 -1.4525
   62SAPC  H17R 4924   3.837   0.695   8.982 -0.8240  1.2611  0.4472
   62SAPC  H17S 4925   3.989   0.607   9.032 -0.8135 -0.6813  0.4571
   62SAPC  C218 4926   4.025   0.770   8.890 -0.1670 -0.2838 -0.1390
   62SAPC  H18R 4927   4.135   0.764   8.908 -0.4076 -1.2627  1.1517
   62SAPC  H18S 4928   3.997   0.876   8.878  1.5036  0.0697 -1.2415
   62SAPC  C219 4929   3.987   0.711   8.750  0.0427  0.0436  0.0618
   62SAPC  H19R 4930   4.042   0.762   8.668 -2.6295 -0.9566 -2.5232
   62SAPC  H19S 4931   3.879   0.717   8.724  0.2030 -1.1246 -0.9450
   62SAPC  C220 4932   4.028   0.565   8.747  0.0355  0.9358 -0.4185
   62SAPC  H20R 4933   4.018   0.514   8.649 -2.0041  1.4883 -0.5476
   62SAPC  H20S 4934   3.958   0.508   8.812  0.1075  1.4970  0.1644
   62SAPC  H20T 4935   4.128   0.552   8.794 -0.8225  2.5555  2.0388
   62SAPC   C33 4936   4.239   0.464  10.032  0.0885  0.5182 -0.8816
   62SAPC   H3X 4937   4.317   0.520  10.089  0.3269 -0.1198 -0.5800
   62SAPC   H3Y 4938   4.144   0.509  10.067  1.5916  2.1537  1.3897
   62SAPC   C34 4939   4.268   0.509   9.888  0.1049 -0.9055 -0.5040
   62SAPC   H4X 4940   4.376   0.502   9.862 -0.3206 -0.2621 -2.6625
   62SAPC   H4Y 4941   4.242   0.617   9.884 -0.4172 -0.9144  1.5470
   62SAPC   C35 4942   4.194   0.431   9.768 -0.5349  0.0216  0.5441
   62SAPC   H5X 4943   4.083   0.431   9.779 -0.7593  3.5122 -0.4569
   62SAPC   H5Y 4944   4.233   0.327   9.776 -1.3740 -0.2325  1.5256
   62SAPC   C36 4945   4.219   0.501   9.633 -0.1919 -0.2093  0.2062
   62SAPC   H6X 4946   4.320   0.467   9.599 -0.7270 -2.3797  0.6255
   62SAPC   H6Y 4947   4.207   0.610   9.649  1.5100 -0.2410  2.1016
   62SAPC   C37 4948   4.130   0.467   9.519 -0.5483  0.3777 -0.3333
   62SAPC   H7X 4949   4.028   0.459   9.565 -1.0203  1.2028 -1.2174
   62SAPC   H7Y 4950   4.157   0.364   9.487 -1.0953 -0.1428  0.7901
   62SAPC   C38 4951   4.156   0.563   9.402  0.4912  0.5445  0.1915
   62SAPC   H8X 4952   4.185   0.661   9.446 -0.5010  0.3998  1.2294
   62SAPC   H8Y 4953   4.058   0.575   9.352  0.2027 -1.2431  0.2571
   62SAPC   C39 4954   4.271   0.510   9.311  0.3815 -0.3998 -1.0719
   62SAPC   H9X 4955   4.248   0.402   9.298  0.1758 -0.5761  0.5990
   62SAPC   H9Y 4956   4.367   0.526   9.364 -0.7138 -1.7317  1.4696
   62SAPC  C310 4957   4.276   0.573   9.177 -0.6469 -0.1596  0.5573
   62SAPC  H10X 4958   4.285   0.683   9.191 -1.1989 -0.1480  0.8445
   62SAPC  H10Y 4959   4.184   0.550   9.119 -0.2108  0.3172 -0.3343
   62SAPC  C311 4960   4.399   0.533   9.091  0.0890 -0.2245  0.0527
   62SAPC  H11X 4961   4.408   0.423   9.109 -0.5347  0.0557  2.5221
   62SAPC  H11Y 4962   4.487   0.580   9.139 -1.6982  1.4409  1.9395
   62SAPC  C312 4963   4.380   0.577   8.948  0.5177 -0.7448  0.3962
   62SAPC  H12X 4964   4.353   0.684   8.942  1.6263 -0.4437  0.5243
   62SAPC  H12Y 4965   4.287   0.525   8.916  0.4117 -1.3671  1.6369
   62SAPC  C313 4966   4.512   0.541   8.877 -0.7081 -0.5434 -1.3413
   62SAPC  H13X 4967   4.536   0.439   8.914 -1.7157  0.2650  1.9551
   62SAPC  H13Y 4968   4.594   0.601   8.923 -1.2795  2.2017 -3.6014
   62SAPC  C314 4969   4.512   0.561   8.728 -0.1294 -0.7324 -0.2226
   62SAPC  H14X 4970   4.613   0.583   8.688 -0.7080  1.3607 -0.6593
   62SAPC  H14Y 4971   4.453   0.650   8.700 -0.0292 -0.1980  1.2317
   62SAPC  C315 4972   4.454   0.437   8.656  0.3407  0.1531  0.2972
   62SAPC  H15X 4973   4.362   0.416   8.714  1.4088  0.0807  2.0175
   62SAPC  H15Y 4974   4.511   0.343   8.667  1.4390  1.1053  3.9779
   62SAPC  C316 4975   4.407   0.458   8.513  1.2924 -1.0872  0.0115
   62SAPC  H16X 4976   4.490   0.508   8.459 -0.7645  2.7283 -0.0111
   62SAPC  H16Y 4977   4.328   0.537   8.515  0.3990 -1.8988  3.2148
   62SAPC  C317 4978   4.337   0.328   8.464 -0.2868 -0.1497  0.1958
   62SAPC  H17X 4979   4.308   0.259   8.546 -1.4291 -1.7179 -1.4595
   62SAPC  H17Y 4980   4.415   0.272   8.409  0.4957  1.7901 -0.7885
   62SAPC  C318 4981   4.213   0.349   8.372 -0.2757  0.3767 -0.4968
   62SAPC  H18X 4982   4.166   0.260   8.324  0.2653  0.9615 -2.1859
   62SAPC  H18Y 4983   4.255   0.417   8.295 -0.4625  0.4258 -0.5563
   62SAPC  H18Z 4984   4.138   0.404   8.432 -0.7130  0.9443 -1.5422
   63SAPC     N 4985   2.420   4.574   6.021 -0.2786  0.2901 -0.2366
   63SAPC   C12 4986   2.426   4.451   6.112 -0.0682 -1.0518 -0.1245
   63SAPC  H12A 4987   2.395   4.370   6.048  0.6672 -0.2411 -1.5675
   63SAPC  H12B 4988   2.344   4.453   6.182 -0.0177 -0.7777 -0.0717
   63SAPC   C13 4989   2.524   4.571   5.917 -0.0194  0.0399 -0.5539
   63SAPC  H13A 4990   2.512   4.657   5.853  2.0038 -0.1623 -1.2825
   63SAPC  H13B 4991   2.620   4.584   5.965 -0.7234 -1.2282  1.3137
   63SAPC  H13C 4992   2.520   4.479   5.859 -3.6992  0.5830 -1.3575
   63SAPC   C14 4993   2.288   4.563   5.965 -0.5272  0.3772  0.6166
   63SAPC  H14A 4994   2.254   4.642   5.900 -1.8015 -0.3556  0.3575
   63SAPC  H14B 4995   2.266   4.471   5.912 -1.8573 -0.0319  1.8129
   63SAPC  H14C 4996   2.213   4.585   6.039 -1.8182 -0.2813 -0.4520
   63SAPC   C15 4997   2.429   4.695   6.099 -0.9626  0.1404 -0.0142
   63SAPC  H15A 4998   2.352   4.711   6.174 -3.0362  2.7295 -2.4872
   63SAPC  H15B 4999   2.519   4.691   6.159 -1.0738 -0.9421  0.1109
   63SAPC  H15C 5000   2.421   4.786   6.041 -2.1542 -0.4813 -0.8565
   63SAPC   C11 5001   2.551   4.421   6.189  0.1505  0.4782  0.6586
   63SAPC  H11A 5002   2.626   4.387   6.115 -1.2189 -2.4551  0.4742
   63SAPC  H11B 5003   2.564   4.334   6.256  0.3340  2.4080  3.3120
   63SAPC     P 5004   2.747   4.565   6.282 -0.4105 -0.0422  0.0813
   63SAPC   O13 5005   2.832   4.441   6.295  0.3412  0.0121 -0.2137
   63SAPC   O14 5006   2.786   4.658   6.181 -0.1837  0.2516  0.1718
   63SAPC   O12 5007   2.586   4.528   6.273  0.0760 -0.1989 -0.6848
   63SAPC   O11 5008   2.773   4.643   6.415  0.3499 -0.1301  0.9628
   63SAPC    C1 5009   2.697   4.638   6.527  0.1877  0.4194 -0.3238
   63SAPC    HA 5010   2.719   4.733   6.580  1.3130  0.8417 -1.5113
   63SAPC    HB 5011   2.588   4.632   6.506  0.1356 -2.9081  0.3466
   63SAPC    C2 5012   2.742   4.519   6.615  0.4270  0.3542  0.7917
   63SAPC    HS 5013   2.738   4.427   6.552  0.9657 -0.8296  2.4214
   63SAPC   O21 5014   2.654   4.505   6.728 -0.3106  0.1859  0.1360
   63SAPC   C21 5015   2.537   4.456   6.713  0.1884 -0.0330  0.1325
   63SAPC   O22 5016   2.490   4.420   6.605 -0.3680 -0.1443 -0.1906
   63SAPC   C22 5017   2.468   4.456   6.846 -0.0836  0.1726  0.0488
   63SAPC   H2R 5018   2.425   4.556   6.868  0.2638 -0.0550  1.8799
   63SAPC   H2S 5019   2.386   4.382   6.840  1.4137 -1.5927  0.6584
   63SAPC    C3 5020   2.884   4.530   6.664 -0.1544 -0.5134  0.4934
   63SAPC    HX 5021   2.891   4.626   6.721 -1.1887  0.6099 -1.1957
   63SAPC    HY 5022   2.950   4.562   6.581  1.1145  2.9371  2.5902
   63SAPC   O31 5023   2.929   4.414   6.736  0.2841  0.0639  0.1905
   63SAPC   C31 5024   2.954   4.421   6.865 -0.5513 -0.1481  0.1861
   63SAPC   O32 5025   2.947   4.515   6.938 -0.0582 -0.4120 -0.6932
   63SAPC   C32 5026   2.979   4.278   6.916  0.9963 -0.9301  0.1488
   63SAPC   H2X 5027   3.063   4.232   6.860  0.1509 -1.2280 -0.9205
   63SAPC   H2Y 5028   2.890   4.214   6.899 -0.1641  0.6197  0.1088
   63SAPC   C23 5029   2.562   4.430   6.959 -0.4711  0.3165  0.0658
   63SAPC   H3R 5030   2.637   4.505   6.992  0.0532  0.0710 -0.5550
   63SAPC   H3S 5031   2.620   4.338   6.937 -1.7724  0.0455 -2.6392
   63SAPC   C24 5032   2.488   4.385   7.086  0.4208  0.5217 -0.0802
   63SAPC   H4R 5033   2.556   4.328   7.152 -2.1262 -3.3214 -0.4316
   63SAPC   H4S 5034   2.399   4.320   7.070  1.0918 -1.0535  2.1334
   63SAPC   C25 5035   2.436   4.502   7.170  1.0344 -0.3446  0.0418
   63SAPC   H5R 5036   2.360   4.564   7.121 -2.2007 -2.2837  2.2541
   63SAPC   C26 5037   2.446   4.521   7.302  0.1615 -0.4018 -0.0809
   63SAPC   H6R 5038   2.415   4.618   7.345  0.9116 -0.3342  0.3348
   63SAPC   C27 5039   2.509   4.434   7.405  0.0592 -0.9061 -0.2218
   63SAPC   H7R 5040   2.582   4.497   7.460  1.4756  0.9839 -3.8714
   63SAPC   H7S 5041   2.565   4.353   7.353 -0.0173 -0.8036 -0.4690
   63SAPC   C28 5042   2.408   4.383   7.498  0.0001 -0.0902  0.0167
   63SAPC   H8R 5043   2.352   4.296   7.459 -0.1046  0.9317 -2.2926
   63SAPC   C29 5044   2.388   4.422   7.625 -0.0962  0.0524 -0.2387
   63SAPC   H9R 5045   2.312   4.363   7.679 -0.2111  0.3972 -0.0224
   63SAPC  C210 5046   2.457   4.529   7.706  0.5860  0.6649 -0.0069
   63SAPC  H10R 5047   2.415   4.625   7.671  0.7110  0.1673 -1.5687
   63SAPC  H10S 5048   2.568   4.533   7.699  0.5583  2.7013  0.3498
   63SAPC  C211 5049   2.411   4.515   7.857  0.5596  0.3858 -1.3712
   63SAPC  H11R 5050   2.306   4.490   7.875  0.9247 -0.9327 -1.0168
   63SAPC  C212 5051   2.484   4.540   7.965  0.6138  0.4587  0.4959
   63SAPC  H12R 5052   2.426   4.535   8.059  0.1877  1.8352  0.3359
   63SAPC  C213 5053   2.633   4.568   7.975 -0.6993  0.0187  0.4674
   63SAPC  H13R 5054   2.654   4.677   7.986  1.2251 -0.3516  0.8343
   63SAPC  H13S 5055   2.690   4.513   7.897 -1.8366  0.5859 -0.7876
   63SAPC  C214 5056   2.691   4.487   8.089  0.4411 -0.0131 -0.9296
   63SAPC  H14R 5057   2.715   4.382   8.065 -0.3669 -0.4345  0.0321
   63SAPC  C215 5058   2.723   4.527   8.214 -0.1115  0.5776 -0.1062
   63SAPC  H15R 5059   2.761   4.457   8.289 -0.4524  0.7290  0.2103
   63SAPC  C216 5060   2.710   4.663   8.270 -0.4553 -0.6660 -0.0697
   63SAPC  H16R 5061   2.698   4.742   8.193  2.0158 -1.6142 -1.5351
   63SAPC  H16S 5062   2.807   4.693   8.316  0.6221 -2.1750 -1.2561
   63SAPC  C217 5063   2.590   4.655   8.368 -0.5995  0.0229 -0.1499
   63SAPC  H17R 5064   2.491   4.616   8.336 -0.6845  0.9092 -1.0392
   63SAPC  H17S 5065   2.555   4.756   8.397 -1.0173 -0.2385  0.2615
   63SAPC  C218 5066   2.640   4.591   8.497 -0.2437 -0.1794  0.1408
   63SAPC  H18R 5067   2.746   4.609   8.526  0.0836 -3.0494  1.0277
   63SAPC  H18S 5068   2.643   4.484   8.469  0.1131  0.1285 -1.0467
   63SAPC  C219 5069   2.551   4.618   8.612 -0.0241  0.4939  0.1522
   63SAPC  H19R 5070   2.460   4.563   8.579 -0.7969  0.8831  1.5313
   63SAPC  H19S 5071   2.521   4.725   8.622  0.2991  0.4929  1.2832
   63SAPC  C220 5072   2.595   4.560   8.741  0.1599 -0.2954 -0.0075
   63SAPC  H20R 5073   2.517   4.554   8.820 -0.3880  3.1019 -0.1640
   63SAPC  H20S 5074   2.675   4.625   8.784  0.1772  0.1478 -0.7105
   63SAPC  H20T 5075   2.643   4.460   8.734 -0.1924 -0.6668  2.0189
   63SAPC   C33 5076   3.000   4.274   7.069 -0.5228  0.4567  0.5967
   63SAPC   H3X 5077   3.026   4.378   7.098 -0.4331  0.8371 -0.7798
   63SAPC   H3Y 5078   3.076   4.195   7.090 -0.1939  0.0732 -1.7559
   63SAPC   C34 5079   2.876   4.243   7.151 -0.8880  0.6221 -0.2889
   63SAPC   H4X 5080   2.824   4.148   7.127 -1.6432  0.7144  0.8990
   63SAPC   H4Y 5081   2.813   4.330   7.124 -0.6405  0.6075 -0.9369
   63SAPC   C35 5082   2.912   4.235   7.302  0.3964  0.3305  0.4282
   63SAPC   H5X 5083   2.818   4.227   7.361  0.0789 -1.2749 -0.2534
   63SAPC   H5Y 5084   2.965   4.331   7.320  0.5863  0.4058 -0.5088
   63SAPC   C36 5085   2.998   4.116   7.340 -0.1244 -0.0472 -0.1314
   63SAPC   H6X 5086   3.094   4.107   7.286 -1.1019 -1.7074 -1.6893
   63SAPC   H6Y 5087   2.942   4.023   7.316  0.0594 -0.2681  0.2711
   63SAPC   C37 5088   3.031   4.121   7.490  0.3504  0.5563 -0.5330
   63SAPC   H7X 5089   2.976   4.031   7.525 -1.0641  1.1377 -1.2200
   63SAPC   H7Y 5090   2.988   4.214   7.533 -0.2169  0.9056 -1.8229
   63SAPC   C38 5091   3.182   4.115   7.517 -0.8391  0.0889  0.1962
   63SAPC   H8X 5092   3.234   4.186   7.449 -1.4414 -0.9473 -1.3993
   63SAPC   H8Y 5093   3.222   4.013   7.496  2.2967  1.4175 -0.9654
   63SAPC   C39 5094   3.242   4.149   7.658 -0.3977 -0.1260  0.9223
   63SAPC   H9X 5095   3.211   4.251   7.686 -1.7578 -0.0932 -0.5666
   63SAPC   H9Y 5096   3.353   4.157   7.651 -0.2208 -2.4919 -0.4446
   63SAPC  C310 5097   3.206   4.051   7.772 -0.4361 -0.5092 -0.0010
   63SAPC  H10X 5098   3.237   3.953   7.730 -0.9517 -0.4791 -0.4529
   63SAPC  H10Y 5099   3.099   4.049   7.800 -0.2579 -1.7333  0.6422
   63SAPC  C311 5100   3.287   4.072   7.901  0.0972 -0.2002 -0.0773
   63SAPC  H11X 5101   3.256   4.172   7.940 -0.0500 -0.3233  0.1195
   63SAPC  H11Y 5102   3.396   4.069   7.880  0.3835 -0.2352  1.3737
   63SAPC  C312 5103   3.255   3.975   8.016  1.0364 -0.0646 -0.1835
   63SAPC  H12X 5104   3.308   3.880   7.995  3.2727  0.6392  1.9026
   63SAPC  H12Y 5105   3.144   3.967   8.024  1.0680 -0.2685  0.0380
   63SAPC  C313 5106   3.305   4.027   8.147  0.2108 -0.2709 -0.4658
   63SAPC  H13X 5107   3.258   4.125   8.172  1.0946  0.2448 -0.7899
   63SAPC  H13Y 5108   3.415   4.034   8.138  0.2850  1.3317  1.1285
   63SAPC  C314 5109   3.261   3.932   8.260 -0.4758  0.5037  0.2602
   63SAPC  H14X 5110   3.342   3.859   8.279 -0.9099 -0.3143 -0.9665
   63SAPC  H14Y 5111   3.164   3.887   8.231 -1.5370  3.4364 -1.2129
   63SAPC  C315 5112   3.240   4.003   8.399  0.1688  0.9043  0.3049
   63SAPC  H15X 5113   3.168   4.085   8.381 -0.2539  0.7062  1.0216
   63SAPC  H15Y 5114   3.333   4.051   8.435 -0.7256  1.2905  2.2350
   63SAPC  C316 5115   3.170   3.920   8.507 -0.1158  0.2521  0.0093
   63SAPC  H16X 5116   3.239   3.834   8.515 -0.6206 -0.1742 -0.1374
   63SAPC  H16Y 5117   3.072   3.880   8.473 -0.6072  0.4084  1.1860
   63SAPC  C317 5118   3.150   4.001   8.634 -0.2555 -0.0376 -0.1001
   63SAPC  H17X 5119   3.110   4.093   8.588 -2.1308 -1.3519 -1.2336
   63SAPC  H17Y 5120   3.246   4.023   8.686  1.0725 -0.1070 -2.3993
   63SAPC  C318 5121   3.043   3.954   8.722  0.5557  1.0206 -0.3964
   63SAPC  H18X 5122   2.972   3.895   8.660  3.1679 -2.2849 -0.6095
   63SAPC  H18Y 5123   2.987   4.025   8.786 -1.2202  0.8151 -1.6461
   63SAPC  H18Z 5124   3.089   3.884   8.796 -0.9520  0.6408  0.2031
   64SAPC     N 5125   3.116   4.994   5.916  0.3386 -0.1369  0.6465
   64SAPC   C12 5126   3.237   4.919   5.969  0.3441  0.2072 -0.0216
   64SAPC  H12A 5127   3.231   4.823   5.920 -1.4515  1.2606 -2.0895
   64SAPC  H12B 5128   3.229   4.928   6.076 -0.0821 -0.4967  0.0095
   64SAPC   C13 5129   2.990   4.904   5.929 -0.2769  0.2917  0.5021
   64SAPC  H13A 5130   2.911   4.952   5.873 -2.8525 -2.2305  1.7286
   64SAPC  H13B 5131   3.010   4.813   5.874  1.2714  0.9958 -0.1695
   64SAPC  H13C 5132   2.968   4.888   6.033  2.1508 -0.5788  0.9484
   64SAPC   C14 5133   3.095   5.120   5.992  0.4986  0.4224  0.2022
   64SAPC  H14A 5134   3.010   5.181   5.966 -0.3775  0.2473  2.4510
   64SAPC  H14B 5135   3.080   5.103   6.098 -2.4367  1.1878 -0.0110
   64SAPC  H14C 5136   3.185   5.179   5.989  0.4882  0.4050 -1.5727
   64SAPC   C15 5137   3.136   5.028   5.775  0.1668  0.6587 -0.5356
   64SAPC  H15A 5138   3.128   4.937   5.718  0.3158  0.0977  0.3249
   64SAPC  H15B 5139   3.064   5.099   5.736 -0.5443 -0.5624 -1.5144
   64SAPC  H15C 5140   3.239   5.056   5.762  0.4348  1.8151  2.9559
   64SAPC   C11 5141   3.375   4.981   5.943 -0.4562 -0.4534 -0.0209
   64SAPC  H11A 5142   3.386   4.996   5.834  0.6800 -2.5102 -0.2347
   64SAPC  H11B 5143   3.457   4.910   5.968  1.1494  1.0072 -0.9089
   64SAPC     P 5144   3.423   5.107   6.176 -0.2312  0.3181  0.0261
   64SAPC   O13 5145   3.521   5.215   6.206  0.0321 -0.2173 -0.1018
   64SAPC   O14 5146   3.287   5.106   6.239  0.4906 -0.3221  0.1126
   64SAPC   O12 5147   3.405   5.099   6.016 -0.0544  0.5437  0.5187
   64SAPC   O11 5148   3.492   4.965   6.204 -0.0551 -0.0368  0.6070
   64SAPC    C1 5149   3.439   4.866   6.294 -1.2130 -0.3113  0.2575
   64SAPC    HA 5150   3.331   4.890   6.310 -0.7714  1.4318  0.7982
   64SAPC    HB 5151   3.443   4.770   6.237  0.6452 -0.5227  0.6783
   64SAPC    C2 5152   3.523   4.856   6.424 -0.1697 -0.3742 -0.0857
   64SAPC    HS 5153   3.475   4.775   6.484 -0.1315 -2.1273 -2.3005
   64SAPC   O21 5154   3.522   4.977   6.501  0.1009  0.2264 -0.0275
   64SAPC   C21 5155   3.416   5.002   6.579  0.0768 -0.2689 -0.0058
   64SAPC   O22 5156   3.323   4.925   6.591  0.1750  0.5076  0.1134
   64SAPC   C22 5157   3.409   5.140   6.644  0.9939 -0.0077 -0.5347
   64SAPC   H2R 5158   3.350   5.207   6.577 -0.0571 -0.6603 -0.2884
   64SAPC   H2S 5159   3.352   5.121   6.738  0.1022  4.2820  0.0179
   64SAPC    C3 5160   3.669   4.816   6.382  0.3184 -0.5406  0.1776
   64SAPC    HX 5161   3.705   4.898   6.317 -1.2175  0.7327  0.8890
   64SAPC    HY 5162   3.664   4.723   6.322  0.2181 -0.9554  0.8208
   64SAPC   O31 5163   3.755   4.795   6.491 -0.0981  0.3234  0.7194
   64SAPC   C31 5164   3.813   4.903   6.553 -0.6569 -0.1056 -0.0584
   64SAPC   O32 5165   3.831   5.016   6.509  0.0067  0.1180 -0.4355
   64SAPC   C32 5166   3.861   4.853   6.688  0.2381  0.5271  0.0814
   64SAPC   H2X 5167   3.862   4.953   6.737  1.1349  0.4577  0.2273
   64SAPC   H2Y 5168   3.965   4.817   6.676  0.0070  0.0914 -0.6845
   64SAPC   C23 5169   3.535   5.223   6.686 -0.5023  0.5873  0.4848
   64SAPC   H3R 5170   3.513   5.324   6.726 -0.1024  1.0610 -0.4701
   64SAPC   H3S 5171   3.601   5.239   6.598 -2.5190 -1.5779 -1.5501
   64SAPC   C24 5172   3.613   5.139   6.791  0.2225 -0.4645  0.2100
   64SAPC   H4R 5173   3.647   5.037   6.766  0.2576 -1.2749  3.1396
   64SAPC   H4S 5174   3.528   5.131   6.863  0.8975 -2.5565  0.8519
   64SAPC   C25 5175   3.719   5.239   6.848 -0.2058  0.7257  0.2722
   64SAPC   H5R 5176   3.809   5.255   6.787  0.0624  2.2879  1.0195
   64SAPC   C26 5177   3.714   5.305   6.963 -0.3570  0.4837 -0.1404
   64SAPC   H6R 5178   3.800   5.370   6.987 -0.6352  1.0133 -0.5429
   64SAPC   C27 5179   3.608   5.301   7.062 -0.1834  0.3614  0.3985
   64SAPC   H7R 5180   3.513   5.339   7.018  1.3917  1.5605 -2.2598
   64SAPC   H7S 5181   3.628   5.376   7.142  2.3534 -1.9584  2.1214
   64SAPC   C28 5182   3.585   5.169   7.138 -0.4169  0.2241 -0.5702
   64SAPC   H8R 5183   3.547   5.094   7.068 -2.9573  0.7926  0.0920
   64SAPC   C29 5184   3.612   5.140   7.268 -0.1210 -0.2133  0.1651
   64SAPC   H9R 5185   3.573   5.041   7.298  1.4701 -0.7878  0.4805
   64SAPC  C210 5186   3.664   5.230   7.377  0.2812  0.1801  0.6877
   64SAPC  H10R 5187   3.747   5.295   7.341  0.7839 -0.8966 -0.1483
   64SAPC  H10S 5188   3.713   5.167   7.455 -0.9650 -0.5275  0.9235
   64SAPC  C211 5189   3.549   5.316   7.422 -0.3497 -0.3851  0.4481
   64SAPC  H11R 5190   3.478   5.346   7.344  1.5343 -1.6150 -1.8769
   64SAPC  C212 5191   3.536   5.353   7.544 -0.2597 -0.4931  0.1044
   64SAPC  H12R 5192   3.451   5.417   7.572  0.2208 -0.4282  1.4885
   64SAPC  C213 5193   3.608   5.318   7.669 -0.3599  0.0892  0.0070
   64SAPC  H13R 5194   3.643   5.413   7.716 -0.4327  0.1697 -0.1024
   64SAPC  H13S 5195   3.701   5.262   7.642 -0.3278 -0.4606  1.1854
   64SAPC  C214 5196   3.533   5.225   7.769  0.3577  0.1135 -0.1450
   64SAPC  H14R 5197   3.544   5.116   7.765 -1.4009 -0.0851 -0.4672
   64SAPC  C215 5198   3.464   5.270   7.872 -0.6998  0.6316  0.6478
   64SAPC  H15R 5199   3.435   5.183   7.933 -2.1429  1.9368  1.9432
   64SAPC  C216 5200   3.428   5.406   7.921  0.2608 -0.1872  1.1142
   64SAPC  H16R 5201   3.317   5.410   7.919  0.2584 -0.3059 -0.2020
   64SAPC  H16S 5202   3.475   5.481   7.854  3.0985 -2.4272  0.4170
   64SAPC  C217 5203   3.470   5.452   8.065 -0.2762  0.1412 -0.0453
   64SAPC  H17R 5204   3.418   5.392   8.143  0.5855  1.5125  1.6387
   64SAPC  H17S 5205   3.448   5.560   8.080  0.5195  0.3359 -0.2416
   64SAPC  C218 5206   3.619   5.421   8.097  0.3174 -0.5906 -0.3668
   64SAPC  H18R 5207   3.689   5.475   8.029 -1.0077 -0.2216 -1.5019
   64SAPC  H18S 5208   3.640   5.312   8.097  0.1228 -0.6332  0.4637
   64SAPC  C219 5209   3.641   5.475   8.238  0.2883  0.9194  0.6316
   64SAPC  H19R 5210   3.574   5.415   8.304  0.2481  1.0247  0.6858
   64SAPC  H19S 5211   3.608   5.581   8.241 -0.7581  0.6524 -0.7926
   64SAPC  C220 5212   3.784   5.465   8.280 -0.5400 -0.4355  0.0331
   64SAPC  H20R 5213   3.846   5.523   8.209 -2.1443  0.2403 -0.8915
   64SAPC  H20S 5214   3.818   5.360   8.290  0.7881  0.1350  2.1047
   64SAPC  H20T 5215   3.807   5.510   8.379 -0.6442 -0.1247 -0.0818
   64SAPC   C33 5216   3.768   4.764   6.765 -0.3490  0.6915  0.1677
   64SAPC   H3X 5217   3.729   4.684   6.699  0.7440  1.6286 -1.7141
   64SAPC   H3Y 5218   3.672   4.813   6.791 -0.4795  0.3148  0.4016
   64SAPC   C34 5219   3.822   4.708   6.901 -0.7133 -0.0420  0.6751
   64SAPC   H4X 5220   3.920   4.661   6.877  0.6579  2.9297  0.0730
   64SAPC   H4Y 5221   3.752   4.630   6.937 -2.7799  1.7162  0.6313
   64SAPC   C35 5222   3.854   4.810   7.012 -0.3603 -0.6232  0.1560
   64SAPC   H5X 5223   3.760   4.867   7.029  0.0520  1.0970 -2.6909
   64SAPC   H5Y 5224   3.942   4.872   6.984  0.6169 -0.5811  3.0093
   64SAPC   C36 5225   3.905   4.737   7.137 -0.3712  1.1425  0.1012
   64SAPC   H6X 5226   4.000   4.680   7.125 -0.7798  0.2502  1.0318
   64SAPC   H6Y 5227   3.834   4.658   7.168  0.3429  1.6208  3.2876
   64SAPC   C37 5228   3.923   4.833   7.251  0.2508 -0.0291  0.3395
   64SAPC   H7X 5229   3.829   4.893   7.257  1.6773  2.2993  0.4489
   64SAPC   H7Y 5230   4.007   4.901   7.230 -0.8878  1.1457 -0.5436
   64SAPC   C38 5231   3.963   4.769   7.388  0.7956  0.2003  0.3801
   64SAPC   H8X 5232   4.070   4.740   7.387  0.9479  0.7581 -0.7250
   64SAPC   H8Y 5233   3.906   4.677   7.415 -0.7273  1.9266  3.6636
   64SAPC   C39 5234   3.949   4.878   7.494 -0.6202  0.5002 -0.0917
   64SAPC   H9X 5235   3.850   4.928   7.494  0.1014  2.0578  1.9090
   64SAPC   H9Y 5236   4.025   4.958   7.482 -1.8830  2.1281  2.1009
   64SAPC  C310 5237   3.971   4.817   7.639 -0.2239 -0.0229 -0.1248
   64SAPC  H10X 5238   4.074   4.776   7.647 -0.6599 -0.9929  0.7535
   64SAPC  H10Y 5239   3.907   4.728   7.659 -0.3654  0.4134  1.5691
   64SAPC  C311 5240   3.938   4.920   7.742  0.3103  0.1608 -0.5283
   64SAPC  H11X 5241   3.830   4.946   7.742 -0.3873 -2.3886  0.8121
   64SAPC  H11Y 5242   4.007   5.006   7.728 -1.2140  1.5746  0.2920
   64SAPC  C312 5243   3.962   4.885   7.893 -0.4713  0.0322 -0.7947
   64SAPC  H12X 5244   4.061   4.835   7.888 -1.3231 -1.7767 -0.6410
   64SAPC  H12Y 5245   3.887   4.808   7.922 -0.6221  0.3350 -0.3716
   64SAPC  C313 5246   3.973   5.004   7.976  0.2328 -0.2741  0.1295
   64SAPC  H13X 5247   3.905   5.082   7.936  1.3986  0.9426  0.4394
   64SAPC  H13Y 5248   4.074   5.049   7.971  0.3224 -0.1729  2.2006
   64SAPC  C314 5249   3.923   4.976   8.122  0.5369  0.4445  0.0993
   64SAPC  H14X 5250   4.008   4.929   8.175  1.4893  0.4148 -1.3949
   64SAPC  H14Y 5251   3.841   4.901   8.115  0.5442  0.3352  1.0952
   64SAPC  C315 5252   3.874   5.109   8.205  0.4479  0.3105 -0.4646
   64SAPC  H15X 5253   3.816   5.171   8.133  4.8278  1.6390 -3.2576
   64SAPC  H15Y 5254   3.960   5.179   8.218 -0.9665  2.0317  0.0709
   64SAPC  C316 5255   3.797   5.069   8.333  0.6896 -0.3683 -0.5247
   64SAPC  H16X 5256   3.802   5.169   8.383  1.8293  0.2169 -1.7515
   64SAPC  H16Y 5257   3.855   4.995   8.393  1.2209 -0.0800 -0.6749
   64SAPC  C317 5258   3.660   5.026   8.310  0.5409 -0.2016 -0.3389
   64SAPC  H17X 5259   3.650   4.963   8.219  1.4489 -0.0725 -0.5428
   64SAPC  H17Y 5260   3.610   5.121   8.280 -0.5852 -0.7924 -0.3386
   64SAPC  C318 5261   3.578   4.953   8.424 -0.1415  0.1778  0.0990
   64SAPC  H18X 5262   3.601   4.844   8.422  1.6905  0.3949  3.3269
   64SAPC  H18Y 5263   3.468   4.970   8.420 -0.3241 -0.7984  0.6134
   64SAPC  H18Z 5264   3.609   4.976   8.528 -3.6311  0.9603  1.1112
   65SAPC     N 5265   3.276   0.099   5.921  0.0047  0.6578  0.0305
   65SAPC   C12 5266   3.406   0.135   5.855 -0.8489  0.3227 -0.6190
   65SAPC  H12A 5267   3.397   0.208   5.776  0.0565  1.1335  0.0179
   65SAPC  H12B 5268   3.437   0.048   5.798 -1.1800  0.0252 -0.3511
   65SAPC   C13 5269   3.238   0.193   6.027  0.5838 -0.0040 -0.2547
   65SAPC  H13A 5270   3.312   0.207   6.105 -1.3551 -0.3803  1.7616
   65SAPC  H13B 5271   3.238   0.294   5.989  1.8528 -0.1951 -0.8446
   65SAPC  H13C 5272   3.143   0.171   6.073  0.9565  1.6750  1.4678
   65SAPC   C14 5273   3.163   0.103   5.824  0.1094  0.0164 -0.0471
   65SAPC  H14A 5274   3.070   0.100   5.878  0.2702 -0.4514  0.2050
   65SAPC  H14B 5275   3.165   0.194   5.766  0.8772 -0.9402 -1.6068
   65SAPC  H14C 5276   3.156   0.019   5.756  0.2197 -2.5971  2.9797
   65SAPC   C15 5277   3.283  -0.032   5.976 -0.1593 -0.8467 -0.0485
   65SAPC  H15A 5278   3.197  -0.066   6.031  1.1358 -1.0236  1.9503
   65SAPC  H15B 5279   3.303  -0.103   5.898  1.0939 -0.4685 -0.0893
   65SAPC  H15C 5280   3.354  -0.033   6.056 -1.3875 -0.7578  1.0810
   65SAPC   C11 5281   3.524   0.167   5.942  0.1573 -0.0923  0.3221
   65SAPC  H11A 5282   3.612   0.182   5.875 -0.1120 -0.3445 -0.0873
   65SAPC  H11B 5283   3.556   0.089   6.015  0.9146 -0.5395 -0.4710
   65SAPC     P 5284   3.544   0.326   6.155 -0.5267 -0.1165 -0.0815
   65SAPC   O13 5285   3.674   0.269   6.199  0.0909  0.6105  0.5041
   65SAPC   O14 5286   3.530   0.470   6.181  0.5010 -0.4036  0.0837
   65SAPC   O12 5287   3.520   0.298   6.005 -0.0058  0.2421  0.3560
   65SAPC   O11 5288   3.430   0.259   6.235  0.1916 -0.7806 -0.3985
   65SAPC    C1 5289   3.329   0.327   6.310 -0.5680 -0.6906  0.5005
   65SAPC    HA 5290   3.326   0.435   6.283  2.6315 -0.1050  2.0571
   65SAPC    HB 5291   3.230   0.285   6.283 -0.5716 -0.0403 -0.5842
   65SAPC    C2 5292   3.352   0.319   6.461 -0.0928 -0.9440 -0.3061
   65SAPC    HS 5293   3.432   0.388   6.497  0.4920 -1.6796 -0.1697
   65SAPC   O21 5294   3.391   0.185   6.499 -0.3149 -0.9251  0.1106
   65SAPC   C21 5295   3.488   0.178   6.588  0.0617  0.4555 -0.0552
   65SAPC   O22 5296   3.547   0.274   6.639  0.1920 -0.4671 -0.7260
   65SAPC   C22 5297   3.485   0.039   6.639  0.0169 -0.1909  0.0441
   65SAPC   H2R 5298   3.381  -0.001   6.631  1.0941 -3.1443 -0.5643
   65SAPC   H2S 5299   3.548  -0.023   6.571  0.0681  0.4819 -0.5414
   65SAPC    C3 5300   3.216   0.350   6.537  0.3113 -0.7853  0.4480
   65SAPC    HX 5301   3.150   0.266   6.504 -1.9200  0.9141  0.3890
   65SAPC    HY 5302   3.178   0.442   6.488  0.1980 -1.5352 -0.9459
   65SAPC   O31 5303   3.217   0.342   6.677  0.2516  0.5869 -0.0280
   65SAPC   C31 5304   3.284   0.439   6.738  0.2397  0.3168 -0.2593
   65SAPC   O32 5305   3.319   0.543   6.687  0.5063  0.1665  0.0049
   65SAPC   C32 5306   3.290   0.391   6.876  0.3207  0.8071  0.1375
   65SAPC   H2X 5307   3.330   0.288   6.884 -1.8915 -0.2391 -1.3508
   65SAPC   H2Y 5308   3.186   0.387   6.914 -1.2164 -1.4356 -3.6937
   65SAPC   C23 5309   3.528   0.039   6.791 -0.3866 -0.6624  0.1443
   65SAPC   H3R 5310   3.447   0.082   6.855 -0.8656 -0.2882 -0.6992
   65SAPC   H3S 5311   3.616   0.099   6.823 -0.2318 -1.6541  1.7144
   65SAPC   C24 5312   3.564  -0.096   6.848  0.1851 -0.1779  0.6250
   65SAPC   H4R 5313   3.582  -0.094   6.957  0.7018 -0.1524  0.5424
   65SAPC   H4S 5314   3.650  -0.128   6.785  1.1781  0.3037  1.6825
   65SAPC   C25 5315   3.445  -0.190   6.823  0.3815  0.4542  0.0281
   65SAPC   H5R 5316   3.437  -0.233   6.722  2.0406 -1.2204  0.5396
   65SAPC   C26 5317   3.359  -0.236   6.921 -0.3813 -0.0987  0.0714
   65SAPC   H6R 5318   3.276  -0.305   6.904  0.1098 -0.7755  0.3595
   65SAPC   C27 5319   3.372  -0.191   7.064  0.2054  0.4439 -0.2403
   65SAPC   H7R 5320   3.361  -0.081   7.072  1.3102  0.8717 -3.2872
   65SAPC   H7S 5321   3.473  -0.218   7.103  1.2273  3.5979 -0.4249
   65SAPC   C28 5322   3.262  -0.253   7.161 -0.0104  0.4182  0.5462
   65SAPC   H8R 5323   3.172  -0.303   7.120 -1.3784  2.9398  0.2711
   65SAPC   C29 5324   3.255  -0.202   7.287  0.0964  0.0394  1.0621
   65SAPC   H9R 5325   3.182  -0.245   7.357 -0.3440 -0.7785  0.1273
   65SAPC  C210 5326   3.346  -0.105   7.357  0.3624 -0.1254  0.2510
   65SAPC  H10R 5327   3.275  -0.020   7.360  1.1330  0.5794 -0.8556
   65SAPC  H10S 5328   3.430  -0.070   7.293 -0.6015  0.5857 -0.6783
   65SAPC  C211 5329   3.391  -0.157   7.493 -0.2956  0.6708 -0.8714
   65SAPC  H11R 5330   3.478  -0.224   7.490 -1.7483 -1.2821 -1.9664
   65SAPC  C212 5331   3.343  -0.127   7.613  0.2455  0.2681 -0.1875
   65SAPC  H12R 5332   3.393  -0.160   7.705 -1.3821 -0.7561  0.3724
   65SAPC  C213 5333   3.229  -0.032   7.640  0.9217 -0.0062 -0.1063
   65SAPC  H13R 5334   3.186   0.004   7.544 -0.5340 -1.1611  0.0578
   65SAPC  H13S 5335   3.263   0.059   7.693  0.4994 -0.5176  1.0774
   65SAPC  C214 5336   3.119  -0.097   7.721 -1.3046  0.2159  0.3512
   65SAPC  H14R 5337   3.106  -0.204   7.703 -2.7961  0.3866  0.3266
   65SAPC  C215 5338   3.028  -0.041   7.801 -0.1667 -0.8713  0.2196
   65SAPC  H15R 5339   2.970  -0.112   7.862  2.6333 -1.1257  2.8435
   65SAPC  C216 5340   3.012   0.110   7.835 -0.8797  0.6970  0.0892
   65SAPC  H16R 5341   2.912   0.134   7.876 -1.2615 -0.2463 -0.2505
   65SAPC  H16S 5342   3.021   0.177   7.747 -0.3293  2.2709  1.3068
   65SAPC  C217 5343   3.120   0.149   7.941 -0.0911  0.3664  0.1161
   65SAPC  H17R 5344   3.103   0.258   7.953  0.1673  0.5292 -0.8997
   65SAPC  H17S 5345   3.222   0.144   7.897 -0.5081  2.2046 -1.1551
   65SAPC  C218 5346   3.108   0.075   8.072  0.1006  0.2190 -0.4179
   65SAPC  H18R 5347   3.137  -0.029   8.046 -1.1648 -0.4053  0.5882
   65SAPC  H18S 5348   3.004   0.076   8.109 -0.5709 -3.2095 -1.8169
   65SAPC  C219 5349   3.189   0.133   8.181 -0.1438  0.1453 -0.5687
   65SAPC  H19R 5350   3.138   0.227   8.211 -1.2108 -1.4643  3.2052
   65SAPC  H19S 5351   3.286   0.144   8.127  0.2950  1.4104  0.4301
   65SAPC  C220 5352   3.208   0.040   8.300 -0.2436  1.0810  0.4193
   65SAPC  H20R 5353   3.289  -0.036   8.288  0.7936  2.0503  1.1194
   65SAPC  H20S 5354   3.114  -0.014   8.323  1.3407 -1.7796  0.7225
   65SAPC  H20T 5355   3.224   0.103   8.390 -1.7979  1.0544  0.7305
   65SAPC   C33 5356   3.375   0.490   6.956 -0.0486  0.1807 -0.4621
   65SAPC   H3X 5357   3.479   0.472   6.923 -0.9644 -2.7516 -2.0634
   65SAPC   H3Y 5358   3.376   0.444   7.058  3.2522  0.3621 -0.3159
   65SAPC   C34 5359   3.327   0.634   6.976 -0.0628  0.5347  0.6707
   65SAPC   H4X 5360   3.228   0.633   7.026  0.5706 -0.9532  1.9810
   65SAPC   H4Y 5361   3.318   0.694   6.883  1.5441 -1.0256 -0.5759
   65SAPC   C35 5362   3.415   0.711   7.070  0.2554 -0.1124 -0.3041
   65SAPC   H5X 5363   3.382   0.817   7.062  1.2123  0.1632 -0.8514
   65SAPC   H5Y 5364   3.520   0.701   7.036  0.7589  2.1335  0.4101
   65SAPC   C36 5365   3.421   0.671   7.213 -0.3108 -0.2103 -0.3497
   65SAPC   H6X 5366   3.473   0.573   7.227  0.4425  0.5505  3.1073
   65SAPC   H6Y 5367   3.323   0.659   7.264 -0.9876  0.2657 -1.5058
   65SAPC   C37 5368   3.494   0.785   7.291 -0.0289 -0.0672 -0.9628
   65SAPC   H7X 5369   3.415   0.861   7.309 -0.7981 -1.2894  1.1794
   65SAPC   H7Y 5370   3.583   0.818   7.232  0.5198 -3.9224 -2.6084
   65SAPC   C38 5371   3.558   0.750   7.426  0.8571  0.3211 -0.1130
   65SAPC   H8X 5372   3.574   0.840   7.489 -1.4000  0.3430  0.4900
   65SAPC   H8Y 5373   3.658   0.701   7.415  0.4052 -0.8591  0.8535
   65SAPC   C39 5374   3.475   0.653   7.512 -0.8593 -0.0286 -0.1227
   65SAPC   H9X 5375   3.457   0.555   7.462 -1.8905  0.1161 -0.0487
   65SAPC   H9Y 5376   3.374   0.698   7.517 -1.0741 -0.1789 -2.1142
   65SAPC  C310 5377   3.541   0.629   7.645  0.3905 -0.3890  0.3994
   65SAPC  H10X 5378   3.552   0.723   7.704  1.4465  0.2165 -0.7438
   65SAPC  H10Y 5379   3.646   0.598   7.630  1.2172  2.1381  0.5680
   65SAPC  C311 5380   3.475   0.519   7.731 -0.5773 -0.2034  0.0920
   65SAPC  H11X 5381   3.473   0.417   7.688  1.0489 -0.8374  1.4009
   65SAPC  H11Y 5382   3.370   0.552   7.747 -0.4587  1.0825 -1.5302
   65SAPC  C312 5383   3.547   0.512   7.861  0.3653  0.5786 -0.3361
   65SAPC  H12X 5384   3.563   0.613   7.906  0.6655  0.4390 -0.1207
   65SAPC  H12Y 5385   3.645   0.464   7.838  1.2017  0.1555  3.4780
   65SAPC  C313 5386   3.467   0.429   7.962 -0.1240 -0.1866 -0.2167
   65SAPC  H13X 5387   3.442   0.341   7.900  2.4696 -1.0424 -0.1801
   65SAPC  H13Y 5388   3.372   0.481   7.988 -0.3049 -0.4682 -0.3134
   65SAPC  C314 5389   3.548   0.381   8.078 -0.1961  0.4567 -0.0957
   65SAPC  H14X 5390   3.638   0.332   8.035 -1.5019 -1.0011 -1.2505
   65SAPC  H14Y 5391   3.491   0.296   8.122  1.8345  0.2112  2.2854
   65SAPC  C315 5392   3.580   0.478   8.196 -0.4685  0.3660  0.2890
   65SAPC  H15X 5393   3.487   0.521   8.240  0.5227  2.7888  0.2007
   65SAPC  H15Y 5394   3.633   0.570   8.163 -1.0214  2.0651  3.6587
   65SAPC  C316 5395   3.650   0.411   8.314  0.4012  0.6170 -0.0389
   65SAPC  H16X 5396   3.578   0.342   8.362 -0.9711  0.6128 -2.0098
   65SAPC  H16Y 5397   3.686   0.488   8.386  2.0879 -1.1168  1.0540
   65SAPC  C317 5398   3.770   0.334   8.280 -0.2824  0.5064  0.8969
   65SAPC  H17X 5399   3.844   0.400   8.231  1.4272 -0.6016  1.8736
   65SAPC  H17Y 5400   3.750   0.240   8.224 -0.3794  0.4939  0.9516
   65SAPC  C318 5401   3.849   0.274   8.401  0.2844 -0.2734  0.9294
   65SAPC  H18X 5402   3.943   0.231   8.360  0.0931  1.4475 -1.4879
   65SAPC  H18Y 5403   3.771   0.206   8.441 -2.3838  2.2792  0.4536
   65SAPC  H18Z 5404   3.863   0.349   8.483  0.7329 -1.4902  2.0064
   66SAPC     N 5405   1.357   6.197   6.036  0.4765 -0.4480 -0.2934
   66SAPC   C12 5406   1.499   6.158   6.053  0.0821 -0.3260  0.7599
   66SAPC  H12A 5407   1.509   6.055   6.023  0.6286 -0.8817  2.6727
   66SAPC  H12B 5408   1.509   6.151   6.161  0.3998  1.9715  0.9160
   66SAPC   C13 5409   1.261   6.107   6.099 -0.4272 -0.6474  0.4613
   66SAPC  H13A 5410   1.280   6.098   6.205  1.4671  3.5648  0.6753
   66SAPC  H13B 5411   1.161   6.146   6.084  0.3132  0.9812 -0.4884
   66SAPC  H13C 5412   1.259   6.012   6.048  0.7537 -0.7445  0.5795
   66SAPC   C14 5413   1.336   6.331   6.107  0.1049  0.7365  0.2285
   66SAPC  H14A 5414   1.235   6.365   6.090  0.1564 -0.0329 -1.8053
   66SAPC  H14B 5415   1.355   6.305   6.211 -1.8699 -0.1913  0.4045
   66SAPC  H14C 5416   1.406   6.406   6.073  0.1292  1.0073  0.8523
   66SAPC   C15 5417   1.317   6.219   5.891 -0.4180 -0.0660  0.2316
   66SAPC  H15A 5418   1.388   6.284   5.842 -0.7237  0.4683  0.4926
   66SAPC  H15B 5419   1.320   6.127   5.835 -2.2084  0.3713 -0.6491
   66SAPC  H15C 5420   1.217   6.257   5.883 -1.1753 -1.8983  0.5420
   66SAPC   C11 5421   1.609   6.245   5.990  0.1833  0.3424  0.9506
   66SAPC  H11A 5422   1.586   6.255   5.882  1.2409  1.3893  0.8057
   66SAPC  H11B 5423   1.701   6.183   5.997 -0.7140 -1.2179 -0.5103
   66SAPC     P 5424   1.762   6.420   6.107 -0.3124 -0.0919  0.5029
   66SAPC   O13 5425   1.846   6.306   6.150  0.5621 -0.1350  0.3263
   66SAPC   O14 5426   1.822   6.521   6.013  0.0340  0.2241  0.1286
   66SAPC   O12 5427   1.612   6.375   6.050  0.0475  0.6626  0.0874
   66SAPC   O11 5428   1.700   6.487   6.236  0.1322  0.1379 -0.8726
   66SAPC    C1 5429   1.633   6.398   6.330 -0.2963 -0.3004 -0.2873
   66SAPC    HA 5430   1.531   6.441   6.332 -0.7306 -1.3144  0.9864
   66SAPC    HB 5431   1.613   6.292   6.303 -2.0466 -0.1386  0.2907
   66SAPC    C2 5432   1.687   6.402   6.478 -0.7348 -0.2854  0.2469
   66SAPC    HS 5433   1.621   6.340   6.542  0.9021  0.1343  2.4465
   66SAPC   O21 5434   1.673   6.540   6.512 -0.5143 -0.5952  0.2303
   66SAPC   C21 5435   1.658   6.568   6.649  0.3518 -0.5272 -0.5856
   66SAPC   O22 5436   1.642   6.478   6.732  0.5302 -0.5734 -0.0592
   66SAPC   C22 5437   1.653   6.715   6.680 -0.2659  0.5695 -0.1217
   66SAPC   H2R 5438   1.720   6.768   6.609 -0.4169  0.2128 -0.5423
   66SAPC   H2S 5439   1.546   6.744   6.673 -0.6740 -0.4204  1.4766
   66SAPC    C3 5440   1.834   6.363   6.497  0.2420  0.2966  0.6463
   66SAPC    HX 5441   1.894   6.436   6.439 -0.6126  0.6127  0.1379
   66SAPC    HY 5442   1.841   6.263   6.448  0.8599  0.5403  0.2267
   66SAPC   O31 5443   1.875   6.362   6.631  0.0976 -0.1283  0.0652
   66SAPC   C31 5444   1.850   6.261   6.711  0.3884 -0.1763 -0.3204
   66SAPC   O32 5445   1.800   6.156   6.684 -0.0626 -0.5280  0.1196
   66SAPC   C32 5446   1.877   6.307   6.853 -0.9455 -0.1528  0.2646
   66SAPC   H2X 5447   1.809   6.394   6.868 -1.4921 -0.5846  0.2906
   66SAPC   H2Y 5448   1.978   6.353   6.853 -1.0214  0.0124  0.5446
   66SAPC   C23 5449   1.700   6.749   6.823  0.7546 -0.3716  0.2227
   66SAPC   H3R 5450   1.649   6.682   6.895  0.2834  1.9448  2.1523
   66SAPC   H3S 5451   1.673   6.854   6.848  1.7851 -0.5361  2.1931
   66SAPC   C24 5452   1.850   6.742   6.825 -0.1697  0.2298 -0.0680
   66SAPC   H4R 5453   1.874   6.807   6.738 -1.1578 -0.2745 -0.7384
   66SAPC   H4S 5454   1.888   6.642   6.794  0.2670  0.2297  0.4513
   66SAPC   C25 5455   1.909   6.790   6.948 -0.0442  0.3384 -0.4530
   66SAPC   H5R 5456   1.928   6.898   6.951  0.3508  0.2551  1.4433
   66SAPC   C26 5457   1.960   6.720   7.055 -0.4057 -0.1442  0.6904
   66SAPC   H6R 5458   2.002   6.772   7.143 -1.8479 -1.9093  2.5135
   66SAPC   C27 5459   1.957   6.567   7.071  0.5619 -0.3958  0.1241
   66SAPC   H7R 5460   1.943   6.512   6.975 -1.2021 -1.5601  1.0173
   66SAPC   H7S 5461   1.871   6.549   7.138 -1.5250  1.0554 -2.0041
   66SAPC   C28 5462   2.090   6.526   7.126  0.1717  0.3348  0.0161
   66SAPC   H8R 5463   2.172   6.531   7.054  0.8237 -1.6555  0.5513
   66SAPC   C29 5464   2.105   6.488   7.255  0.5733 -0.0771  0.0510
   66SAPC   H9R 5465   2.206   6.461   7.290  0.2365 -0.7538  0.5190
   66SAPC  C210 5466   2.004   6.483   7.366  0.1654  0.1397 -0.4817
   66SAPC  H10R 5467   2.011   6.390   7.426 -2.7716  1.1675  1.6352
   66SAPC  H10S 5468   1.903   6.473   7.323 -0.1296  1.4425 -0.1464
   66SAPC  C211 5469   2.012   6.605   7.457 -0.2364 -0.5613  0.3181
   66SAPC  H11R 5470   1.974   6.701   7.417  1.0488 -0.0742  0.2004
   66SAPC  C212 5471   2.066   6.612   7.576 -0.7700 -0.1346 -0.5670
   66SAPC  H12R 5472   2.059   6.704   7.635  1.8340 -0.1032 -0.1723
   66SAPC  C213 5473   2.137   6.495   7.633 -0.5919  0.1722 -0.6868
   66SAPC  H13R 5474   2.228   6.534   7.685 -0.4176 -0.2220 -0.6942
   66SAPC  H13S 5475   2.172   6.425   7.554 -0.6194 -2.7000  1.6733
   66SAPC  C214 5476   2.060   6.403   7.727 -0.0969  0.6387 -0.6551
   66SAPC  H14R 5477   1.987   6.336   7.679 -2.2281  0.6269  2.3758
   66SAPC  C215 5478   2.072   6.403   7.860  0.4889  1.0609 -0.7044
   66SAPC  H15R 5479   1.994   6.340   7.905  0.0820  1.5527 -0.7137
   66SAPC  C216 5480   2.157   6.486   7.949 -0.2433  0.0473 -0.3231
   66SAPC  H16R 5481   2.099   6.573   7.987 -0.9489  0.4117 -2.1595
   66SAPC  H16S 5482   2.240   6.523   7.886 -1.5115  0.4872 -1.8085
   66SAPC  C217 5483   2.217   6.405   8.068  0.0925  0.8232 -0.6752
   66SAPC  H17R 5484   2.299   6.461   8.118  1.5971 -0.2302 -1.8572
   66SAPC  H17S 5485   2.269   6.318   8.021  2.3870  1.7809 -0.0239
   66SAPC  C218 5486   2.118   6.376   8.184  0.5056 -0.5985  0.1929
   66SAPC  H18R 5487   2.053   6.298   8.140  0.0736 -0.4642  0.5906
   66SAPC  H18S 5488   2.051   6.463   8.199 -0.9649 -2.0886  3.0125
   66SAPC  C219 5489   2.183   6.337   8.317  0.2415  0.8557  0.6858
   66SAPC  H19R 5490   2.254   6.411   8.358  0.5906  0.6116  0.5322
   66SAPC  H19S 5491   2.241   6.244   8.296 -1.7994 -0.7764  1.7823
   66SAPC  C220 5492   2.073   6.303   8.422 -0.4287  0.4583  0.7577
   66SAPC  H20R 5493   2.119   6.262   8.515 -2.1827 -0.0917  1.4394
   66SAPC  H20S 5494   1.992   6.234   8.390  0.5082 -0.0659 -0.5425
   66SAPC  H20T 5495   2.020   6.400   8.435  0.8253  1.1821  0.5511
   66SAPC   C33 5496   1.833   6.208   6.958 -0.5279 -0.4399  0.5046
   66SAPC   H3X 5497   1.905   6.124   6.955 -0.1277 -0.0825 -2.5497
   66SAPC   H3Y 5498   1.735   6.165   6.927 -0.1757 -0.4552 -0.5969
   66SAPC   C34 5499   1.820   6.259   7.102  0.1634  0.9380  0.1462
   66SAPC   H4X 5500   1.753   6.347   7.101  0.4572  1.1739  0.8417
   66SAPC   H4Y 5501   1.915   6.291   7.150  0.0463 -0.1235  1.1374
   66SAPC   C35 5502   1.770   6.155   7.198 -0.2095 -0.0511 -0.3420
   66SAPC   H5X 5503   1.849   6.078   7.211  1.2430  1.1429 -1.7054
   66SAPC   H5Y 5504   1.681   6.097   7.167 -0.2779  1.3070 -2.9954
   66SAPC   C36 5505   1.737   6.211   7.338 -0.4460  0.3031  0.0362
   66SAPC   H6X 5506   1.655   6.284   7.327 -0.8754 -0.2631 -0.6632
   66SAPC   H6Y 5507   1.838   6.249   7.365 -0.8879  1.2963  0.2951
   66SAPC   C37 5508   1.689   6.099   7.437 -0.0692 -0.3354  0.5573
   66SAPC   H7X 5509   1.771   6.025   7.442 -0.7017 -1.0824  0.1756
   66SAPC   H7Y 5510   1.600   6.049   7.393  0.3365 -0.2330 -0.4165
   66SAPC   C38 5511   1.655   6.153   7.577 -0.0697  0.1602 -0.1361
   66SAPC   H8X 5512   1.575   6.230   7.572 -0.7993 -0.5697  0.1774
   66SAPC   H8Y 5513   1.746   6.207   7.612 -0.9009  1.2607  0.3825
   66SAPC   C39 5514   1.613   6.044   7.674  0.7795  0.1942 -0.7353
   66SAPC   H9X 5515   1.707   5.990   7.699  0.3282 -0.1185  0.3828
   66SAPC   H9Y 5516   1.544   5.980   7.616  0.4254  2.1384 -2.5756
   66SAPC  C310 5517   1.561   6.097   7.804  0.1810 -0.6704 -0.6858
   66SAPC  H10X 5518   1.463   6.148   7.798 -0.5046 -1.9917 -1.0721
   66SAPC  H10Y 5519   1.635   6.173   7.838 -2.3845  1.7731 -0.2604
   66SAPC  C311 5520   1.552   5.986   7.916 -0.0266  0.5251  0.3826
   66SAPC  H11X 5521   1.657   5.953   7.924 -0.5589 -1.3533  0.1589
   66SAPC  H11Y 5522   1.500   5.891   7.889 -0.4169  0.7388  0.3642
   66SAPC  C312 5523   1.504   6.037   8.050 -0.1856  0.0317 -1.0442
   66SAPC  H12X 5524   1.488   5.955   8.124 -1.4618  1.6098  0.5133
   66SAPC  H12Y 5525   1.406   6.089   8.042 -0.3556 -0.1984 -0.5583
   66SAPC  C313 5526   1.608   6.140   8.105 -0.1950  0.4158 -0.3452
   66SAPC  H13X 5527   1.622   6.219   8.029 -2.5589 -0.9445 -2.3636
   66SAPC  H13Y 5528   1.697   6.075   8.112  0.0441  0.8667  1.3924
   66SAPC  C314 5529   1.582   6.194   8.247  0.3709 -0.5333  0.6408
   66SAPC  H14X 5530   1.485   6.248   8.254 -2.1076 -4.3084 -0.8639
   66SAPC  H14Y 5531   1.661   6.271   8.260  0.0841  0.2812 -1.9072
   66SAPC  C315 5532   1.596   6.084   8.357  0.4957 -0.1500 -0.5569
   66SAPC  H15X 5533   1.689   6.024   8.356  0.1541 -0.7105  0.0420
   66SAPC  H15Y 5534   1.508   6.018   8.344 -0.4239  0.7706  0.7056
   66SAPC  C316 5535   1.571   6.143   8.498 -0.7987 -0.4713  0.3072
   66SAPC  H16X 5536   1.488   6.218   8.496 -0.8127 -0.4301  1.5759
   66SAPC  H16Y 5537   1.655   6.208   8.532  0.8239 -1.3942 -1.7489
   66SAPC  C317 5538   1.526   6.046   8.606  0.5348  0.3259 -0.2109
   66SAPC  H17X 5539   1.420   6.020   8.586 -0.3544  0.2704  3.6862
   66SAPC  H17Y 5540   1.526   6.089   8.709 -0.6633  0.2287 -0.1630
   66SAPC  C318 5541   1.610   5.919   8.605  0.3499  0.6212 -0.4148
   66SAPC  H18X 5542   1.619   5.863   8.700  2.4486  0.6146 -0.5678
   66SAPC  H18Y 5543   1.709   5.928   8.555  0.3018  1.3836 -0.3872
   66SAPC  H18Z 5544   1.555   5.842   8.547 -0.7114 -0.8601  2.3752
   67SAPC     N 5545   3.037   1.703   6.002 -0.2368 -0.3170  0.1204
   67SAPC   C12 5546   3.073   1.798   6.115  0.0210  0.8533  1.2266
   67SAPC  H12A 5547   3.013   1.888   6.111  1.6706  2.0352  1.9852
   67SAPC  H12B 5548   3.169   1.843   6.096 -0.1786  0.7263 -0.1398
   67SAPC   C13 5549   3.039   1.764   5.868  0.1331 -0.7406 -0.6896
   67SAPC  H13A 5550   2.971   1.846   5.854  0.5629 -0.6335 -2.3260
   67SAPC  H13B 5551   3.136   1.809   5.849  0.0707  0.0359  0.7223
   67SAPC  H13C 5552   2.994   1.697   5.797 -1.5002 -0.4271  0.0182
   67SAPC   C14 5553   3.135   1.590   5.996 -0.0913 -0.5353  0.4860
   67SAPC  H14A 5554   3.237   1.619   5.976 -0.0074 -1.5043 -0.6115
   67SAPC  H14B 5555   3.119   1.536   6.088 -2.1461  0.8114  0.9880
   67SAPC  H14C 5556   3.094   1.524   5.921  0.1371  0.1971 -0.3103
   67SAPC   C15 5557   2.900   1.639   6.024  0.6926  0.1794  0.5923
   67SAPC  H15A 5558   2.900   1.581   6.116 -0.5751  1.0282  1.1557
   67SAPC  H15B 5559   2.824   1.712   6.046  1.4740  1.2645 -0.2288
   67SAPC  H15C 5560   2.874   1.579   5.938 -0.0234 -0.7838  1.4528
   67SAPC   C11 5561   3.058   1.760   6.272  0.1431  0.0421 -0.0738
   67SAPC  H11A 5562   3.094   1.851   6.325  0.2310  0.4096 -0.7472
   67SAPC  H11B 5563   3.122   1.671   6.285  1.9397  1.3532  0.4899
   67SAPC     P 5564   2.821   1.848   6.343 -0.0411  0.1625  0.0741
   67SAPC   O13 5565   2.856   1.965   6.252  0.2384 -0.6017 -0.2088
   67SAPC   O14 5566   2.678   1.803   6.332 -0.0635 -0.4538 -0.4963
   67SAPC   O12 5567   2.918   1.726   6.302 -0.1277  0.2962 -0.0206
   67SAPC   O11 5568   2.858   1.890   6.487 -0.0234 -0.1991 -0.1726
   67SAPC    C1 5569   2.976   1.899   6.565  0.0059  0.0137  0.4406
   67SAPC    HA 5570   3.044   1.812   6.558 -0.0605 -0.0808  0.8985
   67SAPC    HB 5571   3.034   1.991   6.542  1.0142 -0.7254 -0.0046
   67SAPC    C2 5572   2.926   1.890   6.713  0.2514 -0.1292  0.3786
   67SAPC    HS 5573   2.858   1.977   6.720 -2.1442 -1.6365 -2.1264
   67SAPC   O21 5574   3.041   1.881   6.807 -0.2904  0.0401 -0.2177
   67SAPC   C21 5575   3.092   1.997   6.821  0.2384 -0.8875 -0.0773
   67SAPC   O22 5576   3.070   2.105   6.770  0.1952  0.4157  0.0116
   67SAPC   C22 5577   3.206   1.998   6.923  0.4011 -0.3992 -0.5447
   67SAPC   H2R 5578   3.292   1.953   6.869 -0.1169  0.1763 -1.8828
   67SAPC   H2S 5579   3.242   2.102   6.935  1.3116 -0.3087 -3.3074
   67SAPC    C3 5580   2.840   1.766   6.739  0.0926  0.0990 -0.2619
   67SAPC    HX 5581   2.889   1.672   6.708 -0.0084 -0.7101  1.8715
   67SAPC    HY 5582   2.750   1.766   6.675  0.0740  3.4709 -0.4558
   67SAPC   O31 5583   2.806   1.754   6.872  0.1087 -0.0173  0.6944
   67SAPC   C31 5584   2.857   1.665   6.949  0.0937 -0.7212 -0.3840
   67SAPC   O32 5585   2.935   1.577   6.924  0.0450 -0.1135 -0.0767
   67SAPC   C32 5586   2.793   1.692   7.078  0.6076 -0.1955 -0.1118
   67SAPC   H2X 5587   2.703   1.629   7.091  0.8553 -0.5360 -0.0246
   67SAPC   H2Y 5588   2.760   1.796   7.096 -0.8613 -0.6717  0.0364
   67SAPC   C23 5589   3.176   1.924   7.056  1.0940 -0.2391 -0.3638
   67SAPC   H3R 5590   3.169   1.817   7.028  1.3208 -0.0146 -1.3374
   67SAPC   H3S 5591   3.073   1.946   7.091  0.4111 -3.0087 -0.4408
   67SAPC   C24 5592   3.287   1.946   7.158  0.3246 -0.4584  0.4117
   67SAPC   H4R 5593   3.275   2.046   7.204  1.6223 -0.3785  0.6285
   67SAPC   H4S 5594   3.382   1.958   7.102  0.2368 -0.8826  0.1602
   67SAPC   C25 5595   3.284   1.828   7.257 -0.3561 -0.5198  0.2724
   67SAPC   H5R 5596   3.294   1.728   7.213  0.8244 -1.1613  1.8807
   67SAPC   C26 5597   3.297   1.837   7.393 -0.6939 -0.3504  0.1952
   67SAPC   H6R 5598   3.294   1.746   7.455  1.4129  0.0624  1.0041
   67SAPC   C27 5599   3.317   1.963   7.472 -0.3439  0.7453  0.1701
   67SAPC   H7R 5600   3.345   2.053   7.412 -3.1841  2.5512  1.3548
   67SAPC   H7S 5601   3.397   1.954   7.548  1.8088  2.0056 -1.7939
   67SAPC   C28 5602   3.184   1.999   7.539 -0.3759 -0.2613 -0.5647
   67SAPC   H8R 5603   3.127   2.076   7.486 -3.5742  0.3636  3.2894
   67SAPC   C29 5604   3.157   1.973   7.674 -0.9597 -0.4837  0.6220
   67SAPC   H9R 5605   3.065   2.020   7.711 -0.3594  0.1268  1.4164
   67SAPC  C210 5606   3.236   1.896   7.782 -0.4407  0.8038 -0.1146
   67SAPC  H10R 5607   3.341   1.875   7.751 -0.1058  0.6967  1.0345
   67SAPC  H10S 5608   3.185   1.798   7.797  0.8496  0.2034  0.4961
   67SAPC  C211 5609   3.227   1.971   7.918  0.1305  0.4494  0.3970
   67SAPC  H11R 5610   3.209   2.079   7.903  1.6301  0.8216  1.1372
   67SAPC  C212 5611   3.259   1.915   8.037 -0.0678  0.3123 -0.6776
   67SAPC  H12R 5612   3.240   1.974   8.128 -1.5788  1.5370 -1.7279
   67SAPC  C213 5613   3.307   1.773   8.057 -0.1664 -0.7274  0.3695
   67SAPC  H13R 5614   3.416   1.788   8.069 -0.3584  1.3960 -0.1845
   67SAPC  H13S 5615   3.285   1.707   7.970  0.2583  2.0739 -1.9990
   67SAPC  C214 5616   3.254   1.724   8.189 -0.0745 -0.8687 -0.6249
   67SAPC  H14R 5617   3.147   1.742   8.203  0.5006  2.1967  0.6753
   67SAPC  C215 5618   3.319   1.679   8.295  0.1792 -0.0157  0.0312
   67SAPC  H15R 5619   3.262   1.675   8.389 -0.4225  1.9045 -0.2201
   67SAPC  C216 5620   3.469   1.644   8.294  0.1299 -0.0895  0.4048
   67SAPC  H16R 5621   3.502   1.624   8.190 -0.0088  0.7447  0.1900
   67SAPC  H16S 5622   3.483   1.555   8.359 -2.7648  0.4151  1.8846
   67SAPC  C217 5623   3.550   1.758   8.359 -0.0552 -0.0833 -0.0848
   67SAPC  H17R 5624   3.531   1.856   8.309  1.0000  0.6295  0.8443
   67SAPC  H17S 5625   3.658   1.732   8.355  0.4170  1.4822  1.2613
   67SAPC  C218 5626   3.518   1.784   8.508  0.6332  0.0168 -0.2001
   67SAPC  H18R 5627   3.516   1.691   8.568  0.7908  1.0385  1.4492
   67SAPC  H18S 5628   3.421   1.834   8.526  1.4504  1.2943  0.8398
   67SAPC  C219 5629   3.620   1.871   8.582 -0.4840  0.2218 -0.9858
   67SAPC  H19R 5630   3.702   1.802   8.612 -0.0665  1.6987  1.5776
   67SAPC  H19S 5631   3.576   1.900   8.679 -0.3981 -3.4667  0.3300
   67SAPC  C220 5632   3.685   1.983   8.498  0.9524  0.5836  0.5240
   67SAPC  H20R 5633   3.758   2.048   8.551  0.7254  0.0531  1.5069
   67SAPC  H20S 5634   3.613   2.042   8.437  3.2548  2.6908 -0.3505
   67SAPC  H20T 5635   3.743   1.931   8.419 -0.1335 -0.9622  0.6919
   67SAPC   C33 5636   2.883   1.652   7.187 -0.1120  0.2007 -0.6899
   67SAPC   H3X 5637   2.961   1.730   7.206 -1.7363  1.3724  1.6294
   67SAPC   H3Y 5638   2.930   1.552   7.176 -1.5728 -0.5757 -0.1106
   67SAPC   C34 5639   2.795   1.640   7.313  0.3005 -0.2444 -0.1743
   67SAPC   H4X 5640   2.708   1.573   7.296 -0.2081  0.4518 -0.3771
   67SAPC   H4Y 5641   2.746   1.738   7.330  0.4453 -0.0176 -1.0104
   67SAPC   C35 5642   2.874   1.592   7.432  0.4703 -0.0414  0.0787
   67SAPC   H5X 5643   2.961   1.661   7.436  1.2718 -0.8914 -1.6046
   67SAPC   H5Y 5644   2.911   1.488   7.419  0.6153 -0.1840  1.4485
   67SAPC   C36 5645   2.796   1.603   7.563  0.0929 -0.2614 -0.3720
   67SAPC   H6X 5646   2.698   1.550   7.560 -0.7171  1.1270 -3.9525
   67SAPC   H6Y 5647   2.763   1.709   7.562 -2.3116 -0.9225 -1.7202
   67SAPC   C37 5648   2.881   1.561   7.687 -0.7581 -0.6143  0.0156
   67SAPC   H7X 5649   2.970   1.627   7.699 -1.0111 -0.3726  0.6295
   67SAPC   H7Y 5650   2.908   1.453   7.683  0.1471 -0.4520  1.1331
   67SAPC   C38 5651   2.810   1.592   7.814 -0.1290  0.2068 -0.4086
   67SAPC   H8X 5652   2.718   1.530   7.811 -0.2386  0.3995 -1.1783
   67SAPC   H8Y 5653   2.783   1.700   7.818  1.5947  0.6216  1.4457
   67SAPC   C39 5654   2.884   1.562   7.947 -0.0767 -0.6987  0.0421
   67SAPC   H9X 5655   2.972   1.630   7.950  1.3487 -2.4957  1.2646
   67SAPC   H9Y 5656   2.924   1.460   7.935  0.7618 -0.3480 -0.2402
   67SAPC  C310 5657   2.806   1.552   8.071  0.5049 -0.1674 -0.3386
   67SAPC  H10X 5658   2.727   1.474   8.059 -1.6515  1.2696  3.0025
   67SAPC  H10Y 5659   2.755   1.649   8.091  1.1948  0.0041  0.6382
   67SAPC  C311 5660   2.874   1.502   8.202 -0.9551 -0.0304  0.3465
   67SAPC  H11X 5661   2.955   1.575   8.224 -1.9829  1.8793 -1.7884
   67SAPC  H11Y 5662   2.935   1.412   8.178 -1.8522 -0.5803  0.0950
   67SAPC  C312 5663   2.781   1.462   8.324  0.4955 -0.0858  0.5816
   67SAPC  H12X 5664   2.688   1.410   8.292  0.3350  1.0279 -0.8758
   67SAPC  H12Y 5665   2.755   1.559   8.372  2.9868  0.3346  1.2092
   67SAPC  C313 5666   2.849   1.367   8.426 -0.1679 -0.2380  0.1130
   67SAPC  H13X 5667   2.888   1.277   8.373  3.2513  0.7819  0.6318
   67SAPC  H13Y 5668   2.774   1.338   8.503  0.1584 -4.1842 -0.8026
   67SAPC  C314 5669   2.969   1.435   8.492  0.1496 -0.4123  0.5945
   67SAPC  H14X 5670   3.046   1.460   8.416 -0.1542 -2.1980 -0.3464
   67SAPC  H14Y 5671   3.011   1.360   8.563 -1.7763 -1.0912  1.0844
   67SAPC  C315 5672   2.942   1.557   8.574 -0.1629 -0.0845  0.1643
   67SAPC  H15X 5673   2.880   1.514   8.655 -1.3546  0.9082 -0.1716
   67SAPC  H15Y 5674   2.879   1.630   8.517  0.6683 -0.7270 -1.6499
   67SAPC  C316 5675   3.063   1.635   8.613  0.4753 -0.1205  0.1715
   67SAPC  H16X 5676   3.041   1.730   8.667 -0.3574 -1.8964  3.1171
   67SAPC  H16Y 5677   3.106   1.673   8.518 -0.9131  1.0391 -0.0317
   67SAPC  C317 5678   3.167   1.553   8.675 -0.4392 -0.4904  0.2900
   67SAPC  H17X 5679   3.242   1.635   8.680  0.0391 -0.9476  0.7783
   67SAPC  H17Y 5680   3.198   1.471   8.607 -0.8197  0.1667 -0.6840
   67SAPC  C318 5681   3.134   1.485   8.807  0.5126  0.3835 -1.0065
   67SAPC  H18X 5682   3.222   1.432   8.849 -0.1781 -0.0793 -0.1185
   67SAPC  H18Y 5683   3.039   1.430   8.790 -1.7315  2.7281  2.5858
   67SAPC  H18Z 5684   3.112   1.568   8.877  0.3109  0.3497 -1.0302
   68SAPC     N 5685   4.980   5.246   5.791  0.0220  0.1436 -0.1979
   68SAPC   C12 5686   4.933   5.229   5.931 -0.6816 -0.1934  0.3452
   68SAPC  H12A 5687   4.967   5.133   5.968  3.0459 -0.3075 -2.6739
   68SAPC  H12B 5688   4.826   5.222   5.941 -0.8824  1.2333 -0.5326
   68SAPC   C13 5689   5.128   5.265   5.784  0.2816  0.5367  0.5843
   68SAPC  H13A 5690   5.160   5.357   5.830 -0.1865  0.6935  0.6033
   68SAPC  H13B 5691   5.185   5.198   5.847  0.2841 -1.5175 -1.4939
   68SAPC  H13C 5692   5.163   5.246   5.684 -2.5131 -2.0362 -0.0773
   68SAPC   C14 5693   4.947   5.118   5.707 -0.3455  0.0686 -0.0596
   68SAPC  H14A 5694   4.840   5.103   5.707 -0.1565 -1.5515 -1.3578
   68SAPC  H14B 5695   4.989   5.127   5.608  0.7677 -0.7805  0.3159
   68SAPC  H14C 5696   4.990   5.032   5.756 -1.5449  0.7773  2.3708
   68SAPC   C15 5697   4.902   5.358   5.722  0.5174  0.1414  0.2357
   68SAPC  H15A 5698   4.796   5.340   5.723  0.4962  0.2345 -0.0545
   68SAPC  H15B 5699   4.914   5.448   5.779 -0.3618  1.1749 -1.1461
   68SAPC  H15C 5700   4.943   5.377   5.624 -2.1857 -2.2662 -1.5511
   68SAPC   C11 5701   4.977   5.322   6.047 -0.3481 -0.4635  0.1365
   68SAPC  H11A 5702   5.088   5.326   6.046 -0.2014 -2.3898  1.8475
   68SAPC  H11B 5703   4.955   5.274   6.144  1.9413  0.7374  1.3290
   68SAPC     P 5704   4.791   5.498   6.064  0.3378  0.2153 -0.0687
   68SAPC   O13 5705   4.742   5.600   5.966 -0.5054 -0.3834  0.3081
   68SAPC   O14 5706   4.705   5.378   6.076 -0.1951 -1.0238 -0.0703
   68SAPC   O12 5707   4.935   5.461   6.030  0.4663  0.5811  0.0227
   68SAPC   O11 5708   4.786   5.565   6.206 -0.8170  0.0712 -0.2608
   68SAPC    C1 5709   4.911   5.592   6.282 -0.3337  0.1136  0.4288
   68SAPC    HA 5710   5.006   5.596   6.224 -0.0704 -0.9307  0.7850
   68SAPC    HB 5711   4.890   5.691   6.328  0.2300  0.0847  0.7553
   68SAPC    C2 5712   4.932   5.498   6.399 -0.6363 -0.3394 -0.1902
   68SAPC    HS 5713   4.966   5.398   6.363  1.8351 -0.1084  1.2977
   68SAPC   O21 5714   4.811   5.501   6.476  0.4185  0.2044  0.5898
   68SAPC   C21 5715   4.788   5.397   6.544  0.1457  0.2661  0.0801
   68SAPC   O22 5716   4.857   5.294   6.554  0.4270 -0.8454  0.0994
   68SAPC   C22 5717   4.653   5.416   6.620 -0.4645 -0.7237 -0.3557
   68SAPC   H2R 5718   4.642   5.521   6.653 -1.0546 -0.8355 -0.1813
   68SAPC   H2S 5719   4.581   5.392   6.539  1.0216 -1.0020 -1.6329
   68SAPC    C3 5720   5.053   5.548   6.483  0.1267  0.3148 -0.7897
   68SAPC    HX 5721   5.129   5.557   6.402 -1.1297  1.0972 -1.9113
   68SAPC    HY 5722   5.082   5.460   6.545  0.0243  0.4875 -0.4976
   68SAPC   O31 5723   5.025   5.675   6.552 -0.6262 -0.2067 -0.0876
   68SAPC   C31 5724   4.983   5.654   6.677 -0.0440 -0.4520  0.7108
   68SAPC   O32 5725   4.990   5.547   6.736  0.2783 -0.1337 -0.1145
   68SAPC   C32 5726   4.940   5.789   6.724 -0.1856  0.0715  0.1926
   68SAPC   H2X 5727   4.840   5.811   6.681 -1.0082 -3.0071  0.3207
   68SAPC   H2Y 5728   5.017   5.860   6.688  0.2038 -0.2164  0.4470
   68SAPC   C23 5729   4.628   5.320   6.736 -0.5012 -0.4361 -0.7344
   68SAPC   H3R 5730   4.653   5.218   6.700  2.1063  0.4253 -1.5970
   68SAPC   H3S 5731   4.519   5.331   6.756 -0.2751  2.8137 -0.7296
   68SAPC   C24 5732   4.711   5.334   6.867 -0.1500  0.6305  0.1432
   68SAPC   H4R 5733   4.815   5.324   6.830 -0.0796  0.3916  0.4068
   68SAPC   H4S 5734   4.683   5.245   6.927 -2.1330  0.4191 -0.9978
   68SAPC   C25 5735   4.681   5.460   6.940  0.1069  0.1483 -0.2601
   68SAPC   H5R 5736   4.584   5.509   6.921 -1.3761 -2.3025  0.5115
   68SAPC   C26 5737   4.746   5.489   7.054  0.4988  0.0775  0.4149
   68SAPC   H6R 5738   4.721   5.575   7.117 -1.7136 -1.1438  1.3484
   68SAPC   C27 5739   4.853   5.407   7.119 -0.7489  0.5888 -0.0371
   68SAPC   H7R 5740   4.949   5.409   7.064 -0.3647  0.8394  0.6408
   68SAPC   H7S 5741   4.827   5.300   7.100 -1.0157  0.8435 -1.1986
   68SAPC   C28 5742   4.882   5.435   7.262  0.1786  0.4941  0.6291
   68SAPC   H8R 5743   4.964   5.507   7.273 -0.8755  2.2960 -2.2810
   68SAPC   C29 5744   4.825   5.387   7.371 -0.5707 -0.4148  0.3669
   68SAPC   H9R 5745   4.860   5.427   7.467 -0.4787  0.4079  0.0060
   68SAPC  C210 5746   4.712   5.286   7.373  0.8609 -0.5333 -0.4122
   68SAPC  H10R 5747   4.686   5.240   7.276  0.7190 -0.1330 -0.5682
   68SAPC  H10S 5748   4.617   5.329   7.413  1.8964  0.6806  0.8379
   68SAPC  C211 5749   4.750   5.187   7.480 -0.7697 -0.2590  0.5987
   68SAPC  H11R 5750   4.808   5.098   7.449  0.1582  0.7395 -0.6724
   68SAPC  C212 5751   4.722   5.199   7.613 -0.0286 -1.0692 -0.2679
   68SAPC  H12R 5752   4.771   5.133   7.687  0.0163  2.1136  2.7509
   68SAPC  C213 5753   4.648   5.307   7.679  0.5702  0.5257 -0.6101
   68SAPC  H13R 5754   4.561   5.263   7.731  0.0552  0.9669 -1.0864
   68SAPC  H13S 5755   4.611   5.376   7.600  0.4790 -1.7641 -2.6802
   68SAPC  C214 5756   4.725   5.402   7.769 -0.2612 -0.3255 -0.0466
   68SAPC  H14R 5757   4.783   5.484   7.724 -0.9981  1.1052  1.4859
   68SAPC  C215 5758   4.718   5.400   7.900 -0.0534  0.6499  1.2732
   68SAPC  H15R 5759   4.783   5.463   7.964  0.1727  2.0349 -0.2612
   68SAPC  C216 5760   4.639   5.300   7.977 -0.9100  0.2013  0.6248
   68SAPC  H16R 5761   4.692   5.283   8.073  1.0615 -1.0824 -0.6095
   68SAPC  H16S 5762   4.644   5.206   7.918 -5.1641  1.3343 -2.0102
   68SAPC  C217 5763   4.500   5.325   8.019  0.0336 -0.3529 -0.2857
   68SAPC  H17R 5764   4.447   5.332   7.922  1.7702 -1.3382 -1.3543
   68SAPC  H17S 5765   4.499   5.424   8.070  0.2469  0.4536 -1.7833
   68SAPC  C218 5766   4.441   5.211   8.096 -0.3361 -1.1238  0.0749
   68SAPC  H18R 5767   4.504   5.185   8.184  1.0712  1.3425 -0.1071
   68SAPC  H18S 5768   4.443   5.111   8.047  0.9265 -0.7193 -0.7466
   68SAPC  C219 5769   4.299   5.240   8.148 -0.2095  0.1554  0.0168
   68SAPC  H19R 5770   4.241   5.233   8.054 -0.5944 -1.6179  0.3485
   68SAPC  H19S 5771   4.306   5.337   8.203 -2.5936 -0.5427  1.7251
   68SAPC  C220 5772   4.254   5.137   8.246 -0.1265  0.1683 -0.7346
   68SAPC  H20R 5773   4.236   5.040   8.194 -0.1992  0.3985 -1.1441
   68SAPC  H20S 5774   4.152   5.162   8.284 -0.9743 -1.3265 -1.9045
   68SAPC  H20T 5775   4.327   5.113   8.326 -1.5226  3.0369  1.6076
   68SAPC   C33 5776   4.934   5.810   6.879 -0.0654  0.6441  0.0682
   68SAPC   H3X 5777   5.037   5.808   6.921  0.2390 -1.0896 -0.6604
   68SAPC   H3Y 5778   4.892   5.723   6.934 -1.1841  2.2620  1.9259
   68SAPC   C34 5779   4.852   5.934   6.911 -0.0931  0.4767 -0.4028
   68SAPC   H4X 5780   4.749   5.918   6.871 -0.6262  0.7496  0.8313
   68SAPC   H4Y 5781   4.890   6.028   6.864 -0.4231  0.5662 -0.4970
   68SAPC   C35 5782   4.839   5.970   7.057  0.0952 -0.0287  0.0918
   68SAPC   H5X 5783   4.935   5.955   7.110  0.3513 -0.0302 -0.3620
   68SAPC   H5Y 5784   4.771   5.902   7.111  2.3574 -1.3677  1.3953
   68SAPC   C36 5785   4.789   6.107   7.091  0.2541 -0.8061 -0.1565
   68SAPC   H6X 5786   4.686   6.109   7.050  0.9796 -1.3526 -2.1035
   68SAPC   H6Y 5787   4.851   6.183   7.038  1.1621  0.0541  1.9890
   68SAPC   C37 5788   4.806   6.142   7.246 -0.0428  0.1229 -0.0440
   68SAPC   H7X 5789   4.901   6.093   7.276  1.2175  3.1321  1.2226
   68SAPC   H7Y 5790   4.715   6.103   7.296 -0.6994  2.7182  0.9297
   68SAPC   C38 5791   4.812   6.295   7.275 -0.5430  0.8567 -0.5162
   68SAPC   H8X 5792   4.727   6.356   7.239 -1.0001  0.3961 -0.2239
   68SAPC   H8Y 5793   4.899   6.342   7.224 -0.5129  1.4204  0.0318
   68SAPC   C39 5794   4.826   6.317   7.428  0.4607  0.3583  0.7125
   68SAPC   H9X 5795   4.772   6.227   7.465  1.0948 -0.5910 -0.6293
   68SAPC   H9Y 5796   4.773   6.408   7.464 -0.0170  0.1814  0.4651
   68SAPC  C310 5797   4.961   6.311   7.495  0.0346  0.3455  0.3682
   68SAPC  H10X 5798   5.007   6.401   7.448  1.6805  0.1368  1.5045
   68SAPC  H10Y 5799   5.026   6.226   7.464  0.0228 -0.0799  1.4729
   68SAPC  C311 5800   4.937   6.326   7.648 -0.2555 -0.1376  0.1973
   68SAPC  H11X 5801   4.905   6.230   7.694  1.3050 -0.1441  1.3569
   68SAPC  H11Y 5802   4.862   6.406   7.663  0.2147  0.2239  0.6704
   68SAPC  C312 5803   5.053   6.369   7.725 -0.2303  0.8111 -0.2868
   68SAPC  H12X 5804   5.106   6.446   7.665 -1.6776  0.1222 -2.5592
   68SAPC  H12Y 5805   5.126   6.285   7.733  0.9259  1.6197 -1.8680
   68SAPC  C313 5806   5.024   6.432   7.869 -0.3636 -0.2854  0.3257
   68SAPC  H13X 5807   4.931   6.490   7.853  0.7724  1.6467  0.3647
   68SAPC  H13Y 5808   5.114   6.496   7.883 -1.4212  1.0552  1.2820
   68SAPC  C314 5809   5.025   6.342   7.995  0.3127 -0.5620  0.2208
   68SAPC  H14X 5810   5.046   6.401   8.087 -0.5861  1.2262 -0.6556
   68SAPC  H14Y 5811   5.104   6.265   7.984  1.3789  0.7626 -2.1132
   68SAPC  C315 5812   4.882   6.275   8.017  0.8776  0.0550 -0.2789
   68SAPC  H15X 5813   4.873   6.194   7.942 -1.8457  0.8322 -0.9206
   68SAPC  H15Y 5814   4.811   6.359   8.002  0.0362 -0.4216  0.8720
   68SAPC  C316 5815   4.858   6.214   8.156 -0.2975 -0.1075  0.1092
   68SAPC  H16X 5816   4.850   6.284   8.242  0.8616  1.5341 -1.0702
   68SAPC  H16Y 5817   4.942   6.146   8.180 -1.0212 -0.3049  2.3782
   68SAPC  C317 5818   4.727   6.132   8.170  0.7061  0.4828 -0.0889
   68SAPC  H17X 5819   4.733   6.057   8.088  1.4854  2.2906 -1.7790
   68SAPC  H17Y 5820   4.635   6.194   8.156 -0.1285 -0.4985  0.9252
   68SAPC  C318 5821   4.730   6.040   8.297 -0.8441 -0.0085 -0.0817
   68SAPC  H18X 5822   4.630   5.993   8.309  0.4606 -2.4777  2.0604
   68SAPC  H18Y 5823   4.753   6.099   8.388 -0.3673  0.0706 -0.2499
   68SAPC  H18Z 5824   4.814   5.968   8.283  0.5921  1.5462  0.1895
   69SLPC     N 5825   5.578   6.431  11.498 -0.3373 -0.7300 -0.0741
   69SLPC   C13 5826   5.580   6.285  11.513 -0.8646  0.4424 -0.4427
   69SLPC  H13A 5827   5.662   6.249  11.452 -0.5640  1.6647 -0.7794
   69SLPC  H13B 5828   5.592   6.263  11.618 -2.8514  1.8218  0.1261
   69SLPC  H13C 5829   5.494   6.236  11.471 -0.4580 -0.7343  0.0449
   69SLPC   C14 5830   5.705   6.495  11.554  0.1346  0.5545 -0.0920
   69SLPC  H14A 5831   5.791   6.448  11.508 -0.6532 -1.2637  0.1981
   69SLPC  H14B 5832   5.721   6.599  11.529  1.4782 -0.0161 -1.8335
   69SLPC  H14C 5833   5.711   6.474  11.660  1.9299 -0.3035 -0.3297
   69SLPC   C15 5834   5.453   6.485  11.556  0.0653  0.0181  0.3938
   69SLPC  H15A 5835   5.372   6.436  11.504  1.6860 -2.7743  0.3452
   69SLPC  H15B 5836   5.435   6.448  11.656 -0.8204  1.2987  0.7385
   69SLPC  H15C 5837   5.442   6.592  11.546  1.2707  0.3276  2.0828
   69SLPC   C12 5838   5.570   6.482  11.358 -0.4705  0.1775  0.2507
   69SLPC  H12A 5839   5.584   6.588  11.377  3.3824 -0.4260  1.8320
   69SLPC  H12B 5840   5.471   6.474  11.317 -1.2039 -0.1841  1.9784
   69SLPC   C11 5841   5.672   6.440  11.241 -0.1813  0.5397 -0.5673
   69SLPC  H11A 5842   5.776   6.456  11.277 -0.2984  1.2298 -0.5319
   69SLPC  H11B 5843   5.659   6.497  11.147  0.2413  0.9555 -0.3740
   69SLPC     P 5844   5.512   6.245  11.147  0.0210  0.9582 -0.5292
   69SLPC   O13 5845   5.489   6.116  11.226 -0.1527 -0.1644  1.1144
   69SLPC   O14 5846   5.401   6.336  11.148  0.1901 -0.3148  0.4649
   69SLPC   O12 5847   5.655   6.300  11.210 -0.4351 -0.0063 -0.0248
   69SLPC   O11 5848   5.553   6.200  10.996 -0.2622  0.3151 -0.2435
   69SLPC    C1 5849   5.685   6.155  10.955  0.4038 -0.1216  0.9597
   69SLPC    HA 5850   5.760   6.225  10.998  1.2136  0.8271 -1.7992
   69SLPC    HB 5851   5.706   6.054  10.997 -0.7944 -0.9306 -0.2877
   69SLPC    C2 5852   5.693   6.132  10.803  0.0360 -0.5723  0.2408
   69SLPC    HS 5853   5.796   6.131  10.762 -0.4064 -0.6242 -0.9172
   69SLPC   O21 5854   5.643   6.249  10.730  0.0990  0.4574 -0.5984
   69SLPC   C21 5855   5.709   6.363  10.749 -0.3992  0.1063 -0.2532
   69SLPC   O22 5856   5.818   6.378  10.807 -0.1741  0.5598 -0.3691
   69SLPC   C22 5857   5.626   6.483  10.697 -0.2168  0.4212 -0.2833
   69SLPC   H2R 5858   5.532   6.487  10.757  0.5843 -0.6315  1.1059
   69SLPC   H2S 5859   5.680   6.577  10.724 -0.1794  0.1499  0.6420
   69SLPC    C3 5860   5.618   5.998  10.766 -0.4201  0.4973 -0.4692
   69SLPC    HX 5861   5.512   5.991  10.797 -0.4244  0.6633 -0.4466
   69SLPC    HY 5862   5.671   5.913  10.815 -1.2213  0.3977  0.2561
   69SLPC   O31 5863   5.633   5.984  10.621  0.8882  0.1095  0.4307
   69SLPC   C31 5864   5.534   6.028  10.549 -0.6668 -0.1305  0.2726
   69SLPC   O32 5865   5.426   6.074  10.587  0.3716  0.1447  0.0838
   69SLPC   C32 5866   5.573   5.995  10.402 -0.2668  0.0349  0.3237
   69SLPC   H2X 5867   5.612   5.891  10.406  2.4329  0.9632  0.1867
   69SLPC   H2Y 5868   5.662   6.052  10.367 -0.0983 -0.6377 -0.3721
   69SLPC   C23 5869   5.598   6.465  10.550 -1.1801  0.2896  0.2923
   69SLPC   H3R 5870   5.581   6.565  10.505  2.5449  0.4797 -1.0092
   69SLPC   H3S 5871   5.507   6.402  10.540 -0.3769 -1.2812  2.2057
   69SLPC   C24 5872   5.714   6.406  10.463 -0.4549 -0.0694  0.0781
   69SLPC   H4R 5873   5.714   6.298  10.488  0.1149 -0.2994 -0.8604
   69SLPC   H4S 5874   5.813   6.433  10.505 -1.3659  0.2494  2.1273
   69SLPC   C25 5875   5.701   6.425  10.316  0.1878  0.1367 -0.9729
   69SLPC   H5R 5876   5.744   6.522  10.283 -0.1872  0.8942  0.6677
   69SLPC   H5S 5877   5.593   6.445  10.298  0.0443  0.3761  0.1269
   69SLPC   C26 5878   5.762   6.313  10.238 -0.5255  0.0521  0.1225
   69SLPC   H6R 5879   5.745   6.214  10.285  1.2689 -0.0175  0.7033
   69SLPC   H6S 5880   5.871   6.337  10.234 -0.9573  2.0940 -0.7365
   69SLPC   C27 5881   5.711   6.310  10.093  0.4215 -0.2359 -0.1957
   69SLPC   H7R 5882   5.737   6.405  10.042  0.4498 -0.7508 -1.1747
   69SLPC   H7S 5883   5.601   6.291  10.091  0.4818 -0.9172 -3.8821
   69SLPC   C28 5884   5.779   6.189  10.019 -0.4115 -0.0282  0.1217
   69SLPC   H8R 5885   5.765   6.096  10.078  0.3322 -0.5429 -0.4895
   69SLPC   H8S 5886   5.890   6.193  10.013 -0.3812  2.1693  1.2639
   69SLPC   C29 5887   5.733   6.172   9.883  0.0409 -0.1211  0.0698
   69SLPC   H9R 5888   5.663   6.090   9.862 -0.8114  0.8668 -1.0728
   69SLPC  C210 5889   5.782   6.239   9.784  0.2230  0.3739  0.2319
   69SLPC  H10R 5890   5.745   6.208   9.685  1.3000  1.1992 -0.4604
   69SLPC  C211 5891   5.878   6.354   9.793 -0.1063  0.1289  0.2582
   69SLPC  H11R 5892   5.914   6.372   9.897 -0.8358  0.4426  0.4634
   69SLPC  H11S 5893   5.820   6.443   9.760  1.8106  1.5914  0.6506
   69SLPC  C212 5894   6.001   6.316   9.705 -0.5850  0.0820  0.1201
   69SLPC  H12R 5895   6.065   6.240   9.751 -0.9803 -1.4612 -1.7627
   69SLPC  C213 5896   6.023   6.344   9.575  0.1810 -0.4690 -0.3458
   69SLPC  H13R 5897   6.120   6.310   9.535 -0.0888 -0.6429 -0.8742
   69SLPC  C214 5898   5.938   6.424   9.471 -0.9305 -0.3030 -0.0498
   69SLPC  H14R 5899   6.002   6.513   9.449  0.5602 -1.5743 -1.0088
   69SLPC  H14S 5900   5.848   6.468   9.520 -0.2654  0.6909  0.3149
   69SLPC  C215 5901   5.919   6.352   9.337  0.3173  0.2855 -0.0439
   69SLPC  H15R 5902   5.844   6.273   9.359 -1.6508  1.8203 -0.9816
   69SLPC  H15S 5903   6.011   6.296   9.309  0.5442 -1.0114  2.8656
   69SLPC  C216 5904   5.866   6.432   9.221 -0.4779 -0.5955 -0.0884
   69SLPC  H16R 5905   5.936   6.514   9.195 -0.8068 -0.1061  0.5301
   69SLPC  H16S 5906   5.767   6.473   9.250 -0.3888 -1.4600  1.5858
   69SLPC  C217 5907   5.846   6.345   9.098 -0.3679  0.3398 -0.5099
   69SLPC  H17R 5908   5.815   6.240   9.116  0.2411  0.3261  0.5505
   69SLPC  H17S 5909   5.942   6.326   9.046  0.4792  0.7255  0.8526
   69SLPC  C218 5910   5.745   6.396   9.000  0.4017  0.8793  0.2731
   69SLPC  H18R 5911   5.653   6.408   9.061  0.2783  0.6348  0.1381
   69SLPC  H18S 5912   5.729   6.334   8.909 -1.0391  0.4477  0.7953
   69SLPC  H18T 5913   5.768   6.501   8.970  2.0294  0.6441  0.5881
   69SLPC   C33 5914   5.449   6.017  10.310 -0.2012  0.5472  0.3052
   69SLPC   H3X 5915   5.468   6.116  10.263 -0.6418 -0.4704 -2.1703
   69SLPC   H3Y 5916   5.353   6.018  10.365 -0.9003 -0.2891 -0.8528
   69SLPC   C34 5917   5.434   5.915  10.195 -0.3873  0.3639  0.6432
   69SLPC   H4X 5918   5.357   5.946  10.121  0.6529 -1.2821 -1.2237
   69SLPC   H4Y 5919   5.374   5.824  10.220  1.3749 -0.7356  1.0606
   69SLPC   C35 5920   5.570   5.878  10.128 -0.2349  0.5021 -0.3688
   69SLPC   H5X 5921   5.636   5.834  10.205 -1.3682  0.4786  0.6250
   69SLPC   H5Y 5922   5.610   5.967  10.075 -1.9478 -0.5722 -3.8040
   69SLPC   C36 5923   5.564   5.777  10.007 -0.1566 -0.0103  0.1387
   69SLPC   H6X 5924   5.532   5.677  10.044  0.7048  0.2226  1.5735
   69SLPC   H6Y 5925   5.672   5.777   9.978 -0.2743 -3.4315 -0.7645
   69SLPC   C37 5926   5.479   5.828   9.894 -0.4218 -0.5692  0.3641
   69SLPC   H7X 5927   5.495   5.936   9.870 -0.7504 -0.7511 -0.7294
   69SLPC   H7Y 5928   5.370   5.815   9.915 -1.1757  3.0250 -0.5215
   69SLPC   C38 5929   5.495   5.761   9.758  0.1450  0.2838 -0.2667
   69SLPC   H8X 5930   5.476   5.652   9.768  2.6569 -0.3788 -1.7667
   69SLPC   H8Y 5931   5.598   5.773   9.718  0.0934  0.7789 -0.2612
   69SLPC   C39 5932   5.398   5.813   9.648  0.6795 -0.0223 -0.0306
   69SLPC   H9X 5933   5.299   5.851   9.681 -0.6850 -4.6309  2.1311
   69SLPC   H9Y 5934   5.372   5.728   9.581 -0.8324  0.8719 -0.6445
   69SLPC  C310 5935   5.462   5.926   9.563 -0.0642 -0.1759  0.8635
   69SLPC  H10X 5936   5.561   5.895   9.522  0.2880  1.4111  0.4524
   69SLPC  H10Y 5937   5.483   6.011   9.632 -0.1503 -0.6237  1.4507
   69SLPC  C311 5938   5.371   5.968   9.447  0.9624 -0.6203  0.0229
   69SLPC  H11X 5939   5.425   6.051   9.396  1.9735  0.0601  2.0994
   69SLPC  H11Y 5940   5.279   6.013   9.489  1.0171 -0.6587  0.1836
   69SLPC  C312 5941   5.334   5.858   9.346  0.6460  0.1678  0.4785
   69SLPC  H12X 5942   5.256   5.791   9.388 -0.3162  1.3849  0.6707
   69SLPC  H12Y 5943   5.427   5.800   9.327 -0.3335 -0.9908 -1.0248
   69SLPC  C313 5944   5.284   5.920   9.213  0.3978 -0.0652  0.4973
   69SLPC  H13X 5945   5.371   5.957   9.155 -0.6088 -0.5545 -1.4310
   69SLPC  H13Y 5946   5.223   6.009   9.241 -0.4134  0.2050 -1.8408
   69SLPC  C314 5947   5.217   5.825   9.118  0.5805 -0.2908 -0.0928
   69SLPC  H14X 5948   5.136   5.769   9.169  0.7227  0.5899  1.1558
   69SLPC  H14Y 5949   5.291   5.747   9.090  0.3872 -0.0973 -1.2130
   69SLPC  C315 5950   5.159   5.897   8.993 -0.2201 -0.4866  0.1005
   69SLPC  H15X 5951   5.233   5.953   8.933 -1.1978 -2.1969 -2.9088
   69SLPC  H15Y 5952   5.078   5.969   9.016  0.6977  1.0866 -1.3593
   69SLPC  C316 5953   5.112   5.800   8.882  0.4831  0.2940  0.5473
   69SLPC  H16X 5954   5.045   5.723   8.926  1.2001  0.2253  1.5464
   69SLPC  H16Y 5955   5.202   5.750   8.841  0.5887  1.4976 -0.7651
   69SLPC  C317 5956   5.043   5.879   8.771  0.0392 -0.1806  0.0470
   69SLPC  H17X 5957   5.102   5.967   8.739  0.5567 -0.2453  0.7825
   69SLPC  H17Y 5958   4.959   5.935   8.816  0.7187  1.2242 -0.3549
   69SLPC  C318 5959   4.999   5.795   8.650 -0.3173  0.7409 -0.2417
   69SLPC  H18X 5960   4.921   5.723   8.683  0.8816 -0.4196  0.1609
   69SLPC  H18Y 5961   5.087   5.734   8.618 -0.1098 -0.9954  3.2169
   69SLPC  H18Z 5962   4.954   5.859   8.571 -4.3126 -2.5945 -0.9998
   70SLPC     N 5963   6.104   3.725  11.069  0.2083 -0.6253 -0.2175
   70SLPC   C13 5964   6.055   3.631  10.964  0.0491 -0.7346  0.3433
   70SLPC  H13A 5965   5.950   3.650  10.942 -0.0232 -1.4360  0.0502
   70SLPC  H13B 5966   6.113   3.664  10.880 -0.0459  1.8197  1.1975
   70SLPC  H13C 5967   6.073   3.528  10.990  1.4127 -1.4780 -3.0817
   70SLPC   C14 5968   6.245   3.687  11.110  0.4482  1.2100  0.0243
   70SLPC  H14A 5969   6.295   3.769  11.158  0.5033  1.4609 -0.4542
   70SLPC  H14B 5970   6.228   3.608  11.181 -1.0979  1.3707 -0.1356
   70SLPC  H14C 5971   6.306   3.657  11.025  1.0519  1.1324  0.4747
   70SLPC   C15 5972   6.032   3.713  11.201 -0.2869 -0.2284  0.1897
   70SLPC  H15A 5973   6.084   3.779  11.270 -1.8073 -0.0494  1.2322
   70SLPC  H15B 5974   5.932   3.755  11.200  0.4704  1.6888 -0.6583
   70SLPC  H15C 5975   6.032   3.612  11.238  2.9862 -0.0107  1.1021
   70SLPC   C12 5976   6.101   3.865  11.023  0.2190 -0.4317 -0.1825
   70SLPC  H12A 5977   6.174   3.926  11.073 -1.8226  1.3251  0.8316
   70SLPC  H12B 5978   6.007   3.913  11.046  0.3772  0.4290 -1.2694
   70SLPC   C11 5979   6.130   3.891  10.875 -0.3123 -0.0926  0.1385
   70SLPC  H11A 5980   6.126   4.000  10.852  1.2041 -0.1120 -0.3154
   70SLPC  H11B 5981   6.048   3.861  10.806 -2.2529  2.0936  1.3243
   70SLPC     P 5982   6.396   3.923  10.880  0.6105 -0.2070 -0.2662
   70SLPC   O13 5983   6.358   4.015  10.989  0.2391 -0.5431 -0.1379
   70SLPC   O14 5984   6.505   3.827  10.890  0.0454  0.1674 -0.5809
   70SLPC   O12 5985   6.263   3.843  10.841  0.1211  0.4622 -0.1392
   70SLPC   O11 5986   6.412   4.012  10.752  0.9452 -0.6226  0.2020
   70SLPC    C1 5987   6.366   3.982  10.621  0.1232 -0.0366  0.2065
   70SLPC    HA 5988   6.455   3.971  10.556 -0.7504 -0.9919 -0.8840
   70SLPC    HB 5989   6.301   3.893  10.604 -1.5148  1.3651 -1.2801
   70SLPC    C2 5990   6.277   4.098  10.566  0.0789 -0.0072  0.1315
   70SLPC    HS 5991   6.188   4.109  10.631 -0.3018  1.4808 -0.5913
   70SLPC   O21 5992   6.246   4.056  10.432 -0.3269 -0.1479 -0.6817
   70SLPC   C21 5993   6.127   4.102  10.383  0.2249 -0.0095 -0.1590
   70SLPC   O22 5994   6.061   4.190  10.431 -0.6914 -0.2656 -0.3129
   70SLPC   C22 5995   6.094   4.025  10.251 -0.5643  0.9664 -0.1968
   70SLPC   H2R 5996   6.185   3.963  10.235 -0.2321  1.8019 -1.6957
   70SLPC   H2S 5997   6.004   3.961  10.266 -0.5042  0.3709 -2.1693
   70SLPC    C3 5998   6.350   4.234  10.567 -0.7117 -0.4854  1.0086
   70SLPC    HX 5999   6.447   4.236  10.512 -1.7990  0.4748 -1.0180
   70SLPC    HY 6000   6.393   4.231  10.669 -2.3705 -1.9032  1.7215
   70SLPC   O31 6001   6.274   4.351  10.558 -0.0897  0.1673  0.0359
   70SLPC   C31 6002   6.262   4.407  10.441  0.2856 -0.4134  0.1567
   70SLPC   O32 6003   6.310   4.375  10.333 -0.0170  0.0502 -0.9607
   70SLPC   C32 6004   6.171   4.527  10.456 -0.1743  0.0445 -1.2016
   70SLPC   H2X 6005   6.175   4.571  10.558 -1.2795  1.0942 -1.5861
   70SLPC   H2Y 6006   6.069   4.497  10.424 -1.8817  1.4649  2.4133
   70SLPC   C23 6007   6.074   4.123  10.133 -0.2219  0.7578 -0.6594
   70SLPC   H3R 6008   6.161   4.193  10.126  0.2919  0.1103 -0.7858
   70SLPC   H3S 6009   5.977   4.177  10.136 -0.3281  0.6117 -1.3663
   70SLPC   C24 6010   6.075   4.050   9.997  0.3535 -0.0638 -0.0120
   70SLPC   H4R 6011   6.164   3.986   9.984  2.7760  3.3904 -2.1429
   70SLPC   H4S 6012   6.077   4.125   9.915  1.1421 -0.8676 -0.7489
   70SLPC   C25 6013   5.946   3.969   9.973  0.3024 -0.1894  0.3838
   70SLPC   H5R 6014   5.858   4.033   9.994  0.3200  1.0011 -2.6550
   70SLPC   H5S 6015   5.946   3.882  10.042 -1.0034  0.3984  1.1722
   70SLPC   C26 6016   5.932   3.930   9.818 -0.6220 -0.1311 -0.3169
   70SLPC   H6R 6017   6.020   3.870   9.786  1.9827  2.5033  1.3816
   70SLPC   H6S 6018   5.941   4.032   9.774 -0.8813  0.4691  0.9763
   70SLPC   C27 6019   5.797   3.870   9.781  0.1832 -0.5350  0.3335
   70SLPC   H7R 6020   5.784   3.785   9.852  1.8387  0.5082  1.9771
   70SLPC   H7S 6021   5.812   3.830   9.679  0.9357 -2.4069  1.1223
   70SLPC   C28 6022   5.676   3.957   9.803 -0.4822  0.6596 -0.3916
   70SLPC   H8R 6023   5.684   4.041   9.730  0.2569 -0.4459 -1.6351
   70SLPC   H8S 6024   5.689   3.991   9.908  1.7167 -0.7157 -0.1521
   70SLPC   C29 6025   5.548   3.873   9.789  0.3502  0.1080 -0.3354
   70SLPC   H9R 6026   5.546   3.788   9.859 -1.6003  0.2355 -0.1983
   70SLPC  C210 6027   5.437   3.912   9.713 -1.0113 -0.5610 -0.8147
   70SLPC  H10R 6028   5.356   3.838   9.710 -1.5253 -0.2200  2.0657
   70SLPC  C211 6029   5.410   4.037   9.634  0.3384 -0.1507  0.3190
   70SLPC  H11R 6030   5.492   4.113   9.640 -0.4475  0.6950  0.6107
   70SLPC  H11S 6031   5.329   4.093   9.686 -0.2065  0.0323 -0.7049
   70SLPC  C212 6032   5.363   4.006   9.495 -0.5795 -0.7034  0.0448
   70SLPC  H12R 6033   5.255   3.987   9.486 -0.3181 -1.7271 -1.1639
   70SLPC  C213 6034   5.439   3.989   9.386  0.9503  1.2007 -0.4062
   70SLPC  H13R 6035   5.392   3.976   9.288 -0.6200  0.0604  0.4495
   70SLPC  C214 6036   5.588   3.998   9.396  0.6375 -0.6321  0.7093
   70SLPC  H14R 6037   5.640   3.932   9.323 -0.3990  0.5660 -1.1767
   70SLPC  H14S 6038   5.619   3.968   9.498 -0.9252 -1.2932  1.0050
   70SLPC  C215 6039   5.645   4.142   9.354 -0.1927 -0.5226  0.1775
   70SLPC  H15R 6040   5.621   4.211   9.438  0.6129  1.3438 -1.0725
   70SLPC  H15S 6041   5.589   4.184   9.267 -3.5843 -0.6225  2.1161
   70SLPC  C216 6042   5.794   4.146   9.347 -0.4219 -0.3009 -0.1582
   70SLPC  H16R 6043   5.830   4.236   9.293  1.7330  0.9076  2.9771
   70SLPC  H16S 6044   5.837   4.066   9.283  0.0598 -0.8356  0.8045
   70SLPC  C217 6045   5.860   4.155   9.483 -0.3569 -0.2825  0.0889
   70SLPC  H17R 6046   5.812   4.093   9.562  0.4690  0.6685  1.3740
   70SLPC  H17S 6047   5.852   4.255   9.530  1.2743  0.3105 -0.7981
   70SLPC  C218 6048   6.007   4.132   9.487 -0.0149  0.4878 -0.2728
   70SLPC  H18R 6049   6.039   4.026   9.470 -0.2887  0.7500 -2.8818
   70SLPC  H18S 6050   6.048   4.163   9.585 -1.4128  2.1867 -0.1767
   70SLPC  H18T 6051   6.067   4.196   9.418  1.5453  1.1442  1.6073
   70SLPC   C33 6052   6.213   4.646  10.366 -0.1170  0.4280 -0.4733
   70SLPC   H3X 6053   6.316   4.676  10.392  0.0573 -0.9286  0.5049
   70SLPC   H3Y 6054   6.148   4.732  10.394 -0.7762 -0.6904  1.6768
   70SLPC   C34 6055   6.185   4.637  10.218  0.1416 -0.6208  0.0650
   70SLPC   H4X 6056   6.262   4.572  10.172 -2.2959 -2.5121 -1.6743
   70SLPC   H4Y 6057   6.179   4.741  10.179 -3.2611 -0.3183  1.0225
   70SLPC   C35 6058   6.053   4.574  10.180  0.0636 -0.2218  0.9478
   70SLPC   H5X 6059   5.964   4.634  10.208 -0.9570 -1.7533  1.1113
   70SLPC   H5Y 6060   6.043   4.470  10.218 -0.5726 -0.7841 -0.6504
   70SLPC   C36 6061   6.033   4.560  10.024 -0.2871 -0.9113 -0.2497
   70SLPC   H6X 6062   6.044   4.667   9.995 -0.6968 -0.3075  1.6973
   70SLPC   H6Y 6063   5.940   4.515   9.984 -1.3125 -0.9782  2.0620
   70SLPC   C37 6064   6.144   4.482   9.958 -0.5846  0.2931 -0.0383
   70SLPC   H7X 6065   6.159   4.394  10.025 -1.4745  1.7036  2.1272
   70SLPC   H7Y 6066   6.238   4.542   9.963  0.3704 -1.2146  1.0637
   70SLPC   C38 6067   6.124   4.427   9.819 -0.4356  0.0537  0.0036
   70SLPC   H8X 6068   6.018   4.392   9.822  0.0810 -1.7920 -1.5084
   70SLPC   H8Y 6069   6.184   4.338   9.794 -1.7236 -0.4008 -1.6360
   70SLPC   C39 6070   6.117   4.537   9.718 -0.0501 -0.4743  0.2514
   70SLPC   H9X 6071   6.219   4.582   9.721 -0.2727 -0.0100  1.8261
   70SLPC   H9Y 6072   6.045   4.606   9.767  1.1233 -0.0596  1.4325
   70SLPC  C310 6073   6.082   4.499   9.576  0.4651  0.8549  0.9387
   70SLPC  H10X 6074   6.000   4.424   9.569  1.7951 -0.7120  1.3669
   70SLPC  H10Y 6075   6.164   4.441   9.528 -0.1413  0.0718  0.8172
   70SLPC  C311 6076   6.029   4.616   9.490 -0.3763  0.4394  0.1720
   70SLPC  H11X 6077   6.089   4.707   9.512  0.8152 -0.1170 -0.6941
   70SLPC  H11Y 6078   5.925   4.633   9.525  1.2538  2.9725  4.5311
   70SLPC  C312 6079   6.034   4.585   9.335  0.2043  0.6908  0.4919
   70SLPC  H12X 6080   5.968   4.497   9.318  1.0897  0.4547 -2.0536
   70SLPC  H12Y 6081   6.134   4.547   9.307  0.4430  0.8868  1.0560
   70SLPC  C313 6082   6.008   4.704   9.244  0.6318 -0.1096  0.0321
   70SLPC  H13X 6083   6.090   4.778   9.263  1.5728 -1.0609 -0.2353
   70SLPC  H13Y 6084   5.906   4.745   9.260 -0.1584 -1.2873 -1.7709
   70SLPC  C314 6085   6.018   4.661   9.098 -0.8390 -0.2596  0.3905
   70SLPC  H14X 6086   5.958   4.568   9.090  0.7396 -1.5368  2.3160
   70SLPC  H14Y 6087   6.118   4.629   9.061 -2.2021 -3.4950 -0.8599
   70SLPC  C315 6088   5.968   4.767   9.006  0.0584 -0.2765 -0.5783
   70SLPC  H15X 6089   5.858   4.784   9.011  0.1845  0.8565 -1.2997
   70SLPC  H15Y 6090   5.994   4.740   8.902 -0.2309 -1.6491 -0.3157
   70SLPC  C316 6091   6.036   4.900   9.032  0.1922  0.2601  0.5636
   70SLPC  H16X 6092   6.015   4.926   9.138 -0.0965  1.1597  0.2952
   70SLPC  H16Y 6093   5.997   4.981   8.967 -1.6247 -0.1189  1.1193
   70SLPC  C317 6094   6.186   4.901   9.000 -0.1101 -0.0844 -0.1514
   70SLPC  H17X 6095   6.238   4.813   9.043  2.0124  1.9512  1.6916
   70SLPC  H17Y 6096   6.225   4.988   9.056  1.3677  0.5801 -2.1051
   70SLPC  C318 6097   6.214   4.919   8.850 -0.3963 -1.0496 -0.0252
   70SLPC  H18X 6098   6.196   4.829   8.787  1.7740 -1.0478 -0.7235
   70SLPC  H18Y 6099   6.320   4.951   8.841 -0.8948  0.6614 -0.2057
   70SLPC  H18Z 6100   6.155   5.008   8.820 -0.1860 -0.8023  0.2986
   71SLPC     N 6101   5.243   2.786  11.107  0.0421  0.0410 -0.1536
   71SLPC   C13 6102   5.375   2.730  11.143  0.5629  0.0936  0.9182
   71SLPC  H13A 6103   5.409   2.656  11.073  0.1976 -1.0741  1.9493
   71SLPC  H13B 6104   5.446   2.810  11.157  2.1867 -1.2056  0.4271
   71SLPC  H13C 6105   5.365   2.685  11.240  1.0890  1.0869  1.4414
   71SLPC   C14 6106   5.198   2.887  11.210  0.4250  0.0341  0.1228
   71SLPC  H14A 6107   5.197   2.839  11.307 -0.1266  0.5316  0.3650
   71SLPC  H14B 6108   5.262   2.974  11.208  0.7694 -0.2312 -0.5157
   71SLPC  H14C 6109   5.098   2.926  11.198 -0.5621 -2.6619 -1.2600
   71SLPC   C15 6110   5.148   2.671  11.106 -0.4549  0.4778  0.1308
   71SLPC  H15A 6111   5.044   2.700  11.117  0.2691  2.6307  2.2337
   71SLPC  H15B 6112   5.155   2.612  11.016 -2.5390 -0.9753  0.8517
   71SLPC  H15C 6113   5.175   2.595  11.177  0.8168 -0.3552 -1.1844
   71SLPC   C12 6114   5.239   2.858  10.973  0.4653  0.0301 -0.6851
   71SLPC  H12A 6115   5.304   2.943  10.985 -1.5172  1.6068 -0.6153
   71SLPC  H12B 6116   5.142   2.904  10.965  0.2037 -0.4270 -0.2080
   71SLPC   C11 6117   5.277   2.777  10.859 -0.3430  0.1957  1.0252
   71SLPC  H11A 6118   5.270   2.851  10.777 -1.5385 -0.0680  0.8682
   71SLPC  H11B 6119   5.190   2.707  10.849  0.1061 -0.0499 -3.6302
   71SLPC     P 6120   5.530   2.793  10.822 -0.0227  0.2801  0.0349
   71SLPC   O13 6121   5.520   2.940  10.867 -0.3510 -0.2924 -1.0983
   71SLPC   O14 6122   5.654   2.724  10.849  0.0958  0.6408  0.2773
   71SLPC   O12 6123   5.402   2.711  10.868  0.8189 -0.2013 -0.2112
   71SLPC   O11 6124   5.500   2.789  10.662 -0.0390 -0.5637  0.0990
   71SLPC    C1 6125   5.474   2.660  10.604 -0.3630 -0.0792 -0.1092
   71SLPC    HA 6126   5.526   2.584  10.668 -1.1194  1.7426  2.8633
   71SLPC    HB 6127   5.366   2.640  10.587  0.0210  0.5250 -4.3131
   71SLPC    C2 6128   5.549   2.654  10.461  0.2079 -0.4794  0.4281
   71SLPC    HS 6129   5.660   2.658  10.472  0.1455 -0.0901  0.9657
   71SLPC   O21 6130   5.513   2.766  10.373  0.4330  0.3786  0.1172
   71SLPC   C21 6131   5.611   2.818  10.300  0.5191 -0.7296  0.4566
   71SLPC   O22 6132   5.728   2.790  10.292 -0.2361 -0.6023 -0.5007
   71SLPC   C22 6133   5.543   2.937  10.223  1.0424  0.5278  0.0738
   71SLPC   H2R 6134   5.436   2.910  10.209  0.8214  0.7194  1.2857
   71SLPC   H2S 6135   5.549   3.032  10.281  0.0300  0.7669 -0.1977
   71SLPC    C3 6136   5.507   2.507  10.403  0.7229  0.2519  0.2603
   71SLPC    HX 6137   5.397   2.509  10.388  0.6626 -0.7460  0.4847
   71SLPC    HY 6138   5.518   2.423  10.476 -1.3765  0.9101  1.4038
   71SLPC   O31 6139   5.578   2.479  10.285 -0.7860 -0.0590 -0.0249
   71SLPC   C31 6140   5.523   2.502  10.167 -0.6230 -0.1973 -0.6870
   71SLPC   O32 6141   5.403   2.524  10.141 -0.2206 -0.1483 -0.3122
   71SLPC   C32 6142   5.637   2.511  10.055  0.0724 -0.2291 -0.7486
   71SLPC   H2X 6143   5.723   2.442  10.064  1.4008  1.2872 -1.2174
   71SLPC   H2Y 6144   5.681   2.613  10.067  0.7016 -0.3961 -1.5955
   71SLPC   C23 6145   5.616   2.978  10.090  0.3217  0.0713 -0.4707
   71SLPC   H3R 6146   5.725   2.985  10.111  0.2346  0.6578 -0.1882
   71SLPC   H3S 6147   5.579   3.081  10.073 -0.2072  0.1139  0.7920
   71SLPC   C24 6148   5.578   2.894   9.972  0.6578  0.1176 -0.0769
   71SLPC   H4R 6149   5.474   2.858   9.987  1.1615 -2.2434 -1.7673
   71SLPC   H4S 6150   5.636   2.800   9.973 -1.0145 -0.9552  0.2587
   71SLPC   C25 6151   5.592   2.964   9.836 -0.1251 -0.0494  0.2178
   71SLPC   H5R 6152   5.695   3.007   9.830  0.4430 -0.6775  3.7127
   71SLPC   H5S 6153   5.528   3.054   9.844 -2.0422 -1.3516  0.2235
   71SLPC   C26 6154   5.554   2.869   9.724  0.5178  0.7848  0.5870
   71SLPC   H6R 6155   5.454   2.828   9.751  1.4917 -0.6499  2.2169
   71SLPC   H6S 6156   5.627   2.786   9.735  0.3109  0.1751 -2.0181
   71SLPC   C27 6157   5.547   2.929   9.586 -0.1286 -0.2376  0.1253
   71SLPC   H7R 6158   5.632   2.999   9.571  0.6331 -0.8485  1.3780
   71SLPC   H7S 6159   5.448   2.976   9.568 -0.1823 -0.8230 -1.2213
   71SLPC   C28 6160   5.551   2.820   9.478  0.3508 -0.4330  0.3762
   71SLPC   H8R 6161   5.477   2.740   9.498  0.8736 -1.1500 -0.5080
   71SLPC   H8S 6162   5.648   2.771   9.500 -0.2909 -1.7336  0.4013
   71SLPC   C29 6163   5.539   2.873   9.338  0.8614  0.3794  0.7028
   71SLPC   H9R 6164   5.441   2.917   9.316  1.0597  0.1439 -0.7392
   71SLPC  C210 6165   5.634   2.877   9.239 -0.2165  0.6342  0.1142
   71SLPC  H10R 6166   5.614   2.924   9.142  3.2955 -0.3232 -1.2284
   71SLPC  C211 6167   5.778   2.831   9.247  0.3880 -0.1692  0.0949
   71SLPC  H11R 6168   5.783   2.722   9.226  0.8895 -0.1692  0.1820
   71SLPC  H11S 6169   5.827   2.850   9.345  1.5668 -1.8279 -0.1297
   71SLPC  C212 6170   5.856   2.905   9.136 -0.3982 -0.1739  0.0182
   71SLPC  H12R 6171   5.876   3.011   9.157 -0.1314  0.1523 -1.7979
   71SLPC  C213 6172   5.900   2.849   9.024 -0.4082 -0.0532  0.2366
   71SLPC  H13R 6173   5.941   2.914   8.945  0.2265 -1.3489 -0.5249
   71SLPC  C214 6174   5.885   2.707   8.976  0.1707  0.0754  0.4487
   71SLPC  H14R 6175   5.783   2.682   9.012  0.6497 -0.5026  1.4359
   71SLPC  H14S 6176   5.951   2.633   9.026 -1.9917 -0.8209  2.1407
   71SLPC  C215 6177   5.896   2.694   8.819  0.4837  0.5854  0.4621
   71SLPC  H15R 6178   5.859   2.591   8.798  1.7434  0.2014  0.0658
   71SLPC  H15S 6179   6.002   2.692   8.786  0.3123 -1.3592 -0.1377
   71SLPC  C216 6180   5.818   2.801   8.740  0.4868  0.0545 -0.0105
   71SLPC  H16R 6181   5.881   2.861   8.671  1.1736  2.4318  2.4864
   71SLPC  H16S 6182   5.771   2.873   8.810  2.0076  1.0249  0.0792
   71SLPC  C217 6183   5.707   2.745   8.656 -0.2472  0.7973 -0.4154
   71SLPC  H17R 6184   5.618   2.703   8.707 -0.5633  0.2772 -1.3782
   71SLPC  H17S 6185   5.733   2.658   8.592  1.4580  1.3004 -0.4561
   71SLPC  C218 6186   5.659   2.864   8.560  0.1112  0.1980  0.3801
   71SLPC  H18R 6187   5.625   2.956   8.612 -1.6736 -0.6268  0.7753
   71SLPC  H18S 6188   5.593   2.824   8.480 -0.3004 -0.9793  1.2881
   71SLPC  H18T 6189   5.748   2.898   8.504  1.3205  1.5337  2.9331
   71SLPC   C33 6190   5.580   2.488   9.919 -0.2833  0.0125 -0.3371
   71SLPC   H3X 6191   5.495   2.559   9.912 -0.5391 -0.1334  0.9632
   71SLPC   H3Y 6192   5.516   2.396   9.920 -0.7359  0.3244  0.9978
   71SLPC   C34 6193   5.655   2.466   9.791  0.0302 -0.1551  1.0772
   71SLPC   H4X 6194   5.732   2.389   9.814  1.6683  0.9615 -0.3763
   71SLPC   H4Y 6195   5.703   2.561   9.757  0.5826 -1.0399 -0.7503
   71SLPC   C35 6196   5.554   2.427   9.679  0.4835  0.8133  0.0131
   71SLPC   H5X 6197   5.461   2.486   9.695  0.9967  1.3547  1.0407
   71SLPC   H5Y 6198   5.527   2.319   9.678  1.5044  0.4855 -2.7898
   71SLPC   C36 6199   5.599   2.464   9.539 -0.4406 -0.5652  0.2593
   71SLPC   H6X 6200   5.702   2.424   9.524 -0.4905 -1.1496  1.3904
   71SLPC   H6Y 6201   5.598   2.575   9.535  0.2234 -0.5738 -0.4741
   71SLPC   C37 6202   5.509   2.408   9.428 -0.2943 -0.4435 -0.7312
   71SLPC   H7X 6203   5.402   2.425   9.449 -0.3604 -3.0881  1.6766
   71SLPC   H7Y 6204   5.514   2.297   9.432 -0.9541 -0.4423  0.9419
   71SLPC   C38 6205   5.563   2.451   9.291  0.7753 -0.4909 -0.5698
   71SLPC   H8X 6206   5.663   2.404   9.276  1.3715  1.2291 -2.4922
   71SLPC   H8Y 6207   5.576   2.562   9.291 -1.0226 -0.2501 -0.7653
   71SLPC   C39 6208   5.473   2.430   9.171  0.5018  0.3174 -0.1828
   71SLPC   H9X 6209   5.379   2.489   9.180  0.3425 -0.1832  2.3224
   71SLPC   H9Y 6210   5.439   2.324   9.167  2.2558 -0.2315 -2.5741
   71SLPC  C310 6211   5.535   2.470   9.038 -0.0464  0.0702  0.4068
   71SLPC  H10X 6212   5.611   2.399   8.998  0.5959  0.3503  1.0887
   71SLPC  H10Y 6213   5.604   2.551   9.071 -0.8012  1.8130 -2.0458
   71SLPC  C311 6214   5.459   2.528   8.926 -0.9488  0.2472  0.0493
   71SLPC  H11X 6215   5.530   2.552   8.844 -0.8179  0.7812  0.3111
   71SLPC  H11Y 6216   5.416   2.627   8.954 -1.0563  0.3871 -0.5837
   71SLPC  C312 6217   5.344   2.440   8.875 -0.2342  0.4379  0.5017
   71SLPC  H12X 6218   5.308   2.385   8.965  2.1397  0.4418  1.5206
   71SLPC  H12Y 6219   5.382   2.362   8.806 -1.3282 -2.7765  3.2112
   71SLPC  C313 6220   5.237   2.514   8.800  0.3999 -0.0471  0.3153
   71SLPC  H13X 6221   5.177   2.571   8.874  0.9372  2.8380 -1.3496
   71SLPC  H13Y 6222   5.162   2.445   8.755  1.1377 -0.7294  0.0990
   71SLPC  C314 6223   5.296   2.598   8.685  0.3252  0.1938 -0.3490
   71SLPC  H14X 6224   5.351   2.523   8.623  1.1302 -0.9979  1.7019
   71SLPC  H14Y 6225   5.373   2.671   8.718 -1.1955  2.0952 -0.8192
   71SLPC  C315 6226   5.193   2.666   8.596 -0.1255  0.4578  0.0599
   71SLPC  H15X 6227   5.102   2.602   8.595  0.0173  0.0602  2.9599
   71SLPC  H15Y 6228   5.243   2.686   8.499  2.1076  0.2827  1.1069
   71SLPC  C316 6229   5.143   2.800   8.643 -0.1985  0.6261 -0.5000
   71SLPC  H16X 6230   5.228   2.872   8.644  0.0096  0.3827  0.8438
   71SLPC  H16Y 6231   5.119   2.779   8.749  1.2848 -0.5401 -0.3547
   71SLPC  C317 6232   5.027   2.853   8.575 -0.0935 -0.3242  0.0324
   71SLPC  H17X 6233   4.942   2.787   8.603 -1.6346  0.4960 -2.3632
   71SLPC  H17Y 6234   5.051   2.824   8.470  1.3515 -3.2027  1.0488
   71SLPC  C318 6235   5.002   3.002   8.605 -0.4339 -0.5423  0.1508
   71SLPC  H18X 6236   4.999   2.997   8.716 -1.6476  1.3958  0.2515
   71SLPC  H18Y 6237   4.911   3.052   8.566 -0.4870 -0.8437 -0.1139
   71SLPC  H18Z 6238   5.086   3.071   8.581 -1.0723 -0.4139 -1.9961
   72SLPC     N 6239   6.515   0.601  11.093 -0.0271  0.4858  0.1538
   72SLPC   C13 6240   6.622   0.638  11.191  0.2390  0.5973  0.1449
   72SLPC  H13A 6241   6.614   0.589  11.287  0.3131 -0.2462 -0.2666
   72SLPC  H13B 6242   6.716   0.627  11.138 -0.0138  0.0583 -0.2029
   72SLPC  H13C 6243   6.631   0.742  11.216  2.2159  0.6166 -0.4292
   72SLPC   C14 6244   6.384   0.627  11.163  0.0710  0.1578 -0.8997
   72SLPC  H14A 6245   6.372   0.572  11.255 -1.0508  0.6810 -0.7128
   72SLPC  H14B 6246   6.366   0.728  11.196  0.1469 -0.4681  1.1700
   72SLPC  H14C 6247   6.304   0.606  11.093 -0.4758 -0.9800  0.0538
   72SLPC   C15 6248   6.514   0.451  11.061 -0.1639 -0.2902  0.3147
   72SLPC  H15A 6249   6.608   0.418  11.018  0.5638  2.1602 -0.1319
   72SLPC  H15B 6250   6.496   0.387  11.146 -0.8963 -0.2471  0.1981
   72SLPC  H15C 6251   6.436   0.433  10.989  0.9621  1.2204 -1.3774
   72SLPC   C12 6252   6.530   0.687  10.971  0.1667 -0.2190 -0.5131
   72SLPC  H12A 6253   6.536   0.787  11.012  0.5033 -1.1486  1.8074
   72SLPC  H12B 6254   6.436   0.682  10.917  0.5784 -1.2993 -1.1670
   72SLPC   C11 6255   6.654   0.675  10.879  0.4768  0.3783  0.3382
   72SLPC  H11A 6256   6.645   0.756  10.804  2.2585  2.4656  2.2196
   72SLPC  H11B 6257   6.643   0.578  10.826 -2.1444  0.0177  1.3890
   72SLPC     P 6258   6.843   0.818  10.984 -0.2837  0.5166 -0.0118
   72SLPC   O13 6259   6.739   0.922  10.995  0.3382 -0.2479 -0.3075
   72SLPC   O14 6260   6.911   0.787  11.111 -0.2778  0.1413 -0.1369
   72SLPC   O12 6261   6.777   0.679  10.947  0.2653 -0.2640 -0.6580
   72SLPC   O11 6262   6.942   0.848  10.871  0.0812  0.5056  0.1506
   72SLPC    C1 6263   6.925   0.799  10.735 -0.4704 -0.5514  0.1351
   72SLPC    HA 6264   6.970   0.698  10.736 -0.4496 -0.5462  0.9184
   72SLPC    HB 6265   6.820   0.796  10.701 -0.3157 -1.5168 -0.2839
   72SLPC    C2 6266   7.012   0.882  10.643 -0.2058 -0.3066  0.3402
   72SLPC    HS 6267   6.978   0.987  10.653  1.7977  0.7764 -2.7375
   72SLPC   O21 6268   7.006   0.834  10.507  0.3282  0.3729  0.6307
   72SLPC   C21 6269   6.949   0.917  10.414  0.2536 -0.2615 -1.0176
   72SLPC   O22 6270   6.909   1.031  10.438 -0.1335  0.2117  0.4024
   72SLPC   C22 6271   6.950   0.854  10.279 -0.1910  0.0343  0.1376
   72SLPC   H2R 6272   7.051   0.849  10.232  0.0994  0.8033  0.6699
   72SLPC   H2S 6273   6.930   0.745  10.284 -0.2396 -0.0877 -2.0032
   72SLPC    C3 6274   7.158   0.867  10.678 -0.0285  0.8956  0.1310
   72SLPC    HX 6275   7.184   0.759  10.686 -0.2696  0.8823  0.8126
   72SLPC    HY 6276   7.162   0.904  10.783 -2.4745 -1.6346  1.2480
   72SLPC   O31 6277   7.258   0.924  10.588  0.0024 -0.0706 -0.2405
   72SLPC   C31 6278   7.271   1.059  10.611  0.5611 -0.2079 -1.0851
   72SLPC   O32 6279   7.223   1.121  10.703  0.0517  0.0424 -0.3762
   72SLPC   C32 6280   7.332   1.122  10.491  0.2829 -0.4520 -0.4681
   72SLPC   H2X 6281   7.365   1.032  10.434  0.8367 -0.4641 -0.1336
   72SLPC   H2Y 6282   7.429   1.173  10.506 -0.0443  1.0403 -2.9550
   72SLPC   C23 6283   6.850   0.916  10.184 -0.6620 -0.0304  0.0241
   72SLPC   H3R 6284   6.852   1.027  10.183 -0.2261  0.0282  2.2534
   72SLPC   H3S 6285   6.751   0.898  10.232 -1.3515 -0.9003 -1.6359
   72SLPC   C24 6286   6.847   0.845  10.050  0.8136  0.4780 -0.1942
   72SLPC   H4R 6287   6.750   0.857   9.997  0.4353  0.2144  0.4284
   72SLPC   H4S 6288   6.861   0.736  10.067 -0.7932  0.1744 -0.6442
   72SLPC   C25 6289   6.947   0.917   9.955 -0.0785 -0.2052 -0.1957
   72SLPC   H5R 6290   7.053   0.913   9.988  0.0477 -2.4828 -0.7244
   72SLPC   H5S 6291   6.914   1.023   9.949 -0.4015 -0.3822 -2.4560
   72SLPC   C26 6292   6.944   0.872   9.811  0.3174  0.1353  0.1872
   72SLPC   H6R 6293   6.840   0.839   9.788  0.0479  0.4355  0.9584
   72SLPC   H6S 6294   7.004   0.778   9.818  0.8827  0.5883  1.8689
   72SLPC   C27 6295   6.999   0.975   9.717 -0.2474  0.8089 -0.3150
   72SLPC   H7R 6296   7.086   1.032   9.757  1.6539 -1.0526 -1.5788
   72SLPC   H7S 6297   6.920   1.052   9.703 -1.2762 -0.0317  0.6709
   72SLPC   C28 6298   7.058   0.909   9.586 -0.0016  0.0054 -0.4416
   72SLPC   H8R 6299   6.985   0.845   9.532  0.1019  1.0027 -1.8162
   72SLPC   H8S 6300   7.143   0.848   9.624  0.4250  0.0030 -1.3717
   72SLPC   C29 6301   7.110   1.023   9.506  0.3623  0.0468  1.0866
   72SLPC   H9R 6302   7.161   1.106   9.555  0.7637 -0.9347  2.3766
   72SLPC  C210 6303   7.092   1.032   9.369  0.1168  0.2588 -0.2919
   72SLPC  H10R 6304   7.123   1.127   9.324 -0.1183  0.3428 -0.2804
   72SLPC  C211 6305   7.026   0.932   9.270  0.9318 -0.3054  0.9270
   72SLPC  H11R 6306   6.917   0.951   9.272  0.8900 -0.5761  1.9548
   72SLPC  H11S 6307   7.036   0.828   9.306 -0.1458 -0.6444  0.2911
   72SLPC  C212 6308   7.071   0.944   9.128 -0.4815 -0.0920 -0.0260
   72SLPC  H12R 6309   7.170   0.992   9.122 -0.8408  0.5324 -1.9126
   72SLPC  C213 6310   7.006   0.914   9.011 -0.2891  0.3649 -0.0399
   72SLPC  H13R 6311   7.061   0.908   8.916 -0.3809  1.9715 -0.2369
   72SLPC  C214 6312   6.868   0.857   9.005  0.8952  0.1807  0.2802
   72SLPC  H14R 6313   6.790   0.936   9.012  2.8500  2.1363  1.5193
   72SLPC  H14S 6314   6.848   0.788   9.089 -2.9160  0.1768 -0.4490
   72SLPC  C215 6315   6.854   0.778   8.871 -0.2199 -0.7847  0.5267
   72SLPC  H15R 6316   6.941   0.709   8.863  1.4153  1.2039  0.1712
   72SLPC  H15S 6317   6.864   0.861   8.798 -0.0461  1.1305  2.6002
   72SLPC  C216 6318   6.720   0.706   8.858  0.3227  0.2646  0.2395
   72SLPC  H16R 6319   6.631   0.769   8.877  0.8868  2.1597 -2.7824
   72SLPC  H16S 6320   6.725   0.622   8.931 -0.3957 -0.1148 -0.1422
   72SLPC  C217 6321   6.684   0.652   8.717  0.3273 -0.8011  0.1985
   72SLPC  H17R 6322   6.743   0.560   8.697  0.7576 -0.2580 -1.2137
   72SLPC  H17S 6323   6.722   0.738   8.658  2.9735 -1.1716  1.2472
   72SLPC  C218 6324   6.532   0.628   8.703  0.0897 -0.1622 -0.3733
   72SLPC  H18R 6325   6.494   0.576   8.793  1.0293  0.0483  0.1702
   72SLPC  H18S 6326   6.513   0.578   8.606 -2.7043  0.0155  0.0150
   72SLPC  H18T 6327   6.491   0.731   8.705  0.2972 -0.0312 -1.8107
   72SLPC   C33 6328   7.232   1.209  10.404  0.4243  0.5732 -0.3995
   72SLPC   H3X 6329   7.249   1.315  10.433  1.8936  0.3336 -0.3240
   72SLPC   H3Y 6330   7.125   1.179  10.408  1.2801 -2.9288 -0.4892
   72SLPC   C34 6331   7.251   1.197  10.252 -0.5861  0.0781  0.2059
   72SLPC   H4X 6332   7.223   1.096  10.214 -1.1877  0.3092  0.0237
   72SLPC   H4Y 6333   7.358   1.220  10.236 -0.5056 -1.2548 -1.4647
   72SLPC   C35 6334   7.168   1.305  10.175 -0.4359  0.2299  0.2072
   72SLPC   H5X 6335   7.204   1.403  10.215  0.9673 -0.8557  1.7592
   72SLPC   H5Y 6336   7.065   1.295  10.214 -1.2795 -0.8867 -2.1380
   72SLPC   C36 6337   7.170   1.291  10.025 -0.1921  0.1008  0.0503
   72SLPC   H6X 6338   7.108   1.201  10.001 -2.5372  1.6922 -0.2225
   72SLPC   H6Y 6339   7.279   1.287  10.003 -0.3500 -2.7138 -0.6417
   72SLPC   C37 6340   7.102   1.398   9.955 -0.2286 -0.3614 -0.8152
   72SLPC   H7X 6341   7.171   1.485   9.940  0.7291 -1.0476 -0.4713
   72SLPC   H7Y 6342   7.016   1.430  10.018  1.2717  0.3586  0.9421
   72SLPC   C38 6343   7.056   1.356   9.816 -0.4864 -0.2965  0.2953
   72SLPC   H8X 6344   6.991   1.266   9.818  1.3748 -1.6911  0.0267
   72SLPC   H8Y 6345   7.143   1.325   9.755  0.6103  0.2309  1.5236
   72SLPC   C39 6346   6.975   1.462   9.740 -0.5071  0.8219  0.5155
   72SLPC   H9X 6347   7.039   1.552   9.749  2.1183 -0.8544 -0.2771
   72SLPC   H9Y 6348   6.880   1.485   9.793 -1.2238  0.8154 -0.7215
   72SLPC  C310 6349   6.960   1.417   9.594 -0.1927  0.1943  0.0924
   72SLPC  H10X 6350   6.881   1.339   9.583 -0.1309  0.3926 -2.0480
   72SLPC  H10Y 6351   7.054   1.383   9.547  0.6981  1.1300  1.1575
   72SLPC  C311 6352   6.932   1.539   9.506  0.8093 -0.3213 -0.1674
   72SLPC  H11X 6353   6.916   1.494   9.406 -1.7798 -0.7132  0.3546
   72SLPC  H11Y 6354   7.022   1.603   9.509  0.4684  0.1393  0.4288
   72SLPC  C312 6355   6.802   1.626   9.534  0.3428 -1.3307  0.4100
   72SLPC  H12X 6356   6.778   1.689   9.446  0.7673 -1.4442  0.2112
   72SLPC  H12Y 6357   6.829   1.700   9.612 -0.2660 -0.9010  0.2225
   72SLPC  C313 6358   6.679   1.541   9.566  0.1403 -0.0719 -0.6445
   72SLPC  H13X 6359   6.670   1.491   9.664 -1.0622  2.6083  0.7437
   72SLPC  H13Y 6360   6.670   1.472   9.480  0.6220  0.1066 -0.8382
   72SLPC  C314 6361   6.553   1.629   9.565 -0.4496 -0.6752  0.1434
   72SLPC  H14X 6362   6.469   1.556   9.563 -2.3845  1.4458 -0.3469
   72SLPC  H14Y 6363   6.557   1.694   9.475  1.3457 -0.0327  0.6481
   72SLPC  C315 6364   6.537   1.732   9.676 -0.5202  0.7750 -0.5351
   72SLPC  H15X 6365   6.437   1.780   9.665  0.1936  1.8186 -3.2320
   72SLPC  H15Y 6366   6.612   1.813   9.664 -1.6079  1.7935 -0.6990
   72SLPC  C316 6367   6.551   1.685   9.820 -0.1465 -0.0230  0.1543
   72SLPC  H16X 6368   6.573   1.578   9.840 -1.0074 -0.4340 -0.9805
   72SLPC  H16Y 6369   6.464   1.717   9.882  1.0033  1.1404  1.2203
   72SLPC  C317 6370   6.678   1.757   9.886  0.2548 -0.4641  0.8775
   72SLPC  H17X 6371   6.656   1.863   9.912 -0.7430  0.3795 -2.8524
   72SLPC  H17Y 6372   6.754   1.768   9.805  1.1984  2.8236  2.0438
   72SLPC  C318 6373   6.735   1.690  10.010  0.2303  0.3778  0.2682
   72SLPC  H18X 6374   6.795   1.598   9.995 -3.4404 -2.5559  1.8328
   72SLPC  H18Y 6375   6.658   1.667  10.086 -0.0849 -1.3424 -0.5300
   72SLPC  H18Z 6376   6.805   1.767  10.047  0.7745 -0.8606  1.9232
   73SLPC     N 6377   2.712   6.304  11.194  0.8269 -0.4497  0.4535
   73SLPC   C13 6378   2.851   6.268  11.226  0.3814  0.3579  0.2869
   73SLPC  H13A 6379   2.916   6.332  11.168 -3.7179  0.6357 -4.7344
   73SLPC  H13B 6380   2.879   6.293  11.327 -1.0744  0.8600  0.5918
   73SLPC  H13C 6381   2.867   6.162  11.217 -2.1840 -0.0447 -0.2489
   73SLPC   C14 6382   2.714   6.450  11.168 -0.5095 -0.1083  0.6966
   73SLPC  H14A 6383   2.784   6.470  11.088 -2.3573  1.0708 -0.6866
   73SLPC  H14B 6384   2.617   6.497  11.158 -0.6147 -0.4080  0.2950
   73SLPC  H14C 6385   2.762   6.500  11.251  1.7050 -0.9254 -0.0061
   73SLPC   C15 6386   2.624   6.281  11.313 -0.2944  0.1834  0.7405
   73SLPC  H15A 6387   2.523   6.313  11.291 -0.8204 -2.7206 -1.6173
   73SLPC  H15B 6388   2.614   6.175  11.333 -0.4761  0.4586  2.2443
   73SLPC  H15C 6389   2.648   6.336  11.403  0.3392 -2.2131  2.1193
   73SLPC   C12 6390   2.657   6.219  11.081 -0.2054 -0.1899 -0.4044
   73SLPC  H12A 6391   2.550   6.202  11.083 -0.2796 -0.1676 -2.2477
   73SLPC  H12B 6392   2.695   6.118  11.081  0.4304  0.0442  0.3401
   73SLPC   C11 6393   2.684   6.273  10.938  0.2154  0.0786  0.7877
   73SLPC  H11A 6394   2.617   6.359  10.915 -1.2646 -1.2027  0.0966
   73SLPC  H11B 6395   2.655   6.198  10.861  0.6514  0.6333  0.0662
   73SLPC     P 6396   2.944   6.224  10.888 -0.2366  0.1970  0.0950
   73SLPC   O13 6397   3.068   6.300  10.926  0.1871  0.5355  0.0764
   73SLPC   O14 6398   2.929   6.101  10.958 -0.0877 -0.3539 -0.6434
   73SLPC   O12 6399   2.820   6.307  10.917  0.0708  0.2050 -0.3331
   73SLPC   O11 6400   2.958   6.210  10.732  0.0582 -0.6274  0.2592
   73SLPC    C1 6401   2.907   6.310  10.643 -0.0970  0.2466 -0.0442
   73SLPC    HA 6402   2.834   6.272  10.568 -0.3461  1.7226 -0.5805
   73SLPC    HB 6403   2.852   6.388  10.699 -1.3269  1.3071 -2.5630
   73SLPC    C2 6404   3.023   6.367  10.568 -0.9413 -0.2297  1.1239
   73SLPC    HS 6405   3.099   6.404  10.640  0.0686 -2.5016  1.3113
   73SLPC   O21 6406   2.981   6.473  10.471 -0.1397 -0.0299  0.0724
   73SLPC   C21 6407   2.930   6.578  10.527 -0.0770  0.0905  0.1727
   73SLPC   O22 6408   2.948   6.610  10.643  0.3172 -0.1940 -0.2846
   73SLPC   C22 6409   2.849   6.654  10.420  0.3139  0.1077 -0.2228
   73SLPC   H2R 6410   2.765   6.593  10.380  1.5398 -2.1385  0.4205
   73SLPC   H2S 6411   2.811   6.748  10.465  1.0366 -0.2783  1.2646
   73SLPC    C3 6412   3.102   6.253  10.492  0.0096 -0.5867  0.1107
   73SLPC    HX 6413   3.022   6.189  10.450 -2.2806  0.7897  2.1129
   73SLPC    HY 6414   3.165   6.195  10.562  0.4414 -0.1709  0.0729
   73SLPC   O31 6415   3.180   6.308  10.383 -0.0279 -0.5319 -0.4103
   73SLPC   C31 6416   3.302   6.358  10.410 -0.4269  0.9266 -0.4758
   73SLPC   O32 6417   3.335   6.397  10.520 -0.6298 -0.1478  0.3947
   73SLPC   C32 6418   3.375   6.380  10.281  0.3282  0.6094  0.4566
   73SLPC   H2X 6419   3.427   6.284  10.264  2.2164  1.7623 -0.7319
   73SLPC   H2Y 6420   3.448   6.462  10.302 -1.1358  2.6634 -1.8917
   73SLPC   C23 6421   2.942   6.696  10.295 -0.6938 -0.0247 -0.5455
   73SLPC   H3R 6422   2.981   6.596  10.266  2.0979  1.3523 -1.9792
   73SLPC   H3S 6423   3.025   6.761  10.332 -0.3063 -1.1381  0.6434
   73SLPC   C24 6424   2.872   6.749  10.170 -0.1190  0.0660  0.0957
   73SLPC   H4R 6425   2.823   6.848  10.188 -0.1025  0.0191  0.4100
   73SLPC   H4S 6426   2.783   6.688  10.142 -0.5050 -0.3965  2.1775
   73SLPC   C25 6427   2.966   6.757  10.050 -0.6230  0.1573  0.1819
   73SLPC   H5R 6428   3.015   6.661  10.025 -1.6975  0.0223 -1.6159
   73SLPC   H5S 6429   3.053   6.822  10.075  0.1513 -0.9468  0.4328
   73SLPC   C26 6430   2.917   6.817   9.925  0.5594  0.0334  0.1228
   73SLPC   H6R 6431   2.811   6.847   9.937  0.2927 -0.4400 -0.9478
   73SLPC   H6S 6432   2.915   6.725   9.863  2.6389 -1.1748  1.6974
   73SLPC   C27 6433   2.997   6.928   9.860 -0.1915  0.0118 -0.0438
   73SLPC   H7R 6434   3.103   6.898   9.869 -0.0726 -0.5837 -2.7251
   73SLPC   H7S 6435   2.974   7.016   9.924 -0.2386  1.9511 -2.5951
   73SLPC   C28 6436   2.978   6.943   9.712 -0.0967  0.6923  0.3417
   73SLPC   H8R 6437   2.874   6.978   9.699 -1.8859 -3.3586  2.0449
   73SLPC   H8S 6438   2.982   6.841   9.667  0.2751  1.1174 -0.6213
   73SLPC   C29 6439   3.077   7.048   9.652  0.7557 -0.3780  0.3726
   73SLPC   H9R 6440   3.132   7.107   9.727  0.0033  1.4089 -0.4259
   73SLPC  C210 6441   3.089   7.083   9.523 -0.4428  0.1858  0.2810
   73SLPC  H10R 6442   3.144   7.172   9.492  0.9620 -0.8962 -0.4291
   73SLPC  C211 6443   3.001   7.027   9.410 -0.9661 -0.5685  0.6264
   73SLPC  H11R 6444   2.979   6.919   9.419 -0.6731 -1.2251 -4.0582
   73SLPC  H11S 6445   3.057   7.032   9.314 -3.0052  0.5353 -0.5640
   73SLPC  C212 6446   2.872   7.103   9.382 -0.2440  0.1832  0.0901
   73SLPC  H12R 6447   2.839   7.168   9.464  0.9989  0.4259  0.4223
   73SLPC  C213 6448   2.798   7.105   9.277  0.1172 -0.4548  0.0487
   73SLPC  H13R 6449   2.703   7.160   9.283  0.4890  0.4426 -1.7715
   73SLPC  C214 6450   2.837   7.032   9.151 -0.2381  0.4246 -0.0855
   73SLPC  H14R 6451   2.812   6.925   9.165 -2.4886  0.8109 -0.7443
   73SLPC  H14S 6452   2.947   7.040   9.138 -0.2788 -1.6101 -2.3440
   73SLPC  C215 6453   2.768   7.069   9.018 -0.3594  0.3097  0.6803
   73SLPC  H15R 6454   2.805   7.164   8.973 -0.9547  0.3502  0.2678
   73SLPC  H15S 6455   2.660   7.084   9.039 -0.7492 -0.2477 -0.7846
   73SLPC  C216 6456   2.784   6.959   8.911  0.5544 -0.0844 -0.0415
   73SLPC  H16R 6457   2.746   6.862   8.949  0.5311 -0.0226  0.0928
   73SLPC  H16S 6458   2.892   6.955   8.885  0.2615  1.4491 -1.6854
   73SLPC  C217 6459   2.710   6.990   8.781  0.9341 -0.0957 -0.7454
   73SLPC  H17R 6460   2.602   7.001   8.804  0.8266 -0.8790 -0.8465
   73SLPC  H17S 6461   2.703   6.905   8.710 -0.0281 -0.5191 -0.1549
   73SLPC  C218 6462   2.759   7.116   8.711  0.9695  0.5735 -0.1602
   73SLPC  H18R 6463   2.757   7.200   8.783  1.1378  2.1359 -1.9089
   73SLPC  H18S 6464   2.695   7.137   8.623 -0.6576  1.8579  1.2787
   73SLPC  H18T 6465   2.862   7.091   8.677  0.6626 -0.3521 -0.4482
   73SLPC   C33 6466   3.278   6.427  10.170  0.1827  0.3301  0.1204
   73SLPC   H3X 6467   3.247   6.533  10.184 -0.3250  0.2484 -0.3830
   73SLPC   H3Y 6468   3.188   6.365  10.151 -0.1452  0.8445 -0.0142
   73SLPC   C34 6469   3.347   6.449  10.031  0.4036  0.4311 -0.0284
   73SLPC   H4X 6470   3.375   6.348   9.992  1.1249  0.5196  0.2552
   73SLPC   H4Y 6471   3.434   6.517  10.036 -0.9602  2.1779  0.6428
   73SLPC   C35 6472   3.258   6.505   9.926 -0.0128 -0.5214  0.1295
   73SLPC   H5X 6473   3.221   6.604   9.960  0.0322 -1.2339  2.3795
   73SLPC   H5Y 6474   3.159   6.457   9.911 -0.5468 -0.4547  2.9733
   73SLPC   C36 6475   3.321   6.520   9.785  0.7256 -0.8688 -0.1066
   73SLPC   H6X 6476   3.353   6.422   9.743  0.1006 -0.0553 -2.6953
   73SLPC   H6Y 6477   3.410   6.586   9.775 -0.7739  1.1252 -1.2180
   73SLPC   C37 6478   3.226   6.578   9.674  0.3738  0.2337 -0.2559
   73SLPC   H7X 6479   3.172   6.670   9.705 -1.3819 -0.4195 -1.3072
   73SLPC   H7Y 6480   3.149   6.502   9.651 -0.4861  1.3515 -1.1789
   73SLPC   C38 6481   3.302   6.589   9.539 -0.5530  0.6198  0.1469
   73SLPC   H8X 6482   3.329   6.488   9.502  1.2413  0.9669  0.4202
   73SLPC   H8Y 6483   3.393   6.649   9.558 -0.7555  0.9676  0.0146
   73SLPC   C39 6484   3.222   6.671   9.435 -1.3121  0.1377 -0.2292
   73SLPC   H9X 6485   3.194   6.774   9.465 -1.1206  0.5801 -1.4842
   73SLPC   H9Y 6486   3.130   6.615   9.407  1.1229 -2.6729 -3.6360
   73SLPC  C310 6487   3.295   6.680   9.300  0.7341 -1.0858 -0.1347
   73SLPC  H10X 6488   3.319   6.576   9.270 -1.1349 -1.7442  0.5255
   73SLPC  H10Y 6489   3.390   6.736   9.320  1.1127 -1.3169 -1.2226
   73SLPC  C311 6490   3.223   6.751   9.188  0.5145 -0.9659  0.8710
   73SLPC  H11X 6491   3.208   6.859   9.207  1.7890 -1.0365  2.4496
   73SLPC  H11Y 6492   3.131   6.689   9.178 -0.9636  1.2985 -0.2271
   73SLPC  C312 6493   3.301   6.735   9.058  0.1541 -0.5109  0.6694
   73SLPC  H12X 6494   3.330   6.634   9.023 -2.1252 -0.4884 -1.5517
   73SLPC  H12Y 6495   3.394   6.789   9.087 -1.3054  1.5439  1.8018
   73SLPC  C313 6496   3.232   6.808   8.945 -0.3311  0.0908 -0.5253
   73SLPC  H13X 6497   3.317   6.835   8.878  1.4372 -0.3955  1.4200
   73SLPC  H13Y 6498   3.182   6.900   8.981 -1.9061 -0.6908 -0.6338
   73SLPC  C314 6499   3.124   6.716   8.875  0.4843 -0.0796 -0.1487
   73SLPC  H14X 6500   3.063   6.790   8.819  1.9739  2.5489  1.4728
   73SLPC  H14Y 6501   3.059   6.661   8.946  0.3532  0.0282 -0.1861
   73SLPC  C315 6502   3.188   6.611   8.785 -0.0318 -0.0257 -0.8091
   73SLPC  H15X 6503   3.252   6.548   8.850 -2.1854  1.9279  3.6446
   73SLPC  H15Y 6504   3.251   6.650   8.702 -0.3862 -0.1868 -1.1559
   73SLPC  C316 6505   3.072   6.536   8.726 -0.3191 -0.0229  0.1635
   73SLPC  H16X 6506   3.029   6.615   8.661  1.3416  0.9000  0.1308
   73SLPC  H16Y 6507   3.010   6.497   8.809 -0.1276  0.3327  0.4752
   73SLPC  C317 6508   3.116   6.421   8.638  0.1880 -0.2136  0.3526
   73SLPC  H17X 6509   3.149   6.335   8.700 -1.2700 -0.9896  0.0966
   73SLPC  H17Y 6510   3.205   6.443   8.574 -0.7091 -1.1192 -1.2800
   73SLPC  C318 6511   3.005   6.368   8.538  0.2623  0.5483 -0.4529
   73SLPC  H18X 6512   2.922   6.321   8.595  0.5748  2.1097  1.3944
   73SLPC  H18Y 6513   3.055   6.297   8.468 -0.7317 -0.5655 -0.0741
   73SLPC  H18Z 6514   2.956   6.451   8.483  0.2946  1.6700  1.1565
   74SLPC     N 6515   6.429   6.275  10.934  0.6413 -0.0406 -0.3282
   74SLPC   C13 6516   6.277   6.301  10.962  0.8047 -0.0648  0.3888
   74SLPC  H13A 6517   6.221   6.252  10.884 -0.5492  0.8651  0.7359
   74SLPC  H13B 6518   6.241   6.269  11.059  1.5191 -1.3976  0.2225
   74SLPC  H13C 6519   6.257   6.407  10.969 -0.4588 -0.3736  2.9309
   74SLPC   C14 6520   6.458   6.319  10.797  0.4396 -0.7234 -0.1898
   74SLPC  H14A 6521   6.434   6.424  10.793 -2.7391 -1.3213  0.6836
   74SLPC  H14B 6522   6.563   6.322  10.772  0.3759  2.7230 -0.5490
   74SLPC  H14C 6523   6.405   6.266  10.719  3.6877 -0.1970 -3.0027
   74SLPC   C15 6524   6.468   6.128  10.949 -0.5140 -0.5527 -0.8837
   74SLPC  H15A 6525   6.445   6.091  11.048  0.1858  1.0527 -0.0824
   74SLPC  H15B 6526   6.407   6.075  10.877  1.0494  1.1722 -3.6332
   74SLPC  H15C 6527   6.572   6.101  10.940 -0.4203 -0.9896  1.0596
   74SLPC   C12 6528   6.516   6.357  11.026  0.8432 -0.3099  1.1451
   74SLPC  H12A 6529   6.617   6.321  11.011  0.6699 -0.2456 -0.3390
   74SLPC  H12B 6530   6.479   6.354  11.127  0.6578  1.1443  1.1307
   74SLPC   C11 6531   6.527   6.516  11.012 -0.1325 -0.0474  0.7936
   74SLPC  H11A 6532   6.588   6.566  11.090  2.3095 -0.6529 -0.6111
   74SLPC  H11B 6533   6.423   6.553  11.025 -0.0220 -0.3388  2.8764
   74SLPC     P 6534   6.571   6.694  10.826 -0.0514  0.3724 -0.0502
   74SLPC   O13 6535   6.429   6.727  10.816  0.3555  0.1887 -0.2923
   74SLPC   O14 6536   6.652   6.782  10.915 -0.0685 -0.1542 -0.0679
   74SLPC   O12 6537   6.593   6.548  10.887  0.0951 -0.2314 -0.0012
   74SLPC   O11 6538   6.641   6.685  10.689 -1.1238  0.0659  0.2038
   74SLPC    C1 6539   6.635   6.572  10.601 -0.0763 -0.0730 -0.0981
   74SLPC    HA 6540   6.724   6.564  10.534  0.9352  2.7110  0.7590
   74SLPC    HB 6541   6.625   6.473  10.650 -0.0762 -0.4769 -0.8903
   74SLPC    C2 6542   6.513   6.576  10.507  0.3218 -0.4187 -0.7681
   74SLPC    HS 6543   6.434   6.573  10.586  0.4312 -2.6413 -0.6712
   74SLPC   O21 6544   6.515   6.459  10.426  0.0523  0.2175 -0.5212
   74SLPC   C21 6545   6.394   6.417  10.390  0.2558  0.3958  0.2742
   74SLPC   O22 6546   6.298   6.491  10.404  0.5328 -0.4157  0.2295
   74SLPC   C22 6547   6.392   6.278  10.330  0.2040 -0.0337  0.3450
   74SLPC   H2R 6548   6.485   6.251  10.275  0.4150 -0.3939  0.8684
   74SLPC   H2S 6549   6.385   6.211  10.419 -2.8889 -1.7942 -1.0550
   74SLPC    C3 6550   6.502   6.719  10.431  0.1227  0.2720  0.9307
   74SLPC    HX 6551   6.503   6.798  10.508  1.2995  0.4746  0.7286
   74SLPC    HY 6552   6.398   6.728  10.392 -0.2506 -3.2502  0.7776
   74SLPC   O31 6553   6.607   6.724  10.334 -0.0117 -0.0962  0.1730
   74SLPC   C31 6554   6.630   6.852  10.295 -0.1512  0.4233  0.1640
   74SLPC   O32 6555   6.569   6.950  10.331 -0.3445  0.4455 -0.4705
   74SLPC   C32 6556   6.736   6.844  10.186 -0.2282 -0.2864 -0.0110
   74SLPC   H2X 6557   6.716   6.754  10.124  1.6377 -1.7980  1.5024
   74SLPC   H2Y 6558   6.835   6.832  10.235 -1.2175  0.7575  2.3605
   74SLPC   C23 6559   6.256   6.256  10.240 -0.3034  0.4122 -0.4015
   74SLPC   H3R 6560   6.175   6.257  10.316  0.1750 -0.1972  0.1177
   74SLPC   H3S 6561   6.268   6.156  10.193  0.4308  0.9177 -1.3298
   74SLPC   C24 6562   6.232   6.352  10.126 -0.3982 -0.3330 -1.0473
   74SLPC   H4R 6563   6.207   6.453  10.167 -0.3046 -0.5052 -0.5528
   74SLPC   H4S 6564   6.139   6.318  10.077 -1.3914  2.0084 -0.9064
   74SLPC   C25 6565   6.339   6.374  10.025 -0.0840  0.3073  0.2549
   74SLPC   H5R 6566   6.366   6.275   9.984  0.0202  0.6519 -0.5155
   74SLPC   H5S 6567   6.421   6.424  10.082 -0.1319 -0.4785  1.0383
   74SLPC   C26 6568   6.304   6.457   9.898  0.2207 -0.3665 -0.2741
   74SLPC   H6R 6569   6.233   6.541   9.916 -0.6520 -0.8433 -1.3275
   74SLPC   H6S 6570   6.257   6.393   9.820  2.5483  0.0234 -2.1221
   74SLPC   C27 6571   6.425   6.515   9.830 -0.3258 -0.0906 -0.4972
   74SLPC   H7R 6572   6.485   6.439   9.775 -1.6640 -0.4657 -1.4931
   74SLPC   H7S 6573   6.491   6.567   9.903 -1.1583 -2.8217  2.4238
   74SLPC   C28 6574   6.385   6.626   9.734 -0.3656  0.3061  0.0070
   74SLPC   H8R 6575   6.475   6.672   9.690 -0.5125 -0.4522 -1.1467
   74SLPC   H8S 6576   6.324   6.700   9.789  1.8579  1.0882  1.5630
   74SLPC   C29 6577   6.308   6.565   9.619 -0.4679 -0.1192 -0.2434
   74SLPC   H9R 6578   6.199   6.568   9.624 -0.4601 -0.4530  0.2964
   74SLPC  C210 6579   6.352   6.517   9.505 -0.3404 -0.1387 -0.4162
   74SLPC  H10R 6580   6.285   6.488   9.422  1.4275 -0.9049 -1.6293
   74SLPC  C211 6581   6.500   6.517   9.467  0.5797  0.6124 -0.0983
   74SLPC  H11R 6582   6.521   6.409   9.452 -0.8045  0.6296 -2.6875
   74SLPC  H11S 6583   6.570   6.552   9.546  1.0901  2.3753 -1.2626
   74SLPC  C212 6584   6.517   6.594   9.341 -0.0555  0.8160 -0.2555
   74SLPC  H12R 6585   6.513   6.704   9.345  1.3319  0.9370 -1.3346
   74SLPC  C213 6586   6.533   6.548   9.216 -0.5032 -0.0402  0.0516
   74SLPC  H13R 6587   6.538   6.621   9.133 -0.1962  0.2520  0.3219
   74SLPC  C214 6588   6.518   6.410   9.159  0.3722 -0.2747 -0.5521
   74SLPC  H14R 6589   6.520   6.333   9.239 -0.8724  0.9036  0.6940
   74SLPC  H14S 6590   6.606   6.398   9.093  1.2017 -1.2488  0.7073
   74SLPC  C215 6591   6.388   6.391   9.067  0.0204  0.0483  0.5835
   74SLPC  H15R 6592   6.300   6.434   9.118  0.3873  0.2203  1.0896
   74SLPC  H15S 6593   6.366   6.288   9.033 -0.3927  0.4967 -0.5465
   74SLPC  C216 6594   6.386   6.486   8.947  0.6036  0.0786 -0.2084
   74SLPC  H16R 6595   6.484   6.498   8.896 -0.3032  3.7605 -1.4406
   74SLPC  H16S 6596   6.371   6.590   8.981  2.4110  0.2477  0.1652
   74SLPC  C217 6597   6.280   6.441   8.845 -0.1674 -0.3264 -0.1160
   74SLPC  H17R 6598   6.317   6.341   8.814  0.0077 -0.7714  1.4113
   74SLPC  H17S 6599   6.287   6.498   8.751 -1.8207  1.6797  0.9083
   74SLPC  C218 6600   6.135   6.448   8.887 -0.1596 -0.2325  0.0097
   74SLPC  H18R 6601   6.074   6.444   8.794  1.4334  0.9079 -1.1362
   74SLPC  H18S 6602   6.108   6.534   8.951  0.3435  0.0096 -0.1007
   74SLPC  H18T 6603   6.115   6.354   8.943 -0.1672  1.6940  3.5165
   74SLPC   C33 6604   6.729   6.971  10.107 -0.1290 -0.2808  0.2855
   74SLPC   H3X 6605   6.766   7.062  10.160  1.2955 -0.1262 -0.8965
   74SLPC   H3Y 6606   6.625   6.977  10.068  0.2414 -0.2958 -0.7325
   74SLPC   C34 6607   6.821   6.973   9.977 -0.4087  0.3772  0.7039
   74SLPC   H4X 6608   6.927   6.957  10.008  0.0098  1.7886  0.0460
   74SLPC   H4Y 6609   6.807   7.072   9.930 -2.8527 -0.1407  0.1902
   74SLPC   C35 6610   6.777   6.867   9.874 -0.2594 -0.4030  0.4372
   74SLPC   H5X 6611   6.667   6.868   9.857 -0.2669  0.0873  0.4952
   74SLPC   H5Y 6612   6.810   6.771   9.920  2.2994  1.2995  2.4646
   74SLPC   C36 6613   6.858   6.879   9.743 -0.0439 -0.1183  0.2850
   74SLPC   H6X 6614   6.953   6.823   9.756 -0.9981 -2.1217 -0.8645
   74SLPC   H6Y 6615   6.872   6.985   9.713 -2.7725  0.4665  0.8406
   74SLPC   C37 6616   6.781   6.801   9.632 -0.3689 -0.0708  0.3453
   74SLPC   H7X 6617   6.678   6.842   9.629 -0.7815 -0.7802  2.4949
   74SLPC   H7Y 6618   6.766   6.693   9.654 -0.9117 -0.4700 -1.7229
   74SLPC   C38 6619   6.846   6.825   9.497 -0.2904 -0.5656 -0.1344
   74SLPC   H8X 6620   6.915   6.912   9.501  0.6512 -1.2923 -0.1723
   74SLPC   H8Y 6621   6.775   6.850   9.415 -0.5076  2.3283  0.8412
   74SLPC   C39 6622   6.938   6.706   9.460  0.1033 -0.6922  0.1761
   74SLPC   H9X 6623   6.881   6.613   9.438 -1.3042  0.3926 -0.9734
   74SLPC   H9Y 6624   7.002   6.696   9.550  0.5095  0.4569  0.0285
   74SLPC  C310 6625   7.023   6.736   9.326 -0.4150  0.4625 -0.0641
   74SLPC  H10X 6626   7.118   6.679   9.330 -0.1640  0.3951 -3.7986
   74SLPC  H10Y 6627   7.048   6.844   9.317  0.4375  0.2366 -0.4384
   74SLPC  C311 6628   6.957   6.685   9.201  0.1998 -0.4142 -0.1964
   74SLPC  H11X 6629   6.871   6.751   9.179  0.1990 -0.4302 -0.2411
   74SLPC  H11Y 6630   6.922   6.582   9.223 -1.2345  0.1702  0.3733
   74SLPC  C312 6631   7.044   6.678   9.076  0.2249 -0.4156 -0.3393
   74SLPC  H12X 6632   7.113   6.595   9.102  1.5742  0.9007  0.5018
   74SLPC  H12Y 6633   7.106   6.770   9.069  1.8514 -1.2168  2.1530
   74SLPC  C313 6634   6.974   6.637   8.945 -0.1741  0.0280 -0.4920
   74SLPC  H13X 6635   6.914   6.725   8.910 -0.9084  0.1344  0.9771
   74SLPC  H13Y 6636   6.900   6.561   8.977 -1.1271  0.2926 -1.9638
   74SLPC  C314 6637   7.079   6.600   8.841  0.0494  0.3112 -0.2165
   74SLPC  H14X 6638   7.124   6.514   8.894  1.8675  0.9716 -0.6359
   74SLPC  H14Y 6639   7.149   6.683   8.818  0.2861  0.0990 -0.2593
   74SLPC  C315 6640   7.001   6.558   8.706  0.1021 -0.4549 -1.0331
   74SLPC  H15X 6641   6.934   6.475   8.738  1.2917 -0.2524  2.3738
   74SLPC  H15Y 6642   7.071   6.518   8.631  1.8284 -1.0058  0.7915
   74SLPC  C316 6643   6.926   6.677   8.648 -0.0770  0.3051  0.1877
   74SLPC  H16X 6644   7.006   6.739   8.601  1.7661 -1.8653  0.2940
   74SLPC  H16Y 6645   6.864   6.739   8.717 -2.9481 -2.1775  0.0053
   74SLPC  C317 6646   6.837   6.627   8.530 -0.2192 -0.3779  0.2051
   74SLPC  H17X 6647   6.775   6.544   8.569 -1.3730  0.7667  0.8938
   74SLPC  H17Y 6648   6.892   6.580   8.445  0.2746  0.2483  0.1707
   74SLPC  C318 6649   6.751   6.737   8.469  0.2232  0.3321 -0.2793
   74SLPC  H18X 6650   6.657   6.752   8.527 -1.0621 -0.5051 -2.0745
   74SLPC  H18Y 6651   6.714   6.689   8.376  2.0404 -0.6013 -0.5536
   74SLPC  H18Z 6652   6.802   6.834   8.452  0.4873  0.0957 -0.8479
   75SLPC     N 6653   5.426   6.686   6.320 -0.0107 -0.4115 -0.1478
   75SLPC   C13 6654   5.309   6.606   6.361  0.6240  0.2240 -0.1557
   75SLPC  H13A 6655   5.332   6.505   6.388  1.8676  0.5010 -0.1205
   75SLPC  H13B 6656   5.252   6.645   6.444 -0.7340 -1.7046 -0.1233
   75SLPC  H13C 6657   5.242   6.598   6.277  0.7167 -0.1261 -0.1978
   75SLPC   C14 6658   5.482   6.631   6.199 -0.5417 -0.3035  0.7877
   75SLPC  H14A 6659   5.399   6.607   6.134 -1.1436 -2.0692  2.1492
   75SLPC  H14B 6660   5.540   6.704   6.144 -2.0903  1.6084  1.5376
   75SLPC  H14C 6661   5.548   6.548   6.216  0.4323 -0.3633 -2.4612
   75SLPC   C15 6662   5.536   6.679   6.423 -0.8159 -0.0507 -0.7469
   75SLPC  H15A 6663   5.592   6.588   6.411  2.4183  1.4383  1.4580
   75SLPC  H15B 6664   5.602   6.763   6.402  1.2605 -1.6089 -0.8039
   75SLPC  H15C 6665   5.485   6.675   6.517 -0.1856  0.2356 -0.3836
   75SLPC   C12 6666   5.386   6.828   6.287 -0.9200  0.3761  0.1417
   75SLPC  H12A 6667   5.322   6.873   6.363  0.2232  0.7740  0.8913
   75SLPC  H12B 6668   5.332   6.819   6.194 -2.0036  0.6161  0.7233
   75SLPC   C11 6669   5.493   6.934   6.267  0.0281  0.2023  0.6253
   75SLPC  H11A 6670   5.440   7.020   6.222  0.6072 -0.1284 -0.7360
   75SLPC  H11B 6671   5.555   6.889   6.186 -1.3190  0.2204 -0.4541
   75SLPC     P 6672   5.526   7.071   6.480  0.2219 -0.5262 -0.4884
   75SLPC   O13 6673   5.568   7.210   6.440 -0.2879 -0.0448 -0.0396
   75SLPC   O14 6674   5.384   7.045   6.510  0.7715 -0.2153 -0.3754
   75SLPC   O12 6675   5.572   6.968   6.385  0.6716  0.4342  0.3389
   75SLPC   O11 6676   5.607   7.030   6.613  0.2785 -0.4238  0.1750
   75SLPC    C1 6677   5.717   7.115   6.647 -0.4119 -0.1059  0.5204
   75SLPC    HA 6678   5.782   7.149   6.564 -0.7040 -0.1269  0.2807
   75SLPC    HB 6679   5.679   7.204   6.702 -1.0378 -0.8112  1.2628
   75SLPC    C2 6680   5.821   7.045   6.733  0.0292  0.5835 -0.6128
   75SLPC    HS 6681   5.845   6.949   6.682 -1.7319  0.5556 -1.4768
   75SLPC   O21 6682   5.762   7.018   6.864 -0.6537  0.0404 -0.3842
   75SLPC   C21 6683   5.739   6.899   6.899  0.2354 -0.3433 -1.0743
   75SLPC   O22 6684   5.742   6.800   6.830  0.1761  0.2890 -0.2767
   75SLPC   C22 6685   5.720   6.909   7.051  0.0295  0.1583  0.6736
   75SLPC   H2R 6686   5.816   6.948   7.091  2.4180 -1.8725 -2.5611
   75SLPC   H2S 6687   5.637   6.979   7.074 -0.2366  1.3038 -3.1437
   75SLPC    C3 6688   5.950   7.129   6.759  0.7324 -1.0110  0.0262
   75SLPC    HX 6689   5.902   7.214   6.813  2.1714  0.0685 -0.3414
   75SLPC    HY 6690   5.998   7.168   6.667 -1.7978  2.4569 -0.0370
   75SLPC   O31 6691   6.038   7.056   6.847 -0.0212  0.0601  0.4979
   75SLPC   C31 6692   6.102   6.957   6.789  0.1258 -0.3767 -0.5281
   75SLPC   O32 6693   6.094   6.919   6.672 -0.7312 -0.0060 -0.1771
   75SLPC   C32 6694   6.171   6.881   6.892 -0.7696 -0.2724  0.2584
   75SLPC   H2X 6695   6.278   6.876   6.864 -1.0143  0.4458 -0.8790
   75SLPC   H2Y 6696   6.131   6.777   6.885  1.8489 -1.4476  1.5713
   75SLPC   C23 6697   5.691   6.766   7.112 -0.7586 -0.4919 -0.1702
   75SLPC   H3R 6698   5.761   6.705   7.050 -3.5789 -1.6434 -2.4430
   75SLPC   H3S 6699   5.585   6.743   7.092 -1.5544  2.2900  0.4386
   75SLPC   C24 6700   5.728   6.745   7.256  0.2323 -0.2153  0.6383
   75SLPC   H4R 6701   5.833   6.774   7.280 -0.1742  0.0786  2.1986
   75SLPC   H4S 6702   5.734   6.636   7.279 -1.5501 -0.2424  1.1116
   75SLPC   C25 6703   5.630   6.821   7.348  0.9692  0.3192 -0.4016
   75SLPC   H5R 6704   5.530   6.776   7.328  1.7443 -1.9682  0.6218
   75SLPC   H5S 6705   5.630   6.930   7.325 -0.1441 -0.0747 -2.6146
   75SLPC   C26 6706   5.647   6.798   7.498 -0.0748  0.2115  0.3755
   75SLPC   H6R 6707   5.646   6.688   7.511 -0.8729  0.3943  2.2307
   75SLPC   H6S 6708   5.557   6.841   7.547 -1.4456 -1.2500 -0.7627
   75SLPC   C27 6709   5.779   6.861   7.551  0.9555  0.0709  0.3252
   75SLPC   H7R 6710   5.766   6.968   7.524  0.4014  0.4154  1.8912
   75SLPC   H7S 6711   5.863   6.813   7.496  0.3635  0.3511 -0.8543
   75SLPC   C28 6712   5.817   6.847   7.698  0.4869  0.2017 -0.6783
   75SLPC   H8R 6713   5.911   6.899   7.725  0.8235 -1.8029  2.4913
   75SLPC   H8S 6714   5.839   6.738   7.703  0.1952  0.1676 -0.1396
   75SLPC   C29 6715   5.711   6.900   7.797  0.5136  0.0472 -0.0811
   75SLPC   H9R 6716   5.721   7.007   7.819  0.6282  0.0314 -0.0523
   75SLPC  C210 6717   5.635   6.822   7.870 -0.6904  0.1840 -0.3371
   75SLPC  H10R 6718   5.561   6.870   7.936 -0.1304  2.3279 -1.1730
   75SLPC  C211 6719   5.625   6.676   7.859 -0.1158 -0.2511  0.2684
   75SLPC  H11R 6720   5.674   6.627   7.946 -3.5298 -2.3545  1.1974
   75SLPC  H11S 6721   5.667   6.640   7.763 -1.7845  1.4037 -1.1425
   75SLPC  C212 6722   5.489   6.619   7.846  0.1096  0.1815  0.5728
   75SLPC  H12R 6723   5.443   6.634   7.747  0.1574  0.3526  0.5759
   75SLPC  C213 6724   5.425   6.540   7.930 -0.5323  0.0690  0.5067
   75SLPC  H13R 6725   5.321   6.514   7.904 -0.1651  0.1023 -1.1088
   75SLPC  C214 6726   5.488   6.486   8.061  0.3031 -0.7659 -0.5159
   75SLPC  H14R 6727   5.560   6.559   8.105  0.7081 -0.9742 -0.8186
   75SLPC  H14S 6728   5.526   6.385   8.032  0.7813 -0.5217 -0.7493
   75SLPC  C215 6729   5.373   6.470   8.170 -0.5862  0.1620  0.5822
   75SLPC  H15R 6730   5.425   6.409   8.247  1.0818 -0.0679 -0.6698
   75SLPC  H15S 6731   5.295   6.402   8.131 -1.0866  0.1402  1.5741
   75SLPC  C216 6732   5.311   6.597   8.232  0.1908  0.9218 -0.3438
   75SLPC  H16R 6733   5.252   6.653   8.156  1.7903  0.4122 -2.0656
   75SLPC  H16S 6734   5.398   6.661   8.258  0.9024  0.3430 -1.2384
   75SLPC  C217 6735   5.234   6.573   8.360  0.8468  0.2968  0.1041
   75SLPC  H17R 6736   5.193   6.664   8.407 -2.0985 -0.8099 -0.1195
   75SLPC  H17S 6737   5.308   6.535   8.434  2.1407  2.3335 -0.0634
   75SLPC  C218 6738   5.114   6.473   8.347  0.5003  0.4536  0.3618
   75SLPC  H18R 6739   5.039   6.503   8.271  0.0163 -3.3520 -0.8554
   75SLPC  H18S 6740   5.064   6.435   8.439  1.6581 -0.4153  0.6624
   75SLPC  H18T 6741   5.152   6.380   8.301  0.3058  0.9365 -0.7874
   75SLPC   C33 6742   6.148   6.929   7.041  1.1533 -0.6338  1.0477
   75SLPC   H3X 6743   6.165   7.039   7.043 -0.4586 -0.3556  3.3232
   75SLPC   H3Y 6744   6.043   6.921   7.076  1.9223 -0.3130  3.6300
   75SLPC   C34 6745   6.235   6.867   7.150 -0.2345 -0.4586 -0.3341
   75SLPC   H4X 6746   6.341   6.862   7.116 -0.7645 -1.6646 -1.9489
   75SLPC   H4Y 6747   6.198   6.766   7.174 -1.5007 -0.3338 -1.5933
   75SLPC   C35 6748   6.237   6.944   7.285 -0.1580  0.0006 -0.5930
   75SLPC   H5X 6749   6.134   6.973   7.316  0.1861  0.0276  0.5759
   75SLPC   H5Y 6750   6.291   7.039   7.265 -0.3029  0.5748  1.4907
   75SLPC   C36 6751   6.304   6.859   7.401  0.4145  0.1914  0.4688
   75SLPC   H6X 6752   6.242   6.767   7.406  0.6049  0.1173  1.5482
   75SLPC   H6Y 6753   6.295   6.917   7.495 -2.5716 -0.5987  0.7791
   75SLPC   C37 6754   6.448   6.820   7.364 -0.2517 -0.5549 -0.1504
   75SLPC   H7X 6755   6.504   6.913   7.337 -1.5036  0.2125 -0.1804
   75SLPC   H7Y 6756   6.450   6.750   7.277  3.2499 -0.0127 -0.6668
   75SLPC   C38 6757   6.529   6.746   7.478  0.2799 -0.6024  0.3580
   75SLPC   H8X 6758   6.529   6.803   7.573  2.4223 -0.1155  0.1173
   75SLPC   H8Y 6759   6.634   6.735   7.442  1.0925  0.5318  2.1926
   75SLPC   C39 6760   6.471   6.613   7.518 -0.2481 -0.5022 -0.2716
   75SLPC   H9X 6761   6.434   6.555   7.431 -1.6135  0.6119 -0.4563
   75SLPC   H9Y 6762   6.382   6.628   7.584  0.7039 -2.1916  1.5176
   75SLPC  C310 6763   6.576   6.524   7.589  0.0410  0.0499 -0.1595
   75SLPC  H10X 6764   6.670   6.533   7.529 -1.2535  1.3733 -2.1301
   75SLPC  H10Y 6765   6.540   6.419   7.590 -0.5971  0.2509  1.5091
   75SLPC  C311 6766   6.598   6.566   7.732 -0.2615 -0.4602 -0.9241
   75SLPC  H11X 6767   6.608   6.677   7.729  0.2623 -0.5173 -1.7798
   75SLPC  H11Y 6768   6.692   6.524   7.774  0.3085 -0.0240 -1.7342
   75SLPC  C312 6769   6.481   6.524   7.828 -1.0323  0.2979  0.0555
   75SLPC  H12X 6770   6.466   6.415   7.815 -1.2908  0.3329  0.0484
   75SLPC  H12Y 6771   6.387   6.566   7.786 -1.0555 -1.5268 -1.8964
   75SLPC  C313 6772   6.509   6.555   7.976  0.7701 -0.2629 -0.0736
   75SLPC  H13X 6773   6.493   6.661   8.005  2.5275 -0.6290  2.6154
   75SLPC  H13Y 6774   6.614   6.525   7.996  0.6343 -0.3084  0.5969
   75SLPC  C314 6775   6.429   6.469   8.074  1.0018 -0.1845 -0.4495
   75SLPC  H14X 6776   6.447   6.361   8.052  1.2002 -0.6724  1.8429
   75SLPC  H14Y 6777   6.322   6.497   8.061  0.6967 -1.6901 -1.3792
   75SLPC  C315 6778   6.463   6.495   8.218 -1.2890  0.1017 -0.0634
   75SLPC  H15X 6779   6.470   6.604   8.240 -0.0781 -0.2414  1.4338
   75SLPC  H15Y 6780   6.569   6.470   8.241 -0.9075 -0.6336 -2.4201
   75SLPC  C316 6781   6.360   6.451   8.324  0.3321  0.6601 -0.4303
   75SLPC  H16X 6782   6.354   6.340   8.321 -0.4290  0.6616  0.5463
   75SLPC  H16Y 6783   6.267   6.504   8.296  0.8342  0.2995 -2.9983
   75SLPC  C317 6784   6.387   6.488   8.476  0.1780 -0.5335 -0.1227
   75SLPC  H17X 6785   6.291   6.487   8.532  0.5533 -1.8888  0.5486
   75SLPC  H17Y 6786   6.425   6.592   8.478  0.1031 -0.5120  1.2245
   75SLPC  C318 6787   6.472   6.392   8.549  0.3368 -0.3221 -0.3689
   75SLPC  H18X 6788   6.469   6.403   8.659  4.0822 -2.2784  0.0739
   75SLPC  H18Y 6789   6.574   6.412   8.511  1.1636  1.3736  2.4548
   75SLPC  H18Z 6790   6.440   6.288   8.528 -0.5600  0.3912 -2.9342
   76SLPC     N 6791   0.630   1.056   6.275 -0.4069 -0.6401  0.8793
   76SLPC   C13 6792   0.597   0.984   6.146  0.3678 -0.2935  0.2070
   76SLPC  H13A 6793   0.506   0.930   6.166  0.4261  0.3968  2.6572
   76SLPC  H13B 6794   0.584   1.057   6.068  1.2767 -0.7916 -0.4318
   76SLPC  H13C 6795   0.671   0.907   6.126 -1.7878 -2.3686 -0.2473
   76SLPC   C14 6796   0.762   1.143   6.259  0.4757  0.6177  0.0890
   76SLPC  H14A 6797   0.839   1.079   6.220  0.0137  0.4454 -0.5610
   76SLPC  H14B 6798   0.736   1.224   6.191  0.0290 -1.5699 -2.5211
   76SLPC  H14C 6799   0.806   1.187   6.347 -0.1587  0.5413  0.4559
   76SLPC   C15 6800   0.658   0.953   6.379 -0.0364  0.0124  0.1938
   76SLPC  H15A 6801   0.590   0.870   6.371  0.9416 -0.7043 -0.9118
   76SLPC  H15B 6802   0.762   0.925   6.376  0.1190  0.6429 -1.1097
   76SLPC  H15C 6803   0.649   1.011   6.470  2.3816  2.1755 -0.7819
   76SLPC   C12 6804   0.521   1.151   6.316 -0.5909 -0.0996  0.2091
   76SLPC  H12A 6805   0.516   1.231   6.245  0.2050 -0.7892 -0.6486
   76SLPC  H12B 6806   0.561   1.198   6.405 -0.0943 -0.9430  0.4468
   76SLPC   C11 6807   0.380   1.099   6.362 -0.2028  0.2046 -0.9526
   76SLPC  H11A 6808   0.323   1.190   6.388 -0.8575  0.0986 -1.9994
   76SLPC  H11B 6809   0.395   1.038   6.454 -0.5992 -0.8885 -1.5926
   76SLPC     P 6810   0.205   0.925   6.311 -0.5026  0.1688  0.0545
   76SLPC   O13 6811   0.116   0.897   6.195  0.2475  0.7836 -0.4761
   76SLPC   O14 6812   0.274   0.807   6.371  0.6061 -0.4967  0.2335
   76SLPC   O12 6813   0.320   1.022   6.261  0.4819  0.5157  0.1538
   76SLPC   O11 6814   0.116   1.009   6.405  0.2407 -0.3958 -0.8536
   76SLPC    C1 6815   0.124   1.001   6.550 -0.1577 -0.4243 -0.2378
   76SLPC    HA 6816   0.191   0.921   6.588  0.4920  0.1484 -0.1464
   76SLPC    HB 6817   0.170   1.097   6.584 -0.8262  0.1508 -0.9184
   76SLPC    C2 6818  -0.016   0.986   6.615  0.0861 -1.3723 -0.2052
   76SLPC    HS 6819  -0.062   1.087   6.611  2.6891  0.3052  4.0711
   76SLPC   O21 6820   0.004   0.969   6.753  0.6218  0.0643  0.6956
   76SLPC   C21 6821   0.043   1.067   6.838 -0.0040 -0.4259  0.1701
   76SLPC   O22 6822   0.052   1.187   6.814 -0.4098  0.0603  0.3991
   76SLPC   C22 6823   0.044   1.000   6.980  0.5032 -0.6588  0.2398
   76SLPC   H2R 6824  -0.046   0.937   6.995  1.2649 -2.4124 -2.1074
   76SLPC   H2S 6825   0.128   0.927   6.979 -0.6744 -2.0896  1.4067
   76SLPC    C3 6826  -0.105   0.873   6.561  0.4353 -0.8046  0.4744
   76SLPC    HX 6827  -0.049   0.777   6.571  0.6315 -0.7342  0.0839
   76SLPC    HY 6828  -0.115   0.891   6.452  1.5361  2.9566  0.8484
   76SLPC   O31 6829  -0.221   0.857   6.638 -0.2521 -0.1244 -0.3067
   76SLPC   C31 6830  -0.322   0.935   6.601 -0.1520 -0.6745 -0.6334
   76SLPC   O32 6831  -0.317   1.017   6.509  0.0075 -0.0602 -0.1676
   76SLPC   C32 6832  -0.442   0.897   6.687 -0.1080 -0.5997  0.1050
   76SLPC   H2X 6833  -0.473   0.794   6.659  0.3035 -0.2535 -1.8158
   76SLPC   H2Y 6834  -0.526   0.961   6.652  1.0194  0.1659 -1.3524
   76SLPC   C23 6835   0.040   1.110   7.096 -1.1627 -0.4958  0.4381
   76SLPC   H3R 6836  -0.048   1.176   7.081  0.7499  2.7250  2.2170
   76SLPC   H3S 6837   0.128   1.178   7.094  0.0614 -2.0438 -0.3335
   76SLPC   C24 6838   0.022   1.050   7.233 -0.9452 -0.0598 -0.4522
   76SLPC   H4R 6839   0.100   0.972   7.251  0.8280  1.6585 -0.3905
   76SLPC   H4S 6840  -0.071   0.989   7.242 -0.4802 -0.9833 -1.5788
   76SLPC   C25 6841   0.026   1.152   7.350  0.4941  0.3339  0.0768
   76SLPC   H5R 6842  -0.015   1.244   7.303  0.1963  0.1438 -0.0380
   76SLPC   H5S 6843   0.127   1.166   7.393  0.9724 -0.9113 -0.5672
   76SLPC   C26 6844  -0.064   1.108   7.464 -0.0079  0.3820  0.1011
   76SLPC   H6R 6845  -0.173   1.099   7.444  0.1052  0.6363 -0.6346
   76SLPC   H6S 6846  -0.062   1.191   7.538 -2.2918  1.1869 -0.6523
   76SLPC   C27 6847  -0.009   0.985   7.540 -0.3417  0.6140 -0.2766
   76SLPC   H7R 6848   0.093   1.023   7.561 -1.3011  3.2055  0.0118
   76SLPC   H7S 6849  -0.008   0.888   7.485  1.1195 -0.1197  0.9747
   76SLPC   C28 6850  -0.084   0.967   7.673  0.2937 -0.0968 -0.3311
   76SLPC   H8R 6851  -0.153   1.052   7.690 -0.2751 -0.4068 -1.0528
   76SLPC   H8S 6852  -0.150   0.878   7.669 -1.9639  1.3993  1.3276
   76SLPC   C29 6853   0.005   0.964   7.790 -0.4465  0.2271 -0.9077
   76SLPC   H9R 6854   0.067   1.055   7.796 -1.5329  0.9110  0.1997
   76SLPC  C210 6855   0.013   0.874   7.902 -0.1174  0.1942 -0.0773
   76SLPC  H10R 6856   0.091   0.890   7.978  0.6026 -1.4533 -0.4267
   76SLPC  C211 6857  -0.058   0.739   7.917  0.1835 -0.1973  0.2978
   76SLPC  H11R 6858   0.011   0.656   7.943 -0.7872 -0.7535  1.1922
   76SLPC  H11S 6859  -0.099   0.715   7.816 -0.0033  3.1628 -0.5493
   76SLPC  C212 6860  -0.170   0.756   8.018  0.0777 -0.0764  0.4642
   76SLPC  H12R 6861  -0.227   0.850   8.012 -2.0049 -1.3158 -0.2742
   76SLPC  C213 6862  -0.197   0.673   8.123  0.3003  0.0721 -0.6465
   76SLPC  H13R 6863  -0.269   0.707   8.199  0.5800  0.8215 -0.7043
   76SLPC  C214 6864  -0.116   0.559   8.171 -0.1679 -0.2417  0.0740
   76SLPC  H14R 6865  -0.078   0.573   8.274 -1.1536  0.7348  0.3167
   76SLPC  H14S 6866  -0.023   0.539   8.112  0.6724  0.2251  1.1990
   76SLPC  C215 6867  -0.200   0.427   8.177 -0.5381 -0.9811  0.0690
   76SLPC  H15R 6868  -0.143   0.332   8.167  2.4742  0.7143 -0.0493
   76SLPC  H15S 6869  -0.269   0.420   8.090  0.3368 -1.4272 -0.6000
   76SLPC  C216 6870  -0.283   0.420   8.301 -0.1208 -0.3730 -0.4966
   76SLPC  H16R 6871  -0.325   0.515   8.340  0.2261 -1.1640  1.9535
   76SLPC  H16S 6872  -0.212   0.385   8.379 -0.6329 -0.4905 -0.0726
   76SLPC  C217 6873  -0.398   0.314   8.298  0.0606  0.8053 -0.7462
   76SLPC  H17R 6874  -0.434   0.312   8.193  1.5441 -0.6130 -1.2667
   76SLPC  H17S 6875  -0.478   0.345   8.368 -0.6461 -1.0489 -0.6855
   76SLPC  C218 6876  -0.370   0.172   8.348  1.0525 -0.3498 -0.2535
   76SLPC  H18R 6877  -0.459   0.108   8.331  0.8038  0.2522 -1.3046
   76SLPC  H18S 6878  -0.362   0.167   8.458  1.9667 -0.3361 -0.3119
   76SLPC  H18T 6879  -0.274   0.128   8.313 -0.6131 -2.2682 -2.8395
   76SLPC   C33 6880  -0.411   0.899   6.846  0.2215 -0.0017  0.5942
   76SLPC   H3X 6881  -0.326   0.832   6.871 -0.1314 -0.9892 -0.7404
   76SLPC   H3Y 6882  -0.503   0.857   6.892 -0.6017  1.3820  0.2680
   76SLPC   C34 6883  -0.384   1.042   6.888  0.6507  0.0962  0.0802
   76SLPC   H4X 6884  -0.458   1.106   6.834  0.6852 -0.2618 -0.4039
   76SLPC   H4Y 6885  -0.280   1.068   6.858  0.8004  1.9616  2.0388
   76SLPC   C35 6886  -0.392   1.062   7.040  0.1976 -0.4574  0.1283
   76SLPC   H5X 6887  -0.360   1.167   7.058 -0.2809 -0.4902  1.2819
   76SLPC   H5Y 6888  -0.315   1.001   7.091  1.2450 -0.0050 -0.8901
   76SLPC   C36 6889  -0.538   1.056   7.083  0.2241  0.7218 -0.5756
   76SLPC   H6X 6890  -0.594   0.968   7.046 -0.7642  0.3183  1.7412
   76SLPC   H6Y 6891  -0.590   1.142   7.035 -2.3981 -0.7736 -0.5874
   76SLPC   C37 6892  -0.559   1.051   7.235  0.5624  0.3149 -0.6993
   76SLPC   H7X 6893  -0.662   1.086   7.258  1.0361  0.9782  0.5249
   76SLPC   H7Y 6894  -0.490   1.122   7.286  1.3734  0.1258 -1.5104
   76SLPC   C38 6895  -0.544   0.897   7.270  0.0666 -0.1518 -0.0806
   76SLPC   H8X 6896  -0.465   0.849   7.207 -1.7057 -0.2710 -2.3187
   76SLPC   H8Y 6897  -0.635   0.844   7.235  0.8595 -1.4544 -0.2634
   76SLPC   C39 6898  -0.533   0.884   7.420  0.2161  0.0855 -0.8119
   76SLPC   H9X 6899  -0.442   0.927   7.467 -0.6475 -0.1044  1.0990
   76SLPC   H9Y 6900  -0.531   0.774   7.437 -1.4185  0.1018 -0.3267
   76SLPC  C310 6901  -0.643   0.951   7.498 -0.1079 -0.4442  0.1214
   76SLPC  H10X 6902  -0.739   0.942   7.442  0.4526  5.0713 -2.4377
   76SLPC  H10Y 6903  -0.642   1.062   7.499 -2.4615 -0.3472 -0.8496
   76SLPC  C311 6904  -0.653   0.886   7.640  0.6297  0.9846 -0.2708
   76SLPC  H11X 6905  -0.654   0.776   7.622  2.2154  0.7658  0.7177
   76SLPC  H11Y 6906  -0.750   0.913   7.686 -0.5808 -0.8394 -1.5677
   76SLPC  C312 6907  -0.554   0.927   7.747  0.1756  0.3226  0.1231
   76SLPC  H12X 6908  -0.579   1.028   7.785  0.6849  0.7136 -0.5537
   76SLPC  H12Y 6909  -0.450   0.946   7.712 -0.0140 -0.9393 -1.2453
   76SLPC  C313 6910  -0.543   0.837   7.870 -0.3989 -0.4273 -0.1706
   76SLPC  H13X 6911  -0.435   0.813   7.886  0.0015  1.1785 -0.3224
   76SLPC  H13Y 6912  -0.592   0.740   7.849 -0.9964 -0.2359  0.3075
   76SLPC  C314 6913  -0.607   0.896   7.996 -0.3922 -0.3843  0.2630
   76SLPC  H14X 6914  -0.718   0.884   7.988 -0.2441 -0.4705 -3.5956
   76SLPC  H14Y 6915  -0.588   1.005   8.000  0.5495 -0.4032 -2.0283
   76SLPC  C315 6916  -0.548   0.845   8.122 -1.0802 -0.0779  0.2518
   76SLPC  H15X 6917  -0.440   0.869   8.115 -0.8537 -1.2699 -0.6883
   76SLPC  H15Y 6918  -0.573   0.737   8.122  0.1231 -0.3794  1.1213
   76SLPC  C316 6919  -0.612   0.916   8.246  0.2256  0.0494 -0.3099
   76SLPC  H16X 6920  -0.721   0.910   8.225 -0.1942 -0.7692  1.9044
   76SLPC  H16Y 6921  -0.578   1.021   8.250  1.3409 -0.3351  1.5981
   76SLPC  C317 6922  -0.586   0.859   8.386  0.0196 -0.0473  0.2998
   76SLPC  H17X 6923  -0.639   0.763   8.403 -1.9946  1.3533  2.5931
   76SLPC  H17Y 6924  -0.639   0.927   8.456 -2.1198  0.6514 -1.8937
   76SLPC  C318 6925  -0.433   0.849   8.417  0.0047 -0.7896 -0.7677
   76SLPC  H18X 6926  -0.391   0.762   8.361 -1.6386 -1.2133 -1.4207
   76SLPC  H18Y 6927  -0.413   0.842   8.526 -0.2974  2.3340 -0.4260
   76SLPC  H18Z 6928  -0.385   0.944   8.385 -0.2004 -0.3887  0.1076
   77SLPC     N 6929   1.917   3.705   6.842 -0.4716 -0.1667  0.2613
   77SLPC   C13 6930   1.796   3.721   6.747 -0.3542 -0.1947 -0.3763
   77SLPC  H13A 6931   1.698   3.728   6.792 -0.2251  2.4150 -0.3415
   77SLPC  H13B 6932   1.815   3.814   6.697  2.5529 -0.1024  0.6862
   77SLPC  H13C 6933   1.808   3.650   6.667 -0.3632  1.0449 -1.5047
   77SLPC   C14 6934   1.895   3.577   6.922 -0.3512  1.0236 -0.9121
   77SLPC  H14A 6935   1.917   3.482   6.874 -1.0538 -1.2313  2.8067
   77SLPC  H14B 6936   1.956   3.582   7.012  0.2970  2.4535 -1.4092
   77SLPC  H14C 6937   1.792   3.563   6.950  0.1276 -2.4259 -0.3023
   77SLPC   C15 6938   1.896   3.818   6.937 -0.0412 -1.0476  0.2076
   77SLPC  H15A 6939   1.939   3.912   6.905 -0.0855 -1.0738  0.0686
   77SLPC  H15B 6940   1.792   3.844   6.954  0.2010 -1.3854  2.4310
   77SLPC  H15C 6941   1.935   3.786   7.032 -1.5333 -2.4015  0.4176
   77SLPC   C12 6942   2.043   3.714   6.766  0.1645  0.6300  0.2416
   77SLPC  H12A 6943   2.054   3.808   6.715 -2.6020  0.1229 -1.4593
   77SLPC  H12B 6944   2.039   3.640   6.687  1.4757  1.4473 -0.6256
   77SLPC   C11 6945   2.178   3.700   6.838 -0.4945 -0.0940  0.1611
   77SLPC  H11A 6946   2.190   3.776   6.918 -1.5138  0.4396 -0.1762
   77SLPC  H11B 6947   2.261   3.729   6.770 -1.0229  1.5207  0.1726
   77SLPC     P 6948   2.232   3.449   6.798 -0.1231  0.3123 -0.6120
   77SLPC   O13 6949   2.111   3.401   6.730  0.5377  0.2531  0.7962
   77SLPC   O14 6950   2.330   3.493   6.702  0.5307  0.4807  0.0411
   77SLPC   O12 6951   2.198   3.572   6.893 -0.2074  0.1930  0.0224
   77SLPC   O11 6952   2.287   3.346   6.905  0.0168  0.1839 -0.1322
   77SLPC    C1 6953   2.425   3.332   6.939  0.0929 -0.4305  0.2124
   77SLPC    HA 6954   2.465   3.245   6.882 -3.8087 -1.6585 -0.9544
   77SLPC    HB 6955   2.483   3.423   6.912 -0.3023  0.1931  1.4176
   77SLPC    C2 6956   2.436   3.314   7.092 -0.4797 -0.9156  0.3439
   77SLPC    HS 6957   2.540   3.334   7.124 -1.0491  2.4434  0.5089
   77SLPC   O21 6958   2.379   3.196   7.144 -0.3414 -0.0896  0.2755
   77SLPC   C21 6959   2.447   3.082   7.104 -0.3497 -0.4956 -0.7410
   77SLPC   O22 6960   2.545   3.073   7.038  0.0120 -0.1262  0.4433
   77SLPC   C22 6961   2.367   2.958   7.145  0.1793 -0.5138 -0.2907
   77SLPC   H2R 6962   2.327   2.979   7.246  0.0003 -2.5511  0.1126
   77SLPC   H2S 6963   2.277   2.938   7.082  2.0497 -0.1446 -3.2443
   77SLPC    C3 6964   2.363   3.425   7.166 -0.4608  0.1571  0.3287
   77SLPC    HX 6965   2.254   3.401   7.172 -0.5416 -1.3145 -3.8324
   77SLPC    HY 6966   2.364   3.517   7.104  0.6025  0.1405  0.3026
   77SLPC   O31 6967   2.410   3.437   7.304  0.3531  0.3756 -0.1752
   77SLPC   C31 6968   2.351   3.532   7.380  0.3138  0.3804  0.4349
   77SLPC   O32 6969   2.260   3.603   7.332 -0.3864 -0.0433 -0.1321
   77SLPC   C32 6970   2.416   3.537   7.518 -0.6125 -0.6275  0.2187
   77SLPC   H2X 6971   2.525   3.551   7.503 -1.0173  0.9573 -1.6074
   77SLPC   H2Y 6972   2.395   3.439   7.567  2.2857 -1.0174  0.8716
   77SLPC   C23 6973   2.443   2.824   7.147  0.3213 -0.8092 -0.5241
   77SLPC   H3R 6974   2.485   2.801   7.046  1.1717  1.9939 -0.8842
   77SLPC   H3S 6975   2.368   2.746   7.171 -0.5672 -0.2136 -1.3201
   77SLPC   C24 6976   2.556   2.813   7.255  0.0101  1.0700  0.0041
   77SLPC   H4R 6977   2.644   2.876   7.230  0.3449  0.0544 -1.5141
   77SLPC   H4S 6978   2.575   2.704   7.265  0.9884  1.1595 -0.6453
   77SLPC   C25 6979   2.513   2.832   7.397 -0.2799 -0.0699  0.3440
   77SLPC   H5R 6980   2.409   2.796   7.404  0.0799 -0.8497  2.5271
   77SLPC   H5S 6981   2.511   2.941   7.421  1.6882  0.5966 -2.0343
   77SLPC   C26 6982   2.592   2.754   7.507 -0.0181  0.1729 -0.3534
   77SLPC   H6R 6983   2.699   2.748   7.478  0.2248  2.6591 -0.2022
   77SLPC   H6S 6984   2.571   2.646   7.490  1.5929 -0.0886 -0.9043
   77SLPC   C27 6985   2.577   2.807   7.655  0.0094  0.2323 -0.2465
   77SLPC   H7R 6986   2.469   2.803   7.681 -0.1214  3.5560  0.0670
   77SLPC   H7S 6987   2.616   2.910   7.659  0.8681 -0.1229  1.1140
   77SLPC   C28 6988   2.656   2.720   7.756 -0.1325  0.1829 -0.4979
   77SLPC   H8R 6989   2.766   2.721   7.740 -0.0018 -1.3595  0.1259
   77SLPC   H8S 6990   2.627   2.613   7.746 -1.8263  0.4119  1.3929
   77SLPC   C29 6991   2.635   2.772   7.895 -0.0690 -0.2577 -0.4416
   77SLPC   H9R 6992   2.650   2.880   7.900 -0.4045 -0.1688 -1.2617
   77SLPC  C210 6993   2.608   2.695   8.008 -0.2636  0.0744  0.2637
   77SLPC  H10R 6994   2.609   2.739   8.109 -2.8206  0.7520  0.0441
   77SLPC  C211 6995   2.579   2.546   7.996 -0.5366 -0.6009  0.3825
   77SLPC  H11R 6996   2.666   2.486   7.961 -0.4092  0.3389 -0.9949
   77SLPC  H11S 6997   2.501   2.540   7.918  0.1332  1.6439 -0.5402
   77SLPC  C212 6998   2.509   2.494   8.125  0.3429 -0.3027 -0.3855
   77SLPC  H12R 6999   2.401   2.513   8.137  0.1210 -1.0311 -1.1246
   77SLPC  C213 7000   2.568   2.419   8.223  0.6734  0.2182  0.2611
   77SLPC  H13R 7001   2.502   2.397   8.308  1.4486  2.4089  1.5015
   77SLPC  C214 7002   2.709   2.371   8.224 -0.2276 -0.6149 -0.1590
   77SLPC  H14R 7003   2.747   2.354   8.121  0.9901  1.7564 -0.1792
   77SLPC  H14S 7004   2.730   2.273   8.273  3.2245  1.2121  2.5451
   77SLPC  C215 7005   2.802   2.478   8.284 -0.8206 -0.3718  0.1406
   77SLPC  H15R 7006   2.811   2.566   8.217  0.3308 -1.0304 -0.5995
   77SLPC  H15S 7007   2.898   2.425   8.295 -0.6646  0.1719  1.7964
   77SLPC  C216 7008   2.760   2.530   8.423  0.0308 -0.1355  0.1485
   77SLPC  H16R 7009   2.742   2.448   8.497 -0.2533  1.0728  1.4586
   77SLPC  H16S 7010   2.670   2.592   8.408  0.8540  1.0279 -0.1232
   77SLPC  C217 7011   2.869   2.611   8.483 -0.2434 -0.7974  0.3337
   77SLPC  H17R 7012   2.872   2.705   8.425  0.2572 -1.5184 -0.8448
   77SLPC  H17S 7013   2.972   2.571   8.476 -1.1139 -3.1050 -0.2765
   77SLPC  C218 7014   2.831   2.643   8.628  0.7270 -0.3889 -0.0332
   77SLPC  H18R 7015   2.816   2.551   8.687 -0.6645 -0.3147 -0.2482
   77SLPC  H18S 7016   2.754   2.723   8.634  0.8252 -0.2156 -0.8996
   77SLPC  H18T 7017   2.919   2.692   8.676  1.3395 -0.6238 -0.8961
   77SLPC   C33 7018   2.359   3.653   7.602 -0.5176  0.5031  0.5178
   77SLPC   H3X 7019   2.255   3.628   7.634  0.4771 -2.4312  1.8216
   77SLPC   H3Y 7020   2.369   3.748   7.547  1.2875  0.3120  0.4440
   77SLPC   C34 7021   2.445   3.674   7.733  0.7763 -0.0689  0.3150
   77SLPC   H4X 7022   2.398   3.761   7.786  0.8066 -0.5798  1.2067
   77SLPC   H4Y 7023   2.553   3.690   7.712  0.8678 -0.5796  0.3962
   77SLPC   C35 7024   2.431   3.557   7.831 -0.1812  0.1106 -0.5238
   77SLPC   H5X 7025   2.461   3.470   7.768 -1.0559  1.1090 -2.3892
   77SLPC   H5Y 7026   2.327   3.530   7.861  0.2113  0.2486  1.0530
   77SLPC   C36 7027   2.520   3.579   7.962  0.6978  1.0587 -0.2035
   77SLPC   H6X 7028   2.472   3.666   8.013 -0.0748  2.5915 -3.2796
   77SLPC   H6Y 7029   2.626   3.612   7.951  1.6465 -0.4525  3.3182
   77SLPC   C37 7030   2.520   3.455   8.056  0.6495 -0.6757 -0.5898
   77SLPC   H7X 7031   2.544   3.367   7.993 -0.5828 -1.4043 -0.0827
   77SLPC   H7Y 7032   2.414   3.441   8.087 -0.2563  2.0458 -2.0891
   77SLPC   C38 7033   2.592   3.478   8.186  0.4260  0.6673  0.4091
   77SLPC   H8X 7034   2.565   3.573   8.237  2.4181  0.4964  1.9358
   77SLPC   H8Y 7035   2.700   3.472   8.159 -0.2081 -2.4576 -2.0047
   77SLPC   C39 7036   2.569   3.363   8.282 -0.0322  0.2570  0.2147
   77SLPC   H9X 7037   2.571   3.269   8.224  0.3747  0.9239 -0.8696
   77SLPC   H9Y 7038   2.465   3.385   8.316 -0.8929 -0.1149 -2.0006
   77SLPC  C310 7039   2.660   3.343   8.404 -0.1290  0.3877 -0.1829
   77SLPC  H10X 7040   2.759   3.304   8.373 -0.2777 -0.4158  0.3149
   77SLPC  H10Y 7041   2.616   3.264   8.469  0.0706  0.1529 -0.3286
   77SLPC  C311 7042   2.667   3.460   8.501 -0.1956 -0.2147  0.1655
   77SLPC  H11X 7043   2.711   3.542   8.441 -0.4868 -0.0964  0.1139
   77SLPC  H11Y 7044   2.737   3.433   8.583 -1.3875 -2.4919  0.5422
   77SLPC  C312 7045   2.534   3.490   8.571 -0.2001  0.9864 -0.0557
   77SLPC  H12X 7046   2.491   3.400   8.619  2.1899  1.0912  2.5840
   77SLPC  H12Y 7047   2.468   3.541   8.497 -0.2318  0.1674 -0.6096
   77SLPC  C313 7048   2.553   3.579   8.692 -0.7555 -0.1259  0.9671
   77SLPC  H13X 7049   2.620   3.527   8.763  0.8872  2.0571  1.1332
   77SLPC  H13Y 7050   2.453   3.599   8.735 -0.2135  2.4161  1.2274
   77SLPC  C314 7051   2.610   3.719   8.664  0.5050  0.2669 -0.8096
   77SLPC  H14X 7052   2.552   3.767   8.583 -3.7663 -0.0150  1.7821
   77SLPC  H14Y 7053   2.715   3.704   8.631 -0.3723 -2.7998 -2.5621
   77SLPC  C315 7054   2.604   3.817   8.778 -0.3215 -0.2630 -0.3248
   77SLPC  H15X 7055   2.498   3.826   8.808  0.2571  1.6958  1.3225
   77SLPC  H15Y 7056   2.635   3.918   8.744  2.3741 -0.3909  1.4268
   77SLPC  C316 7057   2.686   3.788   8.902 -1.0270  0.1915 -0.1770
   77SLPC  H16X 7058   2.787   3.749   8.880 -0.5566  0.6906  0.9889
   77SLPC  H16Y 7059   2.638   3.715   8.971 -1.2798  0.9590  0.4844
   77SLPC  C317 7060   2.709   3.914   8.996  0.8479 -0.6332 -0.1312
   77SLPC  H17X 7061   2.603   3.935   9.023  0.3992 -0.7963 -1.6879
   77SLPC  H17Y 7062   2.744   4.005   8.943 -1.5177  0.4102 -0.0436
   77SLPC  C318 7063   2.812   3.899   9.109  0.4573  0.0202  0.1898
   77SLPC  H18X 7064   2.789   3.810   9.172 -0.7876 -0.4483 -0.8957
   77SLPC  H18Y 7065   2.822   3.986   9.178 -0.7012 -0.1963  0.6468
   77SLPC  H18Z 7066   2.914   3.884   9.068  2.2962  2.9692  3.1446
   78SLPC     N 7067   5.338   0.971   6.193 -0.4573 -0.0050 -0.3468
   78SLPC   C13 7068   5.280   0.851   6.251  0.6004  0.1189 -0.4778
   78SLPC  H13A 7069   5.209   0.875   6.329  1.9770 -2.0457  1.6080
   78SLPC  H13B 7070   5.221   0.803   6.175 -0.3365 -0.3009  0.4813
   78SLPC  H13C 7071   5.350   0.780   6.295 -2.3144 -2.3387  0.6049
   78SLPC   C14 7072   5.223   1.048   6.144 -0.1188 -0.1377  0.4024
   78SLPC  H14A 7073   5.262   1.109   6.064  1.7311 -0.4672  1.0211
   78SLPC  H14B 7074   5.144   0.983   6.109 -0.6294  0.5331  0.2889
   78SLPC  H14C 7075   5.190   1.113   6.225 -0.4572  0.1315  0.0522
   78SLPC   C15 7076   5.416   0.917   6.077  0.1848  0.5671  0.0616
   78SLPC  H15A 7077   5.449   0.817   6.098 -2.1968 -0.5950 -1.3658
   78SLPC  H15B 7078   5.351   0.919   5.991 -0.4881 -0.4270  0.5219
   78SLPC  H15C 7079   5.502   0.981   6.065  0.0162  0.8387  0.2678
   78SLPC   C12 7080   5.410   1.055   6.298  0.0510 -0.3975 -0.4986
   78SLPC  H12A 7081   5.458   0.993   6.372  1.2855 -0.0935 -1.0147
   78SLPC  H12B 7082   5.337   1.117   6.347  0.2959 -2.0802  2.1913
   78SLPC   C11 7083   5.522   1.145   6.237  0.4483  0.9169 -0.9308
   78SLPC  H11A 7084   5.552   1.209   6.323 -2.2647  3.0974 -1.4850
   78SLPC  H11B 7085   5.477   1.204   6.155 -2.1472  0.6925  0.2284
   78SLPC     P 7086   5.731   0.990   6.282  0.1244 -0.3989  0.4851
   78SLPC   O13 7087   5.704   0.840   6.274 -0.6509 -0.4977  0.2813
   78SLPC   O14 7088   5.869   1.026   6.245 -0.3615  0.6106  0.3193
   78SLPC   O12 7089   5.636   1.071   6.185  0.6679 -0.0255 -0.5863
   78SLPC   O11 7090   5.693   1.042   6.433 -0.1061 -0.5403 -0.0609
   78SLPC    C1 7091   5.778   1.127   6.515  0.1317  0.9784 -0.4445
   78SLPC    HA 7092   5.852   1.182   6.452 -1.0173  2.0082 -0.9273
   78SLPC    HB 7093   5.714   1.197   6.572 -0.7235  0.4568 -0.7503
   78SLPC    C2 7094   5.867   1.043   6.620  0.1593  1.1847 -0.4087
   78SLPC    HS 7095   5.906   0.954   6.567 -2.7641 -0.1662 -0.5265
   78SLPC   O21 7096   5.775   0.998   6.725  0.0082 -0.0173  0.9597
   78SLPC   C21 7097   5.815   0.911   6.813 -0.9719 -0.4705  0.1603
   78SLPC   O22 7098   5.935   0.886   6.836  0.1622 -0.6787 -0.2282
   78SLPC   C22 7099   5.702   0.832   6.875 -0.5814 -0.0871 -0.0128
   78SLPC   H2R 7100   5.625   0.907   6.903 -1.1164 -0.1331 -1.2993
   78SLPC   H2S 7101   5.662   0.766   6.796  1.3220 -1.5526  0.1706
   78SLPC    C3 7102   5.983   1.116   6.686 -0.2008 -0.3010  0.2025
   78SLPC    HX 7103   6.054   1.139   6.604  1.0578 -0.6933  1.1558
   78SLPC    HY 7104   6.043   1.063   6.763 -1.5686 -0.1299  1.4258
   78SLPC   O31 7105   5.932   1.238   6.742 -0.4162 -0.2226 -0.0993
   78SLPC   C31 7106   6.006   1.348   6.738  0.6919 -0.1749  0.3691
   78SLPC   O32 7107   6.121   1.353   6.698  0.6250 -0.1432  0.1292
   78SLPC   C32 7108   5.936   1.469   6.799 -0.0415 -0.0909 -0.4595
   78SLPC   H2X 7109   5.863   1.441   6.878  1.7382 -0.1227  1.2653
   78SLPC   H2Y 7110   5.878   1.515   6.716 -0.7410 -1.8527 -0.9992
   78SLPC   C23 7111   5.738   0.752   6.997  0.0370 -0.1909  0.3822
   78SLPC   H3R 7112   5.804   0.803   7.070  1.7003  0.3651 -1.4423
   78SLPC   H3S 7113   5.808   0.669   6.975  2.1760  1.5007  0.4704
   78SLPC   C24 7114   5.608   0.705   7.072 -0.5449  0.1464 -0.2510
   78SLPC   H4R 7115   5.563   0.631   7.002 -2.7061  2.0095 -0.9342
   78SLPC   H4S 7116   5.529   0.781   7.085 -1.2690 -0.9197  2.2299
   78SLPC   C25 7117   5.642   0.639   7.210 -0.0707  0.0111 -0.0873
   78SLPC   H5R 7118   5.546   0.603   7.253  0.0163 -0.1336 -0.0144
   78SLPC   H5S 7119   5.682   0.711   7.285  1.1610 -0.5489 -0.1912
   78SLPC   C26 7120   5.731   0.514   7.211 -0.3014  0.2991 -0.3571
   78SLPC   H6R 7121   5.826   0.536   7.158 -0.1411 -0.6978 -0.4994
   78SLPC   H6S 7122   5.689   0.432   7.151  0.3254 -0.2523 -0.0628
   78SLPC   C27 7123   5.742   0.461   7.357  0.2083 -0.6172  0.3535
   78SLPC   H7R 7124   5.780   0.356   7.358  1.1589 -0.2885  1.2400
   78SLPC   H7S 7125   5.640   0.465   7.401  0.8423 -0.7524  1.9066
   78SLPC   C28 7126   5.842   0.541   7.440 -0.6738  0.1756  0.4560
   78SLPC   H8R 7127   5.811   0.647   7.424 -0.8031  0.2693  1.2619
   78SLPC   H8S 7128   5.937   0.544   7.383 -0.3702  1.2996  0.9835
   78SLPC   C29 7129   5.865   0.491   7.585  0.8338  0.5800  0.2910
   78SLPC   H9R 7130   5.947   0.420   7.595 -0.4169 -0.9562 -0.0018
   78SLPC  C210 7131   5.789   0.520   7.695 -0.6157  0.9291  0.1840
   78SLPC  H10R 7132   5.831   0.485   7.790  0.4753  0.1925 -0.5397
   78SLPC  C211 7133   5.670   0.611   7.705 -0.6483 -0.1428  0.5095
   78SLPC  H11R 7134   5.608   0.586   7.616 -3.3574 -0.8256  2.4929
   78SLPC  H11S 7135   5.702   0.717   7.697  0.4578 -0.5178 -0.3620
   78SLPC  C212 7136   5.597   0.597   7.838  0.2910 -0.8734  0.2142
   78SLPC  H12R 7137   5.489   0.579   7.827 -0.0922 -1.6853  4.0566
   78SLPC  C213 7138   5.646   0.620   7.961  0.2373  0.4218 -0.4049
   78SLPC  H13R 7139   5.590   0.581   8.047  0.7662 -1.3801 -0.8355
   78SLPC  C214 7140   5.785   0.657   7.994 -0.7890  0.3240  0.0751
   78SLPC  H14R 7141   5.772   0.745   8.060 -0.4608  0.2208  0.2852
   78SLPC  H14S 7142   5.842   0.694   7.906 -1.3889 -3.7374 -2.2830
   78SLPC  C215 7143   5.886   0.554   8.064 -0.3789  0.1229 -0.0286
   78SLPC  H15R 7144   5.980   0.569   8.006 -0.2333 -1.2996 -0.2016
   78SLPC  H15S 7145   5.873   0.444   8.055  0.0181 -0.0551  1.3874
   78SLPC  C216 7146   5.897   0.571   8.217  0.1390  0.6715 -0.6529
   78SLPC  H16R 7147   5.805   0.520   8.252  1.0286  0.3317  1.2989
   78SLPC  H16S 7148   5.888   0.676   8.252  0.3272  0.4039  0.2243
   78SLPC  C217 7149   6.023   0.497   8.276  0.5238 -0.8522 -0.1718
   78SLPC  H17R 7150   6.124   0.523   8.237  0.4033 -0.1293 -0.0110
   78SLPC  H17S 7151   6.017   0.388   8.253  1.4296 -0.8760 -0.3280
   78SLPC  C218 7152   6.021   0.487   8.424 -1.0566  0.0797  0.0363
   78SLPC  H18R 7153   6.019   0.581   8.482 -1.6857  0.0783  0.0247
   78SLPC  H18S 7154   6.113   0.438   8.464  0.4778  3.4921  1.0554
   78SLPC  H18T 7155   5.930   0.434   8.458 -2.2662  2.1773  0.2088
   78SLPC   C33 7156   6.028   1.568   6.872 -0.7051 -0.4279  0.4824
   78SLPC   H3X 7157   5.973   1.650   6.924 -0.4493 -0.6045  1.0366
   78SLPC   H3Y 7158   6.097   1.616   6.800 -0.9369  0.7001  0.9803
   78SLPC   C34 7159   6.119   1.512   6.980  1.3207  0.0278 -0.1292
   78SLPC   H4X 7160   6.183   1.588   7.030  1.1008  0.9340 -1.2012
   78SLPC   H4Y 7161   6.195   1.446   6.933 -0.4556 -1.4870 -0.9749
   78SLPC   C35 7162   6.042   1.450   7.098 -0.3437 -0.1826  0.3595
   78SLPC   H5X 7163   6.038   1.340   7.085  0.1282 -0.5416  2.7955
   78SLPC   H5Y 7164   5.938   1.487   7.086  0.3336  0.9554 -3.3588
   78SLPC   C36 7165   6.093   1.488   7.234 -0.2846  0.3215 -0.1035
   78SLPC   H6X 7166   6.074   1.595   7.258  0.7400  0.9407 -1.8396
   78SLPC   H6Y 7167   6.203   1.478   7.251 -0.3647 -0.3621  0.0143
   78SLPC   C37 7168   6.029   1.403   7.345  0.0378 -0.8017 -0.2008
   78SLPC   H7X 7169   6.063   1.297   7.341 -0.3847 -0.9641  0.4169
   78SLPC   H7Y 7170   5.919   1.400   7.326 -0.2972  0.3242  1.3439
   78SLPC   C38 7171   6.053   1.458   7.482 -0.1717 -0.1320  0.3407
   78SLPC   H8X 7172   5.988   1.545   7.505  0.0190 -0.3275  1.7048
   78SLPC   H8Y 7173   6.161   1.482   7.491 -0.3720  1.1080 -0.3649
   78SLPC   C39 7174   6.011   1.365   7.593  0.2461  0.1288 -0.1418
   78SLPC   H9X 7175   6.068   1.269   7.587 -0.1395 -0.0519 -1.1136
   78SLPC   H9Y 7176   5.901   1.353   7.581  0.4180 -2.1244  0.0012
   78SLPC  C310 7177   6.024   1.429   7.739 -0.0310 -0.2378 -0.0614
   78SLPC  H10X 7178   5.961   1.520   7.732 -0.3708 -0.4305  0.4651
   78SLPC  H10Y 7179   6.128   1.469   7.742 -0.9341  2.5492 -1.8837
   78SLPC  C311 7180   5.996   1.329   7.852 -0.1386  0.2902 -0.2784
   78SLPC  H11X 7181   6.078   1.255   7.846  1.4341  2.0889 -1.9776
   78SLPC  H11Y 7182   5.907   1.276   7.812  1.8673 -2.3087 -1.5536
   78SLPC  C312 7183   5.976   1.379   7.996  0.1898  0.5603 -0.6125
   78SLPC  H12X 7184   5.898   1.458   7.997 -1.8546 -1.3648 -1.3742
   78SLPC  H12Y 7185   6.073   1.409   8.043  0.7875 -0.4546 -1.1694
   78SLPC  C313 7186   5.922   1.271   8.090  0.3701 -0.4652 -0.1519
   78SLPC  H13X 7187   5.986   1.180   8.088  0.4520 -0.4199  0.3303
   78SLPC  H13Y 7188   5.818   1.238   8.067  0.1811 -0.8043  1.1349
   78SLPC  C314 7189   5.920   1.307   8.241 -0.0455 -0.7726  0.2449
   78SLPC  H14X 7190   5.831   1.373   8.251  0.5294  0.5743 -2.4496
   78SLPC  H14Y 7191   6.014   1.358   8.272 -0.7882  0.7210  0.1226
   78SLPC  C315 7192   5.893   1.180   8.324 -0.2497  0.4910  0.1668
   78SLPC  H15X 7193   5.991   1.128   8.316 -0.9405 -0.6520 -1.3126
   78SLPC  H15Y 7194   5.810   1.113   8.294 -1.7980  1.8256  1.2934
   78SLPC  C316 7195   5.854   1.204   8.476  0.6977 -0.2661  0.6905
   78SLPC  H16X 7196   5.817   1.113   8.527  1.3281 -0.3944  0.9382
   78SLPC  H16Y 7197   5.781   1.285   8.496  0.5929 -0.5485  1.4693
   78SLPC  C317 7198   5.974   1.274   8.566  0.4641 -1.2546  0.0574
   78SLPC  H17X 7199   5.929   1.310   8.661 -1.6388  0.9073 -1.6290
   78SLPC  H17Y 7200   6.004   1.369   8.517 -0.3479  0.3608  2.5185
   78SLPC  C318 7201   6.098   1.190   8.579  0.4021 -0.8883  0.2611
   78SLPC  H18X 7202   6.085   1.095   8.636  1.4397 -1.0449  0.2503
   78SLPC  H18Y 7203   6.177   1.246   8.632 -0.3806  0.1013  0.4090
   78SLPC  H18Z 7204   6.153   1.173   8.484  0.1350  1.2218 -0.3340
   79SLPC     N 7205   3.855   2.007   6.161  0.2630  0.4222 -0.4756
   79SLPC   C13 7206   3.948   2.060   6.061  0.4454  0.9813 -0.2282
   79SLPC  H13A 7207   4.023   1.988   6.031 -0.2021 -0.2351  0.9705
   79SLPC  H13B 7208   3.894   2.093   5.974  2.1498  0.4980 -1.5206
   79SLPC  H13C 7209   4.004   2.142   6.103 -1.3511  1.5572  1.1833
   79SLPC   C14 7210   3.809   1.880   6.097 -0.2772 -0.5488 -0.9607
   79SLPC  H14A 7211   3.893   1.813   6.088  0.8782  0.8810 -1.2843
   79SLPC  H14B 7212   3.746   1.827   6.166 -1.5719  1.4488 -0.5259
   79SLPC  H14C 7213   3.774   1.887   5.995  0.1327 -0.7852 -1.1233
   79SLPC   C15 7214   3.740   2.102   6.168 -0.3660 -0.5118  0.3571
   79SLPC  H15A 7215   3.694   2.107   6.070 -0.9754 -1.0482  0.6036
   79SLPC  H15B 7216   3.674   2.082   6.252 -1.5781 -0.5367 -0.5650
   79SLPC  H15C 7217   3.761   2.202   6.201 -0.0927 -0.9112  1.4486
   79SLPC   C12 7218   3.927   1.991   6.295  0.5938 -0.1217 -0.3713
   79SLPC  H12A 7219   3.941   2.090   6.337  1.8323  0.1770 -1.4252
   79SLPC  H12B 7220   4.025   1.948   6.283  1.1178  1.2364 -1.2409
   79SLPC   C11 7221   3.865   1.887   6.394  0.0597 -0.4283 -0.0710
   79SLPC  H11A 7222   3.758   1.914   6.401 -0.1007 -1.3834  1.7153
   79SLPC  H11B 7223   3.901   1.893   6.499  0.0427 -0.0362 -0.0873
   79SLPC     P 7224   3.999   1.669   6.330 -0.2462 -0.3403 -0.4651
   79SLPC   O13 7225   3.989   1.539   6.390 -0.4903 -0.1839 -0.1665
   79SLPC   O14 7226   4.037   1.674   6.189  0.5677  0.5895  0.5023
   79SLPC   O12 7227   3.868   1.752   6.350 -0.4204 -0.0474 -0.4689
   79SLPC   O11 7228   4.103   1.761   6.406  0.5291 -0.2391 -0.2810
   79SLPC    C1 7229   4.242   1.725   6.436  0.3583  0.1620  0.4716
   79SLPC    HA 7230   4.265   1.625   6.394 -3.8807 -1.2076  0.8690
   79SLPC    HB 7231   4.312   1.795   6.386  1.0461  0.4362  1.7575
   79SLPC    C2 7232   4.274   1.718   6.591 -0.0760 -0.0299 -0.0031
   79SLPC    HS 7233   4.362   1.653   6.605 -0.0912  0.1839  1.2614
   79SLPC   O21 7234   4.161   1.661   6.664 -0.3039 -1.0215 -0.1535
   79SLPC   C21 7235   4.158   1.529   6.665  0.2254  0.2886  0.5374
   79SLPC   O22 7236   4.234   1.452   6.604  0.2119 -0.3780 -0.4304
   79SLPC   C22 7237   4.047   1.479   6.761 -0.0475  0.2431 -0.1926
   79SLPC   H2R 7238   4.023   1.557   6.837  0.1026 -0.8600  1.0205
   79SLPC   H2S 7239   3.960   1.453   6.697 -0.2803 -1.4754  0.7784
   79SLPC    C3 7240   4.303   1.852   6.657 -0.1671  0.1048  0.4472
   79SLPC    HX 7241   4.218   1.924   6.647 -1.0403 -0.8837  0.5404
   79SLPC    HY 7242   4.383   1.900   6.597  1.7107 -1.0028  1.9314
   79SLPC   O31 7243   4.345   1.833   6.792  0.3501  0.3217 -0.4605
   79SLPC   C31 7244   4.338   1.942   6.864  0.1809 -0.0336  0.3779
   79SLPC   O32 7245   4.316   2.051   6.825 -0.2979  0.6908 -0.0433
   79SLPC   C32 7246   4.348   1.906   7.008  0.0682  0.7266 -0.1317
   79SLPC   H2X 7247   4.445   1.855   7.026 -0.4642 -0.1630  0.2953
   79SLPC   H2Y 7248   4.273   1.826   7.024  0.3402  0.7979  1.8622
   79SLPC   C23 7249   4.081   1.350   6.833  0.5333  0.1650  0.0141
   79SLPC   H3R 7250   4.090   1.273   6.753  1.8895 -0.3176  0.6011
   79SLPC   H3S 7251   3.992   1.314   6.888  0.7545 -1.5906 -0.7060
   79SLPC   C24 7252   4.207   1.361   6.915  0.2753  0.2534 -0.2370
   79SLPC   H4R 7253   4.300   1.371   6.855  1.2117 -1.7772  0.7531
   79SLPC   H4S 7254   4.213   1.271   6.979  0.3074 -0.2003 -0.8689
   79SLPC   C25 7255   4.201   1.483   7.016 -1.0415  0.4461  0.6464
   79SLPC   H5R 7256   4.096   1.468   7.049 -0.6782 -0.4046  1.4898
   79SLPC   H5S 7257   4.215   1.575   6.955 -0.2372  0.2280  0.4899
   79SLPC   C26 7258   4.305   1.460   7.127 -0.2139 -0.1763 -0.7845
   79SLPC   H6R 7259   4.410   1.471   7.095  0.2704 -0.5189  0.6056
   79SLPC   H6S 7260   4.304   1.364   7.183  1.2282  0.1329 -0.2029
   79SLPC   C27 7261   4.302   1.568   7.242 -0.6218 -0.6427  0.3100
   79SLPC   H7R 7262   4.351   1.664   7.217  0.0926 -1.0226  0.2190
   79SLPC   H7S 7263   4.359   1.524   7.326  2.6755 -0.5983 -1.7456
   79SLPC   C28 7264   4.158   1.584   7.297 -0.0932  1.0610  0.1951
   79SLPC   H8R 7265   4.091   1.623   7.217 -0.3645  0.1963 -0.0008
   79SLPC   H8S 7266   4.165   1.651   7.385 -0.8739  1.3336  0.0598
   79SLPC   C29 7267   4.092   1.452   7.332 -0.0627 -0.4191  0.2878
   79SLPC   H9R 7268   4.072   1.393   7.241 -0.4855  1.0971 -0.6291
   79SLPC  C210 7269   4.052   1.404   7.455  0.3730 -0.6826  0.6046
   79SLPC  H10R 7270   4.018   1.300   7.450  1.3978 -0.9677 -2.0370
   79SLPC  C211 7271   4.057   1.467   7.596 -0.7772 -0.0513  0.0448
   79SLPC  H11R 7272   4.024   1.391   7.670  0.7861 -1.4533 -0.6220
   79SLPC  H11S 7273   3.980   1.544   7.616 -1.9710 -1.4153  0.8932
   79SLPC  C212 7274   4.193   1.512   7.632 -0.0874  0.4398  0.7757
   79SLPC  H12R 7275   4.256   1.544   7.547 -1.1393 -0.8704 -0.5310
   79SLPC  C213 7276   4.232   1.529   7.761  0.4104 -0.3527  0.1934
   79SLPC  H13R 7277   4.330   1.571   7.788 -0.0697  0.9585 -0.0311
   79SLPC  C214 7278   4.145   1.511   7.880  0.2221  0.5137 -0.5604
   79SLPC  H14R 7279   4.037   1.501   7.855  0.4174  1.3493 -1.8268
   79SLPC  H14S 7280   4.151   1.607   7.936 -2.4484 -0.1155  0.9639
   79SLPC  C215 7281   4.200   1.403   7.968  0.6553  0.8710  0.3057
   79SLPC  H15R 7282   4.290   1.435   8.024  0.5125  0.3255  0.8608
   79SLPC  H15S 7283   4.241   1.323   7.902  2.0209  0.8269  1.1813
   79SLPC  C216 7284   4.084   1.342   8.054  0.1713 -0.1922 -0.1887
   79SLPC  H16R 7285   3.998   1.308   7.992  1.9765 -0.3373 -2.7874
   79SLPC  H16S 7286   4.048   1.425   8.119  2.1624  2.0666 -1.8189
   79SLPC  C217 7287   4.128   1.221   8.142  0.2169 -0.8055 -0.4233
   79SLPC  H17R 7288   4.165   1.133   8.085 -0.8389 -0.4366 -1.7541
   79SLPC  H17S 7289   4.030   1.193   8.185 -0.5631  1.5186 -0.5349
   79SLPC  C218 7290   4.229   1.254   8.258  0.9574 -0.1967 -0.1214
   79SLPC  H18R 7291   4.321   1.298   8.215  1.7044  0.5909  2.1350
   79SLPC  H18S 7292   4.250   1.164   8.321 -0.2504  0.4698  1.2915
   79SLPC  H18T 7293   4.187   1.335   8.321 -2.1104  0.9233 -3.2802
   79SLPC   C33 7294   4.328   2.030   7.103  0.1335 -0.3809  0.1635
   79SLPC   H3X 7295   4.261   2.103   7.052  0.3695 -0.7649 -0.7123
   79SLPC   H3Y 7296   4.431   2.064   7.123 -0.4133  1.0308  0.7145
   79SLPC   C34 7297   4.269   2.003   7.247  0.5675 -0.0834 -0.3100
   79SLPC   H4X 7298   4.312   2.082   7.310  0.9262  1.2564 -2.1414
   79SLPC   H4Y 7299   4.303   1.903   7.282  1.2888 -0.4236 -1.8871
   79SLPC   C35 7300   4.115   2.014   7.254 -0.6319 -0.3478 -0.1535
   79SLPC   H5X 7301   4.074   1.961   7.165  0.5403 -0.7678 -0.4603
   79SLPC   H5Y 7302   4.095   2.123   7.247 -1.2338 -0.4323  0.2152
   79SLPC   C36 7303   4.060   1.958   7.387  0.2128  0.8611 -0.2300
   79SLPC   H6X 7304   4.064   1.847   7.374  3.2039  0.6409  1.6005
   79SLPC   H6Y 7305   3.953   1.986   7.385  0.4029  1.5569 -0.7653
   79SLPC   C37 7306   4.125   1.989   7.524  0.7271  0.5262 -0.3719
   79SLPC   H7X 7307   4.121   2.098   7.549 -1.3542 -0.1541  2.8106
   79SLPC   H7Y 7308   4.230   1.963   7.498  0.4173 -1.7820  0.5416
   79SLPC   C38 7309   4.081   1.893   7.629  0.2468 -0.0602  0.1898
   79SLPC   H8X 7310   4.104   1.788   7.602  3.1643  0.0841  1.7486
   79SLPC   H8Y 7311   3.972   1.913   7.634  0.3814  0.5799  0.7243
   79SLPC   C39 7312   4.134   1.933   7.765 -0.1035 -0.2744 -0.8813
   79SLPC   H9X 7313   4.075   1.868   7.833  0.2433 -0.2668 -0.5699
   79SLPC   H9Y 7314   4.101   2.039   7.772  1.7228  0.4000 -1.7139
   79SLPC  C310 7315   4.293   1.927   7.785  0.1023  0.7374 -0.0457
   79SLPC  H10X 7316   4.352   2.012   7.745 -0.0466 -0.0274 -2.0273
   79SLPC  H10Y 7317   4.326   1.837   7.729  0.8313  0.3124  1.0337
   79SLPC  C311 7318   4.320   1.904   7.936  0.2473 -0.2717  0.4489
   79SLPC  H11X 7319   4.274   1.806   7.962 -1.0889 -0.4889 -2.3510
   79SLPC  H11Y 7320   4.268   1.975   8.003  0.8814  1.4844 -0.8438
   79SLPC  C312 7321   4.471   1.895   7.973  0.3511 -0.1505 -0.3579
   79SLPC  H12X 7322   4.469   1.881   8.083  1.7242 -3.5466 -0.6531
   79SLPC  H12Y 7323   4.538   1.978   7.942  0.2521 -0.3348 -1.0959
   79SLPC  C313 7324   4.546   1.778   7.920 -0.4428  0.1024  0.5825
   79SLPC  H13X 7325   4.655   1.804   7.919 -0.4974  0.3454  0.8133
   79SLPC  H13Y 7326   4.522   1.753   7.815  0.1443 -1.1461  0.7255
   79SLPC  C314 7327   4.533   1.651   8.007 -0.0892  0.1172  0.8218
   79SLPC  H14X 7328   4.427   1.623   8.027  0.0552 -2.8523 -1.8465
   79SLPC  H14Y 7329   4.580   1.691   8.099  3.5760  2.3864 -1.7680
   79SLPC  C315 7330   4.606   1.527   7.949 -0.0455 -0.9197  0.2747
   79SLPC  H15X 7331   4.711   1.566   7.943 -0.0717 -0.9619 -0.6978
   79SLPC  H15Y 7332   4.565   1.498   7.850  2.5737 -1.3366 -0.7800
   79SLPC  C316 7333   4.602   1.414   8.051 -0.5777  0.2896 -0.5968
   79SLPC  H16X 7334   4.638   1.321   8.003  2.2753  0.5015  0.9515
   79SLPC  H16Y 7335   4.501   1.398   8.095 -0.1924  1.6425  0.8926
   79SLPC  C317 7336   4.700   1.436   8.174 -0.2572  1.0527 -0.7418
   79SLPC  H17X 7337   4.674   1.532   8.222  1.6848  0.7340  1.0913
   79SLPC  H17Y 7338   4.805   1.448   8.143  0.2459 -0.5700  0.1772
   79SLPC  C318 7339   4.684   1.324   8.281 -0.0141 -0.0948  0.1179
   79SLPC  H18X 7340   4.579   1.323   8.317 -0.7015  0.8726 -1.7532
   79SLPC  H18Y 7341   4.759   1.343   8.362 -0.6131 -2.1070  1.2302
   79SLPC  H18Z 7342   4.707   1.227   8.231 -0.4208 -0.2878  0.3022
   80SLPC     N 7343   3.991   0.654   5.956 -0.1382 -0.6616 -0.6413
   80SLPC   C13 7344   3.956   0.717   5.831 -0.3635  0.0542  0.5305
   80SLPC  H13A 7345   3.907   0.643   5.769  0.2238  1.5558 -1.8588
   80SLPC  H13B 7346   3.889   0.801   5.841  0.7831  0.8957  1.4103
   80SLPC  H13C 7347   4.039   0.741   5.766 -0.8772  1.7417  0.4446
   80SLPC   C14 7348   4.062   0.525   5.940 -0.2521 -0.4572  0.6051
   80SLPC  H14A 7349   4.156   0.532   5.886 -0.2728 -0.8514  0.5179
   80SLPC  H14B 7350   4.080   0.469   6.030  0.8071 -0.5804  0.3265
   80SLPC  H14C 7351   3.987   0.459   5.898  0.1363  0.4233 -1.6219
   80SLPC   C15 7352   3.860   0.620   6.020 -0.2432  0.2152 -0.4504
   80SLPC  H15A 7353   3.808   0.711   6.046 -1.3388 -0.4092 -0.3881
   80SLPC  H15B 7354   3.791   0.562   5.961  0.0024 -0.1486 -0.3852
   80SLPC  H15C 7355   3.889   0.570   6.111  0.0480 -1.0013 -1.1788
   80SLPC   C12 7356   4.076   0.752   6.032 -0.3952  0.0479  0.1488
   80SLPC  H12A 7357   4.024   0.846   6.043 -1.2038 -0.3681 -0.0816
   80SLPC  H12B 7358   4.169   0.772   5.981 -0.5081 -1.2006 -0.5876
   80SLPC   C11 7359   4.130   0.707   6.172  0.9087 -0.2444 -0.5181
   80SLPC  H11A 7360   4.184   0.797   6.209  0.5272 -0.2076 -0.0381
   80SLPC  H11B 7361   4.208   0.628   6.166  1.5662  0.5112 -3.3772
   80SLPC     P 7362   3.930   0.777   6.325 -0.1762 -0.1149 -0.0875
   80SLPC   O13 7363   4.002   0.903   6.353 -0.1906 -0.2450 -0.4808
   80SLPC   O14 7364   3.803   0.783   6.251 -0.7875  0.1798 -0.1108
   80SLPC   O12 7365   4.028   0.662   6.268  0.2533  0.7180  0.4540
   80SLPC   O11 7366   3.892   0.716   6.468  0.2565  0.4028 -0.0483
   80SLPC    C1 7367   3.986   0.674   6.563 -0.2526  0.1715 -0.1783
   80SLPC    HA 7368   3.955   0.578   6.609  0.9885 -0.7663 -1.2443
   80SLPC    HB 7369   4.087   0.664   6.519  0.1825 -0.9404  1.0247
   80SLPC    C2 7370   3.985   0.765   6.686  0.2310 -0.5996  0.6702
   80SLPC    HS 7371   4.030   0.858   6.644  0.6522 -2.2619 -3.0068
   80SLPC   O21 7372   4.065   0.699   6.788 -0.3160 -0.0276 -0.3184
   80SLPC   C21 7373   4.171   0.770   6.835  0.6587 -0.3666 -0.5859
   80SLPC   O22 7374   4.239   0.850   6.775 -0.0193  0.1294 -0.0613
   80SLPC   C22 7375   4.195   0.720   6.979  0.5546  0.0646 -0.0018
   80SLPC   H2R 7376   4.101   0.716   7.039  1.0410  0.8982  0.8428
   80SLPC   H2S 7377   4.219   0.614   6.958 -1.0727 -0.0473 -1.5749
   80SLPC    C3 7378   3.852   0.802   6.743  0.3173  0.1708 -0.6171
   80SLPC    HX 7379   3.805   0.704   6.766 -0.5993  0.3186 -1.7836
   80SLPC    HY 7380   3.794   0.849   6.661  1.7605 -0.1286 -1.8530
   80SLPC   O31 7381   3.873   0.886   6.858 -0.0492  0.1517 -0.6657
   80SLPC   C31 7382   3.790   0.985   6.871 -0.3526  0.6726 -0.3323
   80SLPC   O32 7383   3.716   1.036   6.786  0.5468  0.6349 -0.2514
   80SLPC   C32 7384   3.807   1.034   7.019  0.0427  0.1961  0.1465
   80SLPC   H2X 7385   3.908   1.079   7.028 -0.4699  2.0124 -2.3136
   80SLPC   H2Y 7386   3.794   0.950   7.090  0.5387 -0.5550 -0.6294
   80SLPC   C23 7387   4.312   0.799   7.042 -0.7959 -0.0997  0.4635
   80SLPC   H3R 7388   4.387   0.839   6.970  0.5884 -3.4585 -0.1206
   80SLPC   H3S 7389   4.367   0.719   7.096 -0.5166 -0.1885  0.0545
   80SLPC   C24 7390   4.256   0.917   7.117  0.5554 -0.3061 -0.0603
   80SLPC   H4R 7391   4.187   0.977   7.054  0.9114  1.4016  1.1133
   80SLPC   H4S 7392   4.344   0.980   7.144 -1.4171  2.9441 -0.6360
   80SLPC   C25 7393   4.182   0.878   7.251 -0.4640  0.2572  0.0823
   80SLPC   H5R 7394   4.260   0.823   7.307 -2.6601  0.4624  3.6422
   80SLPC   H5S 7395   4.099   0.806   7.236  0.0782 -0.5786  0.9687
   80SLPC   C26 7396   4.145   0.993   7.340 -0.4469 -0.2178 -0.0088
   80SLPC   H6R 7397   4.054   1.040   7.299 -0.0825 -0.3735 -1.0218
   80SLPC   H6S 7398   4.224   1.072   7.343 -1.1496  0.5105 -0.2964
   80SLPC   C27 7399   4.107   0.949   7.488  0.4954 -0.0024 -0.0862
   80SLPC   H7R 7400   4.165   0.859   7.514  0.1611  0.2564  1.6490
   80SLPC   H7S 7401   3.998   0.934   7.500  0.3308  1.9566  1.4574
   80SLPC   C28 7402   4.154   1.051   7.587 -0.4356 -0.3166 -0.0204
   80SLPC   H8R 7403   4.097   1.145   7.572  0.3144  0.5227  1.9996
   80SLPC   H8S 7404   4.262   1.074   7.572  0.1339 -3.3539 -1.3159
   80SLPC   C29 7405   4.125   1.014   7.730  0.5832  0.7254  1.2707
   80SLPC   H9R 7406   4.018   1.031   7.752  0.1404  0.1296 -0.2817
   80SLPC  C210 7407   4.218   0.968   7.817  0.4822  0.3218  0.5595
   80SLPC  H10R 7408   4.173   0.925   7.907 -1.2803  0.2530 -0.3157
   80SLPC  C211 7409   4.364   0.940   7.798 -0.8812 -0.2928  0.4293
   80SLPC  H11R 7410   4.395   0.990   7.704  1.0742  1.0465  1.6961
   80SLPC  H11S 7411   4.390   0.832   7.799  0.5279  0.0205  1.6762
   80SLPC  C212 7412   4.446   0.989   7.909 -0.1035 -0.9547 -0.1264
   80SLPC  H12R 7413   4.503   1.080   7.886 -0.6196 -0.9306 -1.3637
   80SLPC  C213 7414   4.455   0.929   8.033 -0.3873  0.4553 -0.1117
   80SLPC  H13R 7415   4.525   0.974   8.105  2.8480 -0.2105 -2.5874
   80SLPC  C214 7416   4.383   0.803   8.073  0.4206 -0.3205 -0.0378
   80SLPC  H14R 7417   4.458   0.726   8.100  3.2478  2.1436 -0.4320
   80SLPC  H14S 7418   4.327   0.755   7.990 -0.3166  0.3456  0.0647
   80SLPC  C215 7419   4.291   0.815   8.190 -0.2149 -0.7524 -0.2682
   80SLPC  H15R 7420   4.256   0.920   8.207 -0.3325 -1.0040  1.2350
   80SLPC  H15S 7421   4.356   0.797   8.278 -0.0686  2.7435  0.5172
   80SLPC  C216 7422   4.168   0.716   8.197  0.2853 -0.3180  0.8256
   80SLPC  H16R 7423   4.207   0.612   8.199  0.2792 -0.3312  0.4524
   80SLPC  H16S 7424   4.107   0.733   8.105  0.8011 -3.5385 -0.2459
   80SLPC  C217 7425   4.078   0.742   8.324  0.2022 -0.3361 -0.0573
   80SLPC  H17R 7426   4.043   0.847   8.327 -0.8098 -0.6568 -0.1672
   80SLPC  H17S 7427   4.135   0.722   8.417  0.7849 -0.3791 -0.4179
   80SLPC  C218 7428   3.949   0.664   8.327 -0.3881  0.5741  0.5573
   80SLPC  H18R 7429   3.976   0.557   8.336 -0.4921  0.6634  2.2265
   80SLPC  H18S 7430   3.890   0.697   8.239  0.9024  3.7433  0.7371
   80SLPC  H18T 7431   3.891   0.710   8.410  1.2588  0.6150  1.7285
   80SLPC   C33 7432   3.718   1.158   7.052  0.1742 -0.9992  0.2115
   80SLPC   H3X 7433   3.615   1.118   7.038  0.3162 -1.8601  1.4714
   80SLPC   H3Y 7434   3.752   1.238   6.983 -1.6721 -0.4491 -0.1117
   80SLPC   C34 7435   3.741   1.210   7.198 -0.0993  0.8673 -0.6447
   80SLPC   H4X 7436   3.702   1.313   7.214 -0.5006  0.5248  0.6995
   80SLPC   H4Y 7437   3.852   1.210   7.199  0.1037 -3.0725 -2.1375
   80SLPC   C35 7438   3.681   1.127   7.305  0.5599  0.9784 -0.8138
   80SLPC   H5X 7439   3.696   1.018   7.286 -3.8177  0.1904 -0.9450
   80SLPC   H5Y 7440   3.572   1.149   7.297  0.4253  0.3027 -0.9035
   80SLPC   C36 7441   3.710   1.180   7.452  0.2483  0.1372  0.3909
   80SLPC   H6X 7442   3.695   1.290   7.452  1.3055  0.3111 -1.0045
   80SLPC   H6Y 7443   3.813   1.153   7.483  0.4027  0.4579  0.1541
   80SLPC   C37 7444   3.615   1.116   7.553 -0.0395 -0.6572 -0.1981
   80SLPC   H7X 7445   3.658   1.014   7.550  2.4387  0.3337 -2.0235
   80SLPC   H7Y 7446   3.507   1.118   7.525 -0.0934  0.1934  0.0298
   80SLPC   C38 7447   3.635   1.171   7.694 -0.3771 -0.0677  0.0320
   80SLPC   H8X 7448   3.549   1.238   7.714  0.1103  0.8781 -0.9497
   80SLPC   H8Y 7449   3.725   1.235   7.700  2.2585 -3.1712 -2.4591
   80SLPC   C39 7450   3.629   1.061   7.798  0.2086  0.3876  0.4511
   80SLPC   H9X 7451   3.696   0.979   7.764 -2.1595 -0.9934 -1.2083
   80SLPC   H9Y 7452   3.528   1.014   7.798  0.8597 -1.0801 -0.2181
   80SLPC  C310 7453   3.675   1.115   7.938 -0.0559  0.0098  0.5592
   80SLPC  H10X 7454   3.594   1.188   7.957  0.5066  0.3945  1.5383
   80SLPC  H10Y 7455   3.770   1.170   7.922 -0.7328  1.3066  0.9070
   80SLPC  C311 7456   3.682   1.006   8.041  0.4510  0.1266 -0.0358
   80SLPC  H11X 7457   3.779   0.952   8.031 -0.9693 -2.7067  0.4172
   80SLPC  H11Y 7458   3.599   0.933   8.033  2.1327 -1.6893 -2.1093
   80SLPC  C312 7459   3.693   1.085   8.168 -0.1607 -0.4962 -0.5395
   80SLPC  H12X 7460   3.593   1.130   8.188 -0.4038 -1.3685  0.2917
   80SLPC  H12Y 7461   3.766   1.168   8.162 -0.3793 -0.3761 -1.6000
   80SLPC  C313 7462   3.741   1.004   8.287 -0.2371  0.8662 -0.6226
   80SLPC  H13X 7463   3.831   0.942   8.269 -1.2544 -2.1429  3.2285
   80SLPC  H13Y 7464   3.664   0.928   8.313  1.6931 -0.5106  1.3603
   80SLPC  C314 7465   3.775   1.080   8.418  0.0958 -0.1024  0.2333
   80SLPC  H14X 7466   3.775   1.007   8.502  0.5846 -1.0707 -0.5866
   80SLPC  H14Y 7467   3.693   1.153   8.430 -0.2720 -0.3893 -0.4717
   80SLPC  C315 7468   3.902   1.167   8.406  0.1314 -0.3424 -0.0791
   80SLPC  H15X 7469   3.892   1.239   8.321  1.3242  0.2682  0.2764
   80SLPC  H15Y 7470   3.996   1.110   8.396  0.6744 -0.0504  2.5589
   80SLPC  C316 7471   3.929   1.252   8.534 -0.2909 -0.7248  0.1480
   80SLPC  H16X 7472   4.025   1.302   8.512 -0.4349 -0.8228 -0.7478
   80SLPC  H16Y 7473   3.938   1.200   8.632 -0.6653 -0.3246  0.4012
   80SLPC  C317 7474   3.816   1.350   8.558 -0.6732 -0.8837 -0.3751
   80SLPC  H17X 7475   3.837   1.410   8.649  0.4201 -0.6313 -0.7794
   80SLPC  H17Y 7476   3.729   1.289   8.588 -0.2434 -1.5124 -0.3756
   80SLPC  C318 7477   3.816   1.454   8.447 -0.0220 -0.2298  0.0385
   80SLPC  H18X 7478   3.915   1.465   8.398  0.7793  0.8833  1.7880
   80SLPC  H18Y 7479   3.782   1.557   8.469  1.3832  0.7585 -2.0640
   80SLPC  H18Z 7480   3.751   1.418   8.365  0.7482 -0.3118 -0.5455
   81SAPS     N 7481   0.102   4.623  11.207  0.5192  0.3269 -0.3301
   81SAPS   HN1 7482   0.122   4.618  11.105 -2.1324  0.7197 -0.9576
   81SAPS   HN2 7483   0.085   4.528  11.248 -0.1414  1.2810  1.7620
   81SAPS   HN3 7484   0.019   4.686  11.216  0.6705  0.3436  1.2578
   81SAPS   C12 7485   0.217   4.684  11.277  0.0009  0.4292  0.3639
   81SAPS  H12A 7486   0.240   4.776  11.226  1.3199  1.0584  1.9699
   81SAPS   C13 7487   0.186   4.725  11.420  0.0902  0.5040  0.1313
   81SAPS  O13A 7488   0.074   4.699  11.474  0.3138  0.5373 -0.5197
   81SAPS  O13B 7489   0.276   4.783  11.481  0.1915  0.0406  0.2478
   81SAPS   C11 7490   0.340   4.582  11.271 -0.2452 -0.7077  0.3739
   81SAPS  H11A 7491   0.302   4.485  11.311 -2.3953  0.5533  1.6477
   81SAPS  H11B 7492   0.415   4.621  11.343 -1.1963 -0.4377  1.2474
   81SAPS     P 7493   0.471   4.444  11.102  0.1917 -0.3375 -0.2702
   81SAPS   O13 7494   0.617   4.463  11.111  0.2394 -0.3424 -0.2622
   81SAPS   O14 7495   0.415   4.321  11.167  0.2342 -0.4404  0.3578
   81SAPS   O12 7496   0.395   4.576  11.144  0.5453  0.3704 -0.1807
   81SAPS   O11 7497   0.433   4.425  10.950 -0.1031 -0.2250 -0.0524
   81SAPS    C1 7498   0.399   4.305  10.886 -1.1869  0.7414  0.9792
   81SAPS    HA 7499   0.487   4.237  10.887  0.3725  2.6598  1.0422
   81SAPS    HB 7500   0.313   4.257  10.937 -0.0986 -0.4542  1.7831
   81SAPS    C2 7501   0.364   4.316  10.741 -0.6558 -0.0118 -0.2315
   81SAPS    HS 7502   0.333   4.218  10.699 -1.2842 -0.4380  1.1531
   81SAPS   O21 7503   0.488   4.360  10.676  0.3224 -0.2060 -0.0381
   81SAPS   C21 7504   0.485   4.349  10.541 -0.1460  0.8487  0.2461
   81SAPS   O22 7505   0.401   4.296  10.471 -0.1904  0.3938 -0.2872
   81SAPS   C22 7506   0.610   4.403  10.491 -0.6283  0.3884  0.1182
   81SAPS   H2R 7507   0.694   4.354  10.546 -0.2645  1.2559  0.3631
   81SAPS   H2S 7508   0.631   4.368  10.388  4.6714 -3.3361  2.0158
   81SAPS    C3 7509   0.239   4.409  10.723  0.0036  0.5414  0.5860
   81SAPS    HX 7510   0.265   4.514  10.748 -0.8441  0.9953 -0.3802
   81SAPS    HY 7511   0.168   4.360  10.794  0.0052 -0.4020 -0.0534
   81SAPS   O31 7512   0.184   4.405  10.585  0.6478 -0.6328 -0.7370
   81SAPS   C31 7513   0.098   4.315  10.553 -0.3969 -0.2869 -0.2452
   81SAPS   O32 7514   0.057   4.234  10.631 -0.4372  0.3856 -0.2529
   81SAPS   C32 7515   0.065   4.334  10.412 -0.0569  0.1532 -0.6996
   81SAPS   H2X 7516   0.160   4.328  10.356 -0.9187  1.1724 -2.3305
   81SAPS   H2Y 7517   0.034   4.441  10.403  2.3744  1.5179  3.6501
   81SAPS   C23 7518   0.637   4.547  10.528 -0.0336  0.3985 -0.2019
   81SAPS   H3R 7519   0.742   4.573  10.502 -0.0866  0.9805  0.1456
   81SAPS   H3S 7520   0.618   4.557  10.637  0.1929 -2.1907  0.1422
   81SAPS   C24 7521   0.565   4.654  10.442  0.1807  0.2588 -0.8085
   81SAPS   H4R 7522   0.594   4.632  10.336  0.9839 -0.8099 -0.3893
   81SAPS   H4S 7523   0.621   4.746  10.468  0.5260 -0.0797 -0.3486
   81SAPS   C25 7524   0.419   4.658  10.461  1.0407 -0.4507  0.0851
   81SAPS   H5R 7525   0.380   4.648  10.563 -2.7967 -0.9730 -1.2478
   81SAPS   C26 7526   0.330   4.656  10.363  0.8035  0.1986 -0.5312
   81SAPS   H6R 7527   0.224   4.652  10.390  0.9384  1.2769  0.2649
   81SAPS   C27 7528   0.345   4.648  10.215  0.0407 -0.0120 -0.9536
   81SAPS   H7R 7529   0.443   4.684  10.178  1.0016 -0.1482  1.3022
   81SAPS   H7S 7530   0.269   4.717  10.171 -0.2893  2.0377  2.5213
   81SAPS   C28 7531   0.327   4.501  10.164  0.0803  0.1199  0.2497
   81SAPS   H8R 7532   0.359   4.425  10.238 -0.5293 -1.5571 -1.1468
   81SAPS   C29 7533   0.263   4.465  10.051 -0.3827 -0.2749  0.4241
   81SAPS   H9R 7534   0.249   4.357  10.033  1.9766 -0.4488 -0.7206
   81SAPS  C210 7535   0.210   4.560   9.947  0.4340  0.3692  0.2276
   81SAPS  H10R 7536   0.307   4.588   9.900 -0.5806  1.0224 -1.5985
   81SAPS  H10S 7537   0.158   4.644   9.998 -0.9256 -0.2675 -0.0564
   81SAPS  C211 7538   0.126   4.491   9.841  0.1420 -0.3709  0.0970
   81SAPS  H11R 7539   0.055   4.422   9.888 -1.6610  1.1106 -0.3189
   81SAPS  C212 7540   0.116   4.524   9.707 -0.2793  0.3156 -0.5891
   81SAPS  H12R 7541   0.044   4.464   9.650  0.3679 -1.1236  0.0478
   81SAPS  C213 7542   0.185   4.635   9.638 -0.8167 -0.6177  0.5352
   81SAPS  H13R 7543   0.237   4.709   9.703 -1.3690  0.5382 -0.3040
   81SAPS  H13S 7544   0.109   4.695   9.583 -1.2569 -1.4703  0.2035
   81SAPS  C214 7545   0.292   4.573   9.555 -0.1273 -0.4642  0.7761
   81SAPS  H14R 7546   0.377   4.536   9.614 -0.2744 -2.8963 -0.4048
   81SAPS  C215 7547   0.290   4.553   9.422 -0.5099 -0.5407 -0.2660
   81SAPS  H15R 7548   0.375   4.500   9.376 -1.2773 -0.3155 -2.0220
   81SAPS  C216 7549   0.187   4.605   9.324 -0.2769  0.9738 -0.2781
   81SAPS  H16R 7550   0.201   4.714   9.342  1.2766  0.5783  1.1968
   81SAPS  H16S 7551   0.091   4.563   9.362 -0.2398  0.9889 -0.1669
   81SAPS  C217 7552   0.206   4.565   9.179 -0.6728  0.0117  0.9091
   81SAPS  H17R 7553   0.115   4.599   9.126  1.1124  0.1102 -2.3721
   81SAPS  H17S 7554   0.223   4.461   9.144 -1.3464  0.0087  0.5848
   81SAPS  C218 7555   0.318   4.643   9.119 -0.6750  0.5119  0.0648
   81SAPS  H18R 7556   0.413   4.597   9.153 -0.1460 -1.1978 -3.2481
   81SAPS  H18S 7557   0.328   4.751   9.143  3.2859  0.5193 -0.8181
   81SAPS  C219 7558   0.313   4.642   8.965 -0.4948  0.0388  0.2097
   81SAPS  H19R 7559   0.281   4.544   8.924 -0.4785  0.9439 -2.1305
   81SAPS  H19S 7560   0.419   4.647   8.933 -0.2526 -1.5720  0.7175
   81SAPS  C220 7561   0.237   4.754   8.899 -0.1870  0.2481 -0.4400
   81SAPS  H20R 7562   0.265   4.858   8.929 -1.4323  0.6196 -0.5053
   81SAPS  H20S 7563   0.132   4.745   8.934  0.3899 -0.6474  1.1787
   81SAPS  H20T 7564   0.249   4.741   8.789  1.1304 -0.1084 -0.2736
   81SAPS   C33 7565  -0.045   4.238  10.370  0.6143  1.0001 -0.0034
   81SAPS   H3X 7566  -0.120   4.233  10.453 -1.1311  3.1384 -1.3355
   81SAPS   H3Y 7567  -0.006   4.136  10.352 -1.2349  0.1182  0.6818
   81SAPS   C34 7568  -0.121   4.280  10.244  0.2397  0.3205  0.1186
   81SAPS   H4X 7569  -0.043   4.290  10.165  0.6100 -1.3749  0.2390
   81SAPS   H4Y 7570  -0.175   4.375  10.264  0.7046  1.1408 -2.1754
   81SAPS   C35 7571  -0.217   4.168  10.202  0.0856 -0.3649  0.3256
   81SAPS   H5X 7572  -0.279   4.161  10.295 -1.2845  1.1924 -0.4311
   81SAPS   H5Y 7573  -0.163   4.072  10.191  0.2818 -0.5688  2.4763
   81SAPS   C36 7574  -0.302   4.205  10.086 -0.1844 -0.5890 -0.3798
   81SAPS   H6X 7575  -0.339   4.309  10.100  0.5097 -0.3755 -0.0988
   81SAPS   H6Y 7576  -0.389   4.137  10.075  0.9421 -1.7738 -2.9953
   81SAPS   C37 7577  -0.232   4.195   9.949 -1.2228  0.0934 -0.1649
   81SAPS   H7X 7578  -0.212   4.087   9.933 -1.2185  0.0537  0.1139
   81SAPS   H7Y 7579  -0.141   4.259   9.946 -1.3670  0.3054 -0.0280
   81SAPS   C38 7580  -0.319   4.248   9.834 -0.5238  0.5335  0.2115
   81SAPS   H8X 7581  -0.348   4.351   9.864 -0.3343  1.2123 -1.8018
   81SAPS   H8Y 7582  -0.406   4.179   9.831  0.5009 -0.8995  1.2754
   81SAPS   C39 7583  -0.256   4.257   9.699 -0.0903  0.1031  0.2050
   81SAPS   H9X 7584  -0.206   4.161   9.672  0.5908  0.7595 -0.9421
   81SAPS   H9Y 7585  -0.168   4.324   9.708  0.8318 -1.0360 -0.1612
   81SAPS  C310 7586  -0.348   4.313   9.592  0.2468 -0.2086 -0.0710
   81SAPS  H10X 7587  -0.359   4.420   9.621  1.3439  0.7974 -2.9552
   81SAPS  H10Y 7588  -0.450   4.272   9.578  1.2054 -2.6343 -0.3446
   81SAPS  C311 7589  -0.275   4.318   9.452  0.2336  0.0363 -0.2298
   81SAPS  H11X 7590  -0.278   4.209   9.426 -0.0987 -0.3004  1.1531
   81SAPS  H11Y 7591  -0.175   4.363   9.471  0.1535 -0.3080  1.1476
   81SAPS  C312 7592  -0.360   4.396   9.349  0.0697 -0.9372  0.0152
   81SAPS  H12X 7593  -0.385   4.497   9.385  0.9422 -1.2288  1.5328
   81SAPS  H12Y 7594  -0.453   4.338   9.333  0.0684 -1.3734  1.5394
   81SAPS  C313 7595  -0.284   4.415   9.220  0.3568  0.6604 -0.2408
   81SAPS  H13X 7596  -0.252   4.316   9.181  2.5355  1.5179 -0.8073
   81SAPS  H13Y 7597  -0.191   4.475   9.232  0.2117  0.5286  1.9371
   81SAPS  C314 7598  -0.357   4.501   9.124 -0.1093  0.1695 -0.0693
   81SAPS  H14X 7599  -0.395   4.590   9.178 -2.6829 -0.5576 -0.5340
   81SAPS  H14Y 7600  -0.446   4.445   9.090 -0.1794 -0.0122  0.4109
   81SAPS  C315 7601  -0.275   4.523   8.990 -0.2561 -0.0541 -0.7511
   81SAPS  H15X 7602  -0.246   4.424   8.948  1.4968  0.6259 -1.2330
   81SAPS  H15Y 7603  -0.186   4.583   9.019 -1.2525  0.9848  0.2319
   81SAPS  C316 7604  -0.362   4.585   8.881  0.3739 -0.6321  0.4512
   81SAPS  H16X 7605  -0.377   4.693   8.899  0.8020 -0.4185 -0.4168
   81SAPS  H16Y 7606  -0.460   4.534   8.877 -0.9584  1.5331  2.8749
   81SAPS  C317 7607  -0.310   4.578   8.734  0.4997 -0.2852 -0.0446
   81SAPS  H17X 7608  -0.314   4.471   8.704 -1.4490  0.6169 -3.5206
   81SAPS  H17Y 7609  -0.204   4.611   8.741  0.7039 -0.6711 -1.1326
   81SAPS  C318 7610  -0.395   4.650   8.624 -0.3119  0.4965 -0.1013
   81SAPS  H18X 7611  -0.412   4.752   8.665  0.3170  0.1611  1.0445
   81SAPS  H18Y 7612  -0.494   4.600   8.619  0.5743 -1.2363 -1.2981
   81SAPS  H18Z 7613  -0.338   4.659   8.529 -1.0730 -1.0030 -0.7233
   82SAPS     N 7614   0.429   4.984  11.357 -0.0413  0.3410 -0.2901
   82SAPS   HN1 7615   0.359   4.921  11.401 -3.6788  4.2951  0.2171
   82SAPS   HN2 7616   0.471   4.948  11.269  0.8018  1.4164 -0.3455
   82SAPS   HN3 7617   0.505   5.003  11.425  1.2919  0.2653 -1.7041
   82SAPS   C12 7618   0.353   5.112  11.325 -1.1728  0.0651  0.3514
   82SAPS  H12A 7619   0.314   5.142  11.421  0.4576  1.3910  0.6327
   82SAPS   C13 7620   0.451   5.219  11.270  0.0448 -0.6695 -0.2280
   82SAPS  O13A 7621   0.569   5.192  11.253 -0.2347  0.4817 -0.1743
   82SAPS  O13B 7622   0.401   5.331  11.241 -0.5076  0.2559 -0.1907
   82SAPS   C11 7623   0.231   5.096  11.226  0.1582 -0.9481 -1.0562
   82SAPS  H11A 7624   0.262   5.046  11.131 -0.8258  0.0091 -1.8979
   82SAPS  H11B 7625   0.192   5.198  11.207  3.1699  0.3515 -0.7722
   82SAPS     P 7626  -0.006   5.013  11.202  0.3191  0.2561  0.2433
   82SAPS   O13 7627  -0.036   4.873  11.171  0.0460  0.2635  0.3726
   82SAPS   O14 7628  -0.115   5.090  11.275  0.6861 -0.3311 -0.0617
   82SAPS   O12 7629   0.130   5.017  11.286  0.3739 -0.4643  0.8303
   82SAPS   O11 7630   0.022   5.085  11.061  0.1868  0.4464  0.9939
   82SAPS    C1 7631  -0.037   5.217  11.033 -0.0412  0.3346  0.1514
   82SAPS    HA 7632  -0.145   5.202  11.014  0.1346 -2.8335  1.0897
   82SAPS    HB 7633  -0.013   5.289  11.114 -0.1467  1.5698 -0.8775
   82SAPS    C2 7634   0.027   5.278  10.907  0.1807  0.5686  0.2468
   82SAPS    HS 7635  -0.021   5.375  10.882 -0.3909 -0.1147 -1.4606
   82SAPS   O21 7636   0.014   5.189  10.798  0.0414 -0.1045  0.3451
   82SAPS   C21 7637  -0.106   5.203  10.740  0.7342 -0.4794  0.3773
   82SAPS   O22 7638  -0.196   5.282  10.767  0.3756  0.4893  0.4133
   82SAPS   C22 7639  -0.120   5.106  10.625 -0.2219  0.3996 -0.0291
   82SAPS   H2R 7640  -0.033   5.038  10.608 -0.3701 -0.0401  0.8718
   82SAPS   H2S 7641  -0.198   5.031  10.651 -1.1773  1.4166  0.0985
   82SAPS    C3 7642   0.180   5.298  10.940  0.2967 -0.3619 -0.2229
   82SAPS    HX 7643   0.213   5.200  10.980  1.9411  0.2910  0.1047
   82SAPS    HY 7644   0.195   5.382  11.012  1.3709  0.7782 -1.7024
   82SAPS   O31 7645   0.247   5.335  10.822 -0.3293 -0.0276  0.6770
   82SAPS   C31 7646   0.308   5.241  10.746  0.6458 -0.2666  0.5847
   82SAPS   O32 7647   0.312   5.120  10.759 -0.5468 -0.1930 -0.5596
   82SAPS   C32 7648   0.388   5.321  10.634  0.5578 -0.2355  0.0552
   82SAPS   H2X 7649   0.444   5.405  10.682 -0.9201  0.7406  0.1373
   82SAPS   H2Y 7650   0.314   5.369  10.566  1.4082 -0.0254 -0.7504
   82SAPS   C23 7651  -0.176   5.174  10.492 -0.1053  0.1851 -0.0396
   82SAPS   H3R 7652  -0.270   5.231  10.508  1.8495  3.9887 -0.9259
   82SAPS   H3S 7653  -0.194   5.097  10.415  2.4242 -0.3527 -0.1822
   82SAPS   C24 7654  -0.088   5.284  10.436  0.2068 -0.4674 -0.4798
   82SAPS   H4R 7655  -0.075   5.367  10.509 -1.7080  1.5356 -2.2638
   82SAPS   H4S 7656  -0.132   5.333  10.346 -0.7584 -1.6749 -0.6959
   82SAPS   C25 7657   0.039   5.223  10.393 -0.0069  0.3865  0.4261
   82SAPS   H5R 7658   0.114   5.232  10.472  0.9556  0.6082 -0.4867
   82SAPS   C26 7659   0.073   5.169  10.278 -0.0643 -0.1229 -0.5800
   82SAPS   H6R 7660   0.178   5.141  10.263 -0.7810 -3.3935 -0.3793
   82SAPS   C27 7661  -0.014   5.153  10.149  0.3522  1.1963  0.2534
   82SAPS   H7R 7662  -0.004   5.244  10.087 -2.5415  1.6253  0.2518
   82SAPS   H7S 7663  -0.123   5.159  10.169  0.3639  2.4099  0.0236
   82SAPS   C28 7664   0.037   5.025  10.084 -0.1042  0.1550 -0.4835
   82SAPS   H8R 7665   0.014   4.936  10.145  1.3522  0.1347  0.0573
   82SAPS   C29 7666   0.102   5.014   9.968 -0.4817 -0.9799 -0.0868
   82SAPS   H9R 7667   0.147   4.917   9.943 -0.3689 -0.9234 -0.1028
   82SAPS  C210 7668   0.144   5.127   9.875 -0.1885 -0.5976  0.2363
   82SAPS  H10R 7669   0.251   5.108   9.850 -0.3927 -2.3843  0.5663
   82SAPS  H10S 7670   0.140   5.227   9.923 -0.3624 -0.1970 -0.5883
   82SAPS  C211 7671   0.062   5.138   9.748 -0.7008 -0.1677 -0.4903
   82SAPS  H11R 7672  -0.045   5.121   9.765 -0.3526 -3.3294 -0.8294
   82SAPS  C212 7673   0.115   5.151   9.624  0.3095 -0.4899  0.4118
   82SAPS  H12R 7674   0.043   5.152   9.541  0.6255 -1.6552  0.1084
   82SAPS  C213 7675   0.254   5.159   9.579  0.1724  0.5264 -0.5678
   82SAPS  H13R 7676   0.328   5.169   9.661 -1.9568  1.4024  1.3335
   82SAPS  H13S 7677   0.265   5.251   9.517 -1.5363  0.3395 -1.1790
   82SAPS  C214 7678   0.288   5.042   9.485  0.1542 -0.1319 -0.3451
   82SAPS  H14R 7679   0.333   4.959   9.542  2.1020  2.1573  1.6815
   82SAPS  C215 7680   0.279   5.041   9.353 -0.4494 -0.2159  0.0178
   82SAPS  H15R 7681   0.303   4.946   9.302 -2.4199 -0.2812 -0.8946
   82SAPS  C216 7682   0.226   5.159   9.273  0.1616  0.6754  0.8507
   82SAPS  H16R 7683   0.153   5.207   9.342 -1.0375 -0.6458  0.5356
   82SAPS  H16S 7684   0.164   5.127   9.187  2.5054 -1.5868 -0.1121
   82SAPS  C217 7685   0.341   5.253   9.219  0.4544  0.4983 -0.9645
   82SAPS  H17R 7686   0.414   5.197   9.156  1.2521  0.8649 -0.3887
   82SAPS  H17S 7687   0.397   5.285   9.310  0.1308 -2.1013  0.2503
   82SAPS  C218 7688   0.286   5.380   9.143  1.2046  0.1222  0.0720
   82SAPS  H18R 7689   0.381   5.438   9.136  2.8014 -2.1499  1.5563
   82SAPS  H18S 7690   0.204   5.433   9.196 -1.1544 -1.5914 -1.6563
   82SAPS  C219 7691   0.231   5.344   9.008 -0.1689 -0.3738  0.1561
   82SAPS  H19R 7692   0.125   5.309   9.015  0.0026 -0.8776  0.3065
   82SAPS  H19S 7693   0.303   5.277   8.957  1.0020  0.5242  0.6030
   82SAPS  C220 7694   0.223   5.466   8.926  0.1906 -0.0110 -0.0782
   82SAPS  H20R 7695   0.210   5.560   8.984  0.3102 -0.6104  0.9407
   82SAPS  H20S 7696   0.149   5.459   8.843 -1.3569 -0.1652  1.2541
   82SAPS  H20T 7697   0.322   5.481   8.879  2.6744 -2.3925  3.8473
   82SAPS   C33 7698   0.486   5.230  10.546 -0.6585 -0.4369  0.3849
   82SAPS   H3X 7699   0.528   5.155  10.617 -1.8833 -0.2690  1.3240
   82SAPS   H3Y 7700   0.574   5.298  10.544  0.7595 -2.1872  1.0106
   82SAPS   C34 7701   0.439   5.182  10.409 -0.0478 -0.4132  0.4755
   82SAPS   H4X 7702   0.411   5.265  10.340  0.3631 -0.6024  0.0783
   82SAPS   H4Y 7703   0.347   5.120  10.415  0.3928 -1.1246  0.0505
   82SAPS   C35 7704   0.532   5.096  10.327 -0.4090  0.1248  0.1406
   82SAPS   H5X 7705   0.547   5.000  10.379 -0.4961 -1.0498 -1.8805
   82SAPS   H5Y 7706   0.629   5.148  10.317 -1.1498  1.4238 -0.6815
   82SAPS   C36 7707   0.483   5.073  10.178 -1.2009  0.4410 -0.0699
   82SAPS   H6X 7708   0.460   5.173  10.136 -0.2923  0.9897  0.7136
   82SAPS   H6Y 7709   0.392   5.009  10.181  0.0858 -1.4981 -0.8075
   82SAPS   C37 7710   0.590   5.008  10.090  0.1340 -0.2025 -0.0347
   82SAPS   H7X 7711   0.607   4.905  10.127  0.8528  0.7610  2.5464
   82SAPS   H7Y 7712   0.680   5.073  10.090 -0.6768  0.9440  0.2566
   82SAPS   C38 7713   0.543   5.002   9.937  0.6355  0.2635  0.3930
   82SAPS   H8X 7714   0.530   5.106   9.900  0.3390 -0.6055 -2.1416
   82SAPS   H8Y 7715   0.445   4.948   9.930  0.3780  0.3887  2.4385
   82SAPS   C39 7716   0.646   4.924   9.850 -0.1385 -0.2347  0.4775
   82SAPS   H9X 7717   0.652   4.818   9.885  0.3092 -1.6032 -3.2792
   82SAPS   H9Y 7718   0.741   4.980   9.853  0.3697 -1.1053  1.1097
   82SAPS  C310 7719   0.609   4.913   9.698 -0.9448 -0.0588  0.2701
   82SAPS  H10X 7720   0.635   5.002   9.636 -0.1378 -0.2128  0.3756
   82SAPS  H10Y 7721   0.500   4.893   9.694 -1.3579  1.7778  1.1443
   82SAPS  C311 7722   0.688   4.798   9.641 -1.1134 -0.1343  0.0301
   82SAPS  H11X 7723   0.659   4.699   9.683 -2.5313 -0.4712 -1.5794
   82SAPS  H11Y 7724   0.795   4.817   9.660 -1.4600  0.3179  1.6977
   82SAPS  C312 7725   0.663   4.764   9.488  0.0350 -0.4123  0.2855
   82SAPS  H12X 7726   0.568   4.707   9.481  1.7468 -3.3856 -0.6712
   82SAPS  H12Y 7727   0.743   4.699   9.447  3.6512  2.3616  2.3418
   82SAPS  C313 7728   0.658   4.887   9.406 -0.1593 -0.3638  0.2907
   82SAPS  H13X 7729   0.755   4.940   9.393 -1.4158  2.2464  0.9088
   82SAPS  H13Y 7730   0.585   4.960   9.446  0.5418  1.3519 -1.4025
   82SAPS  C314 7731   0.600   4.845   9.261 -0.4522  0.2866  0.4985
   82SAPS  H14X 7732   0.495   4.822   9.287 -1.0868  0.6643 -1.5571
   82SAPS  H14Y 7733   0.670   4.770   9.218 -0.2659  0.4888  0.4446
   82SAPS  C315 7734   0.604   4.969   9.174  0.0819  0.2588 -0.2443
   82SAPS  H15X 7735   0.589   5.063   9.232 -0.0716  1.8589 -2.7239
   82SAPS  H15Y 7736   0.522   4.953   9.101 -1.4512  0.4167  1.3780
   82SAPS  C316 7737   0.729   4.969   9.084  0.3797 -0.1545  0.2252
   82SAPS  H16X 7738   0.749   4.873   9.031 -0.9813  0.1580 -0.8837
   82SAPS  H16Y 7739   0.813   4.989   9.154 -0.5054  0.6216  1.0867
   82SAPS  C317 7740   0.715   5.078   8.973  0.1425  0.0440  0.5881
   82SAPS  H17X 7741   0.676   5.173   9.016  0.8542  0.6294 -0.0315
   82SAPS  H17Y 7742   0.633   5.051   8.903 -0.7569  0.1605  1.5624
   82SAPS  C318 7743   0.847   5.100   8.899 -0.5506  0.0449  0.6716
   82SAPS  H18X 7744   0.833   5.183   8.827 -2.6331  0.4342  1.4441
   82SAPS  H18Y 7745   0.887   5.011   8.844 -0.5745  0.3847  0.0941
   82SAPS  H18Z 7746   0.921   5.127   8.976  1.1788 -0.3634 -0.7775
   83SAPS     N 7747   6.346   4.273  10.990  0.2959  0.2313 -0.1281
   83SAPS   HN1 7748   6.426   4.297  10.928  0.8463 -1.5801 -0.1657
   83SAPS   HN2 7749   6.328   4.171  10.984  0.8133  0.2150 -2.3489
   83SAPS   HN3 7750   6.266   4.330  10.955 -0.1842  0.0006  0.5811
   83SAPS   C12 7751   6.376   4.319  11.134 -1.0265  0.2241 -0.7677
   83SAPS  H12A 7752   6.293   4.284  11.193  0.3175 -0.5273  0.7666
   83SAPS   C13 7753   6.503   4.250  11.191  0.4769 -0.3507 -0.4631
   83SAPS  O13A 7754   6.568   4.172  11.125 -0.0825 -0.5704 -0.4563
   83SAPS  O13B 7755   6.541   4.279  11.306  0.0598  0.0045  0.6382
   83SAPS   C11 7756   6.378   4.472  11.148 -0.2383 -0.1921 -0.3955
   83SAPS  H11A 7757   6.474   4.514  11.111 -0.3549 -1.6510 -2.5148
   83SAPS  H11B 7758   6.380   4.474  11.259  1.2006 -0.7861 -0.3858
   83SAPS     P 7759   6.225   4.673  11.148  0.5641  0.6662  0.2723
   83SAPS   O13 7760   6.126   4.733  11.055 -0.7598 -0.3533 -0.2367
   83SAPS   O14 7761   6.193   4.665  11.289  0.3691 -0.8132 -0.3825
   83SAPS   O12 7762   6.267   4.536  11.092 -0.5382  0.0361  0.1022
   83SAPS   O11 7763   6.358   4.755  11.135  0.0344 -0.1635 -0.3443
   83SAPS    C1 7764   6.363   4.893  11.114 -0.0886 -0.7933 -0.0736
   83SAPS    HA 7765   6.273   4.949  11.146  1.2665  1.1656  0.5576
   83SAPS    HB 7766   6.440   4.929  11.186  1.5339 -1.7788 -1.2431
   83SAPS    C2 7767   6.402   4.929  10.969  0.2513  0.0146 -0.4347
   83SAPS    HS 7768   6.433   5.036  10.975  2.1909 -0.5638  1.2983
   83SAPS   O21 7769   6.291   4.918  10.883  0.1842  0.2201  0.3680
   83SAPS   C21 7770   6.208   5.017  10.885  0.7323  0.0420 -0.6967
   83SAPS   O22 7771   6.219   5.120  10.951 -0.2679 -0.2684  0.4545
   83SAPS   C22 7772   6.087   4.982  10.803  0.0545 -0.2966  0.2488
   83SAPS   H2R 7773   6.081   4.876  10.771 -1.2053 -1.7394  4.5864
   83SAPS   H2S 7774   6.005   4.996  10.878 -0.6501 -0.0053 -0.5548
   83SAPS    C3 7775   6.514   4.842  10.910 -0.4371  0.2014 -0.5581
   83SAPS    HX 7776   6.496   4.735  10.935 -0.9676 -0.2481 -2.6591
   83SAPS    HY 7777   6.617   4.873  10.940 -0.4936 -0.2170  0.1021
   83SAPS   O31 7778   6.510   4.843  10.766  0.4786  0.0645 -0.5834
   83SAPS   C31 7779   6.566   4.731  10.709  0.4789  0.3435  0.8045
   83SAPS   O32 7780   6.614   4.637  10.776 -0.7734 -0.7030  0.1717
   83SAPS   C32 7781   6.534   4.724  10.559 -0.0638 -0.1611 -0.3535
   83SAPS   H2X 7782   6.468   4.812  10.544 -3.0408 -1.6296  2.6552
   83SAPS   H2Y 7783   6.477   4.630  10.546  0.6344 -0.5059 -0.9706
   83SAPS   C23 7784   6.064   5.089  10.688  0.1841  0.6295  0.3118
   83SAPS   H3R 7785   6.045   5.191  10.726 -0.5805  1.9217 -3.1775
   83SAPS   H3S 7786   5.969   5.073  10.632 -0.0473 -0.1996  0.9164
   83SAPS   C24 7787   6.176   5.086  10.587 -0.3354  0.0586  0.0232
   83SAPS   H4R 7788   6.180   4.983  10.547 -0.1907  0.9550 -2.3931
   83SAPS   H4S 7789   6.275   5.118  10.625 -0.5375  2.5964 -1.3790
   83SAPS   C25 7790   6.154   5.186  10.469 -0.7910 -0.0576  0.5999
   83SAPS   H5R 7791   6.140   5.291  10.500  0.1630 -0.0738  1.1379
   83SAPS   C26 7792   6.162   5.162  10.331  1.2790 -0.5305 -0.0309
   83SAPS   H6R 7793   6.140   5.251  10.270 -0.1379  0.3346  1.6525
   83SAPS   C27 7794   6.208   5.024  10.273 -0.0138 -0.0234 -0.2706
   83SAPS   H7R 7795   6.121   4.962  10.242  1.3579 -1.9162 -0.4828
   83SAPS   H7S 7796   6.261   4.956  10.343 -2.0354  0.3187  1.7085
   83SAPS   C28 7797   6.303   5.044  10.158 -0.5774 -0.7650 -0.6717
   83SAPS   H8R 7798   6.405   5.065  10.191 -1.2227  4.7882 -1.2787
   83SAPS   C29 7799   6.282   5.021  10.022 -0.8982 -0.1465 -0.2021
   83SAPS   H9R 7800   6.370   5.035   9.958 -0.9892  1.4857 -0.0177
   83SAPS  C210 7801   6.156   4.988   9.943 -0.2814  0.2428 -0.1777
   83SAPS  H10R 7802   6.083   4.956  10.020 -0.6834 -0.5443 -0.8674
   83SAPS  H10S 7803   6.181   4.895   9.888  0.6780 -0.9300  2.1033
   83SAPS  C211 7804   6.107   5.102   9.857  0.5071 -0.6995  1.2951
   83SAPS  H11R 7805   6.036   5.169   9.908  3.2236  1.7074  2.2129
   83SAPS  C212 7806   6.130   5.123   9.723 -0.4903 -0.2303 -0.1557
   83SAPS  H12R 7807   6.091   5.215   9.676  1.5285  1.1223  0.6607
   83SAPS  C213 7808   6.231   5.040   9.636  0.0524  0.0168  0.2448
   83SAPS  H13R 7809   6.172   4.960   9.587  3.3609 -2.3734 -0.2100
   83SAPS  H13S 7810   6.304   4.989   9.703 -0.3598 -0.1220  0.5964
   83SAPS  C214 7811   6.317   5.134   9.551 -0.0535  0.0863  0.1402
   83SAPS  H14R 7812   6.413   5.164   9.596 -0.7655  1.1898  0.9764
   83SAPS  C215 7813   6.275   5.178   9.430  0.0953 -0.3589 -0.4489
   83SAPS  H15R 7814   6.342   5.235   9.363  0.1727  0.9301  0.6780
   83SAPS  C216 7815   6.135   5.147   9.378  0.1815  0.1130  0.1576
   83SAPS  H16R 7816   6.060   5.186   9.450 -0.2725 -0.3536 -0.0547
   83SAPS  H16S 7817   6.126   5.040   9.352  1.0771  0.7117 -3.1454
   83SAPS  C217 7818   6.098   5.214   9.239 -0.1574 -0.6625 -0.5323
   83SAPS  H17R 7819   5.994   5.185   9.216 -0.3244 -0.5664  0.0849
   83SAPS  H17S 7820   6.164   5.160   9.167 -0.8730 -1.8909 -0.2807
   83SAPS  C218 7821   6.108   5.376   9.219 -0.0963  0.1286 -0.5020
   83SAPS  H18R 7822   6.217   5.401   9.225  0.0232  0.0527 -2.0957
   83SAPS  H18S 7823   6.035   5.428   9.285  0.0364 -0.1495 -0.1289
   83SAPS  C219 7824   6.065   5.423   9.083 -0.3266 -0.6182 -0.6086
   83SAPS  H19R 7825   5.955   5.409   9.071 -0.5279 -0.1456  0.5842
   83SAPS  H19S 7826   6.118   5.360   9.008 -0.7782 -1.6891 -0.0499
   83SAPS  C220 7827   6.114   5.563   9.052 -0.1381  0.3375  0.3204
   83SAPS  H20R 7828   6.220   5.574   9.020 -0.9806  1.5030 -2.2908
   83SAPS  H20S 7829   6.090   5.625   9.141  0.4449  0.5099  0.3631
   83SAPS  H20T 7830   6.058   5.601   8.965  0.7683 -0.9596 -0.8833
   83SAPS   C33 7831   6.668   4.723  10.479 -0.6132  1.5636  0.6192
   83SAPS   H3X 7832   6.706   4.618  10.487 -1.5313  1.1970  0.2264
   83SAPS   H3Y 7833   6.742   4.796  10.518 -0.8774  2.0501  0.2067
   83SAPS   C34 7834   6.662   4.757  10.332 -0.2091  0.3370  0.4651
   83SAPS   H4X 7835   6.762   4.723  10.299  0.0635 -1.7361  3.0603
   83SAPS   H4Y 7836   6.648   4.866  10.320  0.0265  0.3819  0.5841
   83SAPS   C35 7837   6.551   4.690  10.259  0.1343 -0.1501  0.7831
   83SAPS   H5X 7838   6.461   4.754  10.267  0.2632  0.2088 -0.3898
   83SAPS   H5Y 7839   6.533   4.593  10.309  0.9842 -0.8276 -0.1704
   83SAPS   C36 7840   6.565   4.649  10.112 -1.1486 -0.2979 -0.2958
   83SAPS   H6X 7841   6.500   4.560  10.094 -1.2444 -0.8320  2.2925
   83SAPS   H6Y 7842   6.666   4.611  10.086 -0.8116  0.6778 -0.4692
   83SAPS   C37 7843   6.525   4.748  10.001  0.4567 -0.2580  0.2355
   83SAPS   H7X 7844   6.582   4.840  10.025 -0.6773  0.8758 -1.2543
   83SAPS   H7Y 7845   6.418   4.765  10.026  0.7700 -0.3815  1.7801
   83SAPS   C38 7846   6.538   4.691   9.860 -0.1163 -0.5112  1.0132
   83SAPS   H8X 7847   6.460   4.614   9.843 -1.4163  0.7498  1.0336
   83SAPS   H8Y 7848   6.645   4.673   9.837  0.5569  3.1758  0.6323
   83SAPS   C39 7849   6.513   4.790   9.744  0.4067 -0.7423  0.3856
   83SAPS   H9X 7850   6.561   4.890   9.749  1.9812 -1.4070 -0.6601
   83SAPS   H9Y 7851   6.403   4.810   9.746  0.4605  0.1383 -2.1406
   83SAPS  C310 7852   6.542   4.726   9.607  0.4070  0.2806 -0.4149
   83SAPS  H10X 7853   6.470   4.643   9.590  0.2987  0.1266  0.7216
   83SAPS  H10Y 7854   6.647   4.688   9.605  0.8973  1.5239  0.4248
   83SAPS  C311 7855   6.530   4.831   9.497 -0.3645  0.4948 -0.4330
   83SAPS  H11X 7856   6.628   4.884   9.492  1.1386 -2.1531 -1.5585
   83SAPS  H11Y 7857   6.441   4.897   9.508 -0.9199 -0.1465 -0.9504
   83SAPS  C312 7858   6.515   4.764   9.356 -0.4189 -0.1109 -0.1131
   83SAPS  H12X 7859   6.419   4.709   9.366 -1.6262  2.1036  1.1776
   83SAPS  H12Y 7860   6.592   4.686   9.335  1.2122  0.6236  2.6323
   83SAPS  C313 7861   6.513   4.860   9.241  0.2364  0.6404  0.4841
   83SAPS  H13X 7862   6.445   4.944   9.267  3.1856  2.7192  2.0712
   83SAPS  H13Y 7863   6.477   4.817   9.145 -1.5761  1.5420  0.6941
   83SAPS  C314 7864   6.656   4.919   9.210  0.0566  0.4455 -0.1952
   83SAPS  H14X 7865   6.733   4.839   9.208  0.1821  0.5042  1.2016
   83SAPS  H14Y 7866   6.693   4.985   9.291 -1.9309  0.3716  0.8394
   83SAPS  C315 7867   6.664   5.002   9.081  0.4567 -0.2180  0.0481
   83SAPS  H15X 7868   6.765   5.049   9.076  0.0621  0.7521  0.9905
   83SAPS  H15Y 7869   6.593   5.086   9.095 -1.0379 -1.7661  2.4030
   83SAPS  C316 7870   6.634   4.931   8.949  0.3077  0.1745  0.7343
   83SAPS  H16X 7871   6.532   4.889   8.963  0.2629 -0.2679 -0.8036
   83SAPS  H16Y 7872   6.698   4.845   8.922  1.6935  1.7919 -1.4372
   83SAPS  C317 7873   6.634   5.020   8.825  0.0955 -0.5201  0.1931
   83SAPS  H17X 7874   6.723   5.086   8.814 -0.8134  0.5600 -0.9180
   83SAPS  H17Y 7875   6.556   5.099   8.818 -1.7000 -2.1852  0.6288
   83SAPS  C318 7876   6.607   4.939   8.696 -0.2538 -0.0111  0.2159
   83SAPS  H18X 7877   6.591   5.003   8.607 -0.8750  0.3595  0.5927
   83SAPS  H18Y 7878   6.519   4.877   8.724  1.3061 -1.7119  1.6428
   83SAPS  H18Z 7879   6.700   4.881   8.674  0.0030  1.0188 -1.6448
   84SAPS     N 7880   1.665   4.844  11.072 -0.0184  0.4122  0.0247
   84SAPS   HN1 7881   1.707   4.838  10.976 -2.0700 -0.6497 -0.8638
   84SAPS   HN2 7882   1.562   4.833  11.064 -0.1830  2.1741 -0.9255
   84SAPS   HN3 7883   1.683   4.944  11.097  0.3476  0.0958  1.0613
   84SAPS   C12 7884   1.722   4.767  11.185 -0.1352  0.1395  0.4799
   84SAPS  H12A 7885   1.828   4.785  11.176 -0.1724 -0.2792 -1.0353
   84SAPS   C13 7886   1.657   4.812  11.323  0.1318 -1.5900 -0.4923
   84SAPS  O13A 7887   1.566   4.896  11.319 -0.1361 -0.1610 -0.1869
   84SAPS  O13B 7888   1.716   4.782  11.422  0.1865 -0.0042 -0.6757
   84SAPS   C11 7889   1.694   4.618  11.148  0.1856  0.0243 -0.2556
   84SAPS  H11A 7890   1.733   4.559  11.234  0.5985  0.3464 -0.2202
   84SAPS  H11B 7891   1.746   4.595  11.052  0.7185  1.6318 -0.3762
   84SAPS     P 7892   1.493   4.468  11.062  0.2046 -0.2116  0.4243
   84SAPS   O13 7893   1.536   4.346  11.131 -0.5945  0.3965 -0.1792
   84SAPS   O14 7894   1.348   4.489  11.044  0.4509  0.6839 -0.2318
   84SAPS   O12 7895   1.549   4.595  11.140  0.1940  0.3984  0.2649
   84SAPS   O11 7896   1.569   4.473  10.920  0.3534  0.2226 -0.9920
   84SAPS    C1 7897   1.506   4.428  10.800 -0.5448 -0.0238  0.0546
   84SAPS    HA 7898   1.397   4.417  10.817 -0.7448  2.8060  1.1092
   84SAPS    HB 7899   1.518   4.503  10.719 -0.9181  0.7781  0.7385
   84SAPS    C2 7900   1.567   4.292  10.773  0.5035  0.8961  0.3324
   84SAPS    HS 7901   1.562   4.227  10.863 -0.2651  0.5028  0.0148
   84SAPS   O21 7902   1.699   4.312  10.728 -1.0156  0.1677  0.0040
   84SAPS   C21 7903   1.780   4.205  10.738  0.3146  0.7478 -0.1108
   84SAPS   O22 7904   1.743   4.094  10.770 -0.3109 -0.1241  0.0990
   84SAPS   C22 7905   1.922   4.244  10.693 -0.1277 -0.1037 -0.4392
   84SAPS   H2R 7906   1.958   4.292  10.787 -0.3669 -1.1351  0.1905
   84SAPS   H2S 7907   1.983   4.153  10.674  1.9255  1.1117 -0.0122
   84SAPS    C3 7908   1.466   4.218  10.673  0.4596  0.5518  0.1300
   84SAPS    HX 7909   1.368   4.221  10.727  0.8579 -1.2272  1.0210
   84SAPS    HY 7910   1.493   4.111  10.681 -1.6851 -0.3466 -2.7067
   84SAPS   O31 7911   1.466   4.278  10.537 -0.4795  0.3523 -0.3078
   84SAPS   C31 7912   1.532   4.201  10.457 -0.0164  0.4505 -0.7570
   84SAPS   O32 7913   1.565   4.085  10.476 -0.4912 -0.3471 -0.1743
   84SAPS   C32 7914   1.586   4.280  10.338 -0.1234 -0.1178  0.6777
   84SAPS   H2X 7915   1.654   4.213  10.280 -1.0676 -2.6121  2.2554
   84SAPS   H2Y 7916   1.647   4.358  10.388 -1.5801  1.6733 -0.2057
   84SAPS   C23 7917   1.943   4.348  10.584 -0.4508  0.1854  0.1472
   84SAPS   H3R 7918   2.037   4.404  10.605 -0.2817 -0.2024  0.4333
   84SAPS   H3S 7919   1.862   4.425  10.589 -2.3441 -1.5521 -1.7528
   84SAPS   C24 7920   1.945   4.280  10.442  0.7060 -0.1284  0.1630
   84SAPS   H4R 7921   1.849   4.224  10.437  1.2168 -1.1071  0.9755
   84SAPS   H4S 7922   2.027   4.205  10.442 -2.4608 -3.9293 -0.2251
   84SAPS   C25 7923   1.959   4.382  10.328  0.3855 -0.1494 -0.0867
   84SAPS   H5R 7924   1.863   4.405  10.278  0.0753  1.3163  1.0992
   84SAPS   C26 7925   2.070   4.440  10.278 -0.3336  1.2111 -0.2920
   84SAPS   H6R 7926   2.061   4.517  10.201  0.5187  0.5842 -1.0358
   84SAPS   C27 7927   2.207   4.401  10.337 -0.2766  0.3200 -0.0473
   84SAPS   H7R 7928   2.223   4.293  10.319 -2.9697 -0.1271 -0.1992
   84SAPS   H7S 7929   2.208   4.430  10.445  0.1887  3.2071 -0.7407
   84SAPS   C28 7930   2.321   4.487  10.276  0.1863 -0.1030  0.1367
   84SAPS   H8R 7931   2.363   4.560  10.348  1.2872 -0.9812  0.4088
   84SAPS   C29 7932   2.371   4.481  10.154 -0.6454  0.8092  0.5452
   84SAPS   H9R 7933   2.441   4.562  10.128 -1.6123  1.1393 -1.2268
   84SAPS  C210 7934   2.338   4.389  10.040  0.1997  0.0924  0.7981
   84SAPS  H10R 7935   2.292   4.292  10.069 -1.4312 -0.0778 -1.9268
   84SAPS  H10S 7936   2.428   4.364   9.980 -0.3166  1.9350 -0.8324
   84SAPS  C211 7937   2.239   4.460   9.954  0.3763 -0.8169 -0.4275
   84SAPS  H11R 7938   2.141   4.478   9.999 -0.3150 -1.2591 -1.7246
   84SAPS  C212 7939   2.237   4.478   9.824 -0.5758 -0.0042 -0.2467
   84SAPS  H12R 7940   2.161   4.537   9.770  1.2465  1.6808 -1.1052
   84SAPS  C213 7941   2.338   4.417   9.728 -0.8102 -0.6441  0.0650
   84SAPS  H13R 7942   2.390   4.323   9.760  2.1477  0.7932 -0.1366
   84SAPS  H13S 7943   2.412   4.497   9.708 -3.2915  1.5860 -0.6692
   84SAPS  C214 7944   2.285   4.391   9.593  0.2858  0.0006 -0.4228
   84SAPS  H14R 7945   2.275   4.283   9.575 -0.0145 -0.0449  0.0045
   84SAPS  C215 7946   2.258   4.481   9.492 -0.3803  0.4672  0.2324
   84SAPS  H15R 7947   2.224   4.443   9.395 -0.0503  2.9311 -0.9373
   84SAPS  C216 7948   2.277   4.628   9.497 -0.6198  0.5445 -0.3464
   84SAPS  H16R 7949   2.360   4.659   9.430 -1.8528 -0.6155 -2.5289
   84SAPS  H16S 7950   2.303   4.666   9.599 -0.8859  1.8103 -0.7303
   84SAPS  C217 7951   2.149   4.700   9.455 -0.2565 -0.9666 -0.0495
   84SAPS  H17R 7952   2.064   4.645   9.500  0.8070 -1.6266  1.2139
   84SAPS  H17S 7953   2.124   4.690   9.347 -0.8928 -1.9835  0.1802
   84SAPS  C218 7954   2.151   4.848   9.495 -0.3814  0.2066 -0.7693
   84SAPS  H18R 7955   2.219   4.906   9.428  1.0903  0.0514  0.5266
   84SAPS  H18S 7956   2.202   4.828   9.592  1.1578  0.2732 -1.5273
   84SAPS  C219 7957   2.008   4.901   9.490  0.6134  0.2348  0.3410
   84SAPS  H19R 7958   1.947   4.837   9.558 -0.0004  1.4878  1.0099
   84SAPS  H19S 7959   1.961   4.900   9.389 -1.5247  0.5577  1.2622
   84SAPS  C220 7960   1.999   5.046   9.535  0.4114 -0.4078  0.0897
   84SAPS  H20R 7961   2.019   5.122   9.455 -0.8531  1.1567  1.1973
   84SAPS  H20S 7962   2.054   5.068   9.629  0.6840  2.8439 -0.6764
   84SAPS  H20T 7963   1.891   5.054   9.556 -0.1022  0.7788 -2.4979
   84SAPS   C33 7964   1.476   4.348  10.262  0.1804 -0.1433  0.3471
   84SAPS   H3X 7965   1.518   4.422  10.189  1.5131 -1.9892 -0.8424
   84SAPS   H3Y 7966   1.412   4.404  10.333  0.1993  1.4134 -0.7951
   84SAPS   C34 7967   1.385   4.248  10.177  0.2217 -0.2127 -0.0193
   84SAPS   H4X 7968   1.298   4.310  10.148 -0.2107  0.7149  2.9450
   84SAPS   H4Y 7969   1.353   4.165  10.244 -0.5345  1.5316  1.8709
   84SAPS   C35 7970   1.456   4.178  10.061  0.4919  0.6805  0.0767
   84SAPS   H5X 7971   1.498   4.079  10.090 -0.3395 -0.0214 -1.0204
   84SAPS   H5Y 7972   1.541   4.241  10.028 -0.7401  2.5996  0.4065
   84SAPS   C36 7973   1.360   4.168   9.939 -0.6686 -0.1499  0.0936
   84SAPS   H6X 7974   1.317   4.270   9.933 -1.6149 -0.4822  0.8782
   84SAPS   H6Y 7975   1.273   4.101   9.960  0.3225 -1.8280 -0.9297
   84SAPS   C37 7976   1.433   4.121   9.811  0.1632  0.0662 -0.5211
   84SAPS   H7X 7977   1.452   4.013   9.822 -0.4373  0.1776  2.5912
   84SAPS   H7Y 7978   1.536   4.164   9.817  0.6953 -1.0519 -1.4629
   84SAPS   C38 7979   1.365   4.161   9.682 -0.6554  0.1258 -0.1825
   84SAPS   H8X 7980   1.380   4.270   9.690 -2.0531  0.2237  1.7951
   84SAPS   H8Y 7981   1.256   4.138   9.678 -0.8915  0.5119  2.5118
   84SAPS   C39 7982   1.444   4.106   9.562 -0.5945  1.0347  0.0502
   84SAPS   H9X 7983   1.408   4.008   9.524  1.1553 -0.0273  1.0106
   84SAPS   H9Y 7984   1.550   4.086   9.591 -0.0756  3.1133 -0.2708
   84SAPS  C310 7985   1.444   4.201   9.440  0.2041  0.0195 -0.2279
   84SAPS  H10X 7986   1.481   4.299   9.477 -1.4493  0.3823  0.5554
   84SAPS  H10Y 7987   1.341   4.215   9.400  0.9085  2.4082 -1.3891
   84SAPS  C311 7988   1.529   4.154   9.329  0.2361 -0.9353 -0.1154
   84SAPS  H11X 7989   1.496   4.057   9.288 -0.3313 -0.4248 -0.8827
   84SAPS  H11Y 7990   1.637   4.152   9.354  0.6708  2.6136 -1.0845
   84SAPS  C312 7991   1.517   4.256   9.210 -0.3758  0.4106 -0.3896
   84SAPS  H12X 7992   1.583   4.343   9.233 -0.0439  0.3400 -1.0291
   84SAPS  H12Y 7993   1.416   4.289   9.181 -0.3136  1.0447  0.0942
   84SAPS  C313 7994   1.572   4.196   9.081  0.1460 -0.4711  0.9886
   84SAPS  H13X 7995   1.517   4.104   9.052  0.5035  0.3495 -2.8875
   84SAPS  H13Y 7996   1.680   4.171   9.093  0.6320 -0.6183 -2.6492
   84SAPS  C314 7997   1.562   4.294   8.966  0.3920  0.2823  0.1367
   84SAPS  H14X 7998   1.626   4.384   8.980  2.0254 -0.5467 -1.6136
   84SAPS  H14Y 7999   1.460   4.337   8.969  0.6297  0.8863 -0.1921
   84SAPS  C315 8000   1.576   4.232   8.834  0.6836  0.0362  0.1970
   84SAPS  H15X 8001   1.548   4.300   8.751 -0.9243  0.0345  0.7081
   84SAPS  H15Y 8002   1.496   4.155   8.826  0.4678  0.1442  1.2966
   84SAPS  C316 8003   1.715   4.175   8.798  0.0853 -0.3957  0.9393
   84SAPS  H16X 8004   1.746   4.098   8.872 -0.1867 -1.4455 -0.0144
   84SAPS  H16Y 8005   1.786   4.260   8.805  1.3281 -1.0990 -1.8841
   84SAPS  C317 8006   1.729   4.107   8.659 -0.1181 -0.7114 -0.0111
   84SAPS  H17X 8007   1.832   4.067   8.656  0.1141 -0.0627 -1.3539
   84SAPS  H17Y 8008   1.733   4.184   8.579  0.5315  0.8496  1.4634
   84SAPS  C318 8009   1.629   3.999   8.626 -0.1569  0.3067 -0.4717
   84SAPS  H18X 8010   1.630   3.967   8.519 -4.3140 -1.9007 -0.0508
   84SAPS  H18Y 8011   1.525   4.038   8.632 -0.6553 -0.6977 -1.9987
   84SAPS  H18Z 8012   1.634   3.904   8.683  2.1826  0.5344 -0.2001
   85SAPS     N 8013   5.193   0.190  11.018 -0.3059 -0.2763 -0.0104
   85SAPS   HN1 8014   5.152   0.236  10.934  0.9376  0.7880 -0.0791
   85SAPS   HN2 8015   5.290   0.172  10.985 -0.3047 -1.0394  0.4006
   85SAPS   HN3 8016   5.139   0.105  11.041  0.3500 -0.7080 -0.0282
   85SAPS   C12 8017   5.196   0.273  11.141 -0.3252  0.1957 -0.2747
   85SAPS  H12A 8018   5.092   0.274  11.169 -0.4671 -0.6989 -0.7281
   85SAPS   C13 8019   5.282   0.217  11.258 -0.5563  0.0570  0.0171
   85SAPS  O13A 8020   5.341   0.107  11.244  0.0888  0.1656 -0.0527
   85SAPS  O13B 8021   5.265   0.272  11.373  0.0171 -0.0438 -0.0591
   85SAPS   C11 8022   5.249   0.412  11.090 -0.7335 -0.2683 -0.2908
   85SAPS  H11A 8023   5.244   0.477  11.180  1.6514 -0.3062 -0.0803
   85SAPS  H11B 8024   5.171   0.455  11.023 -0.4690  1.0642  0.2366
   85SAPS     P 8025   5.486   0.508  11.007 -0.1804  0.3790 -0.7257
   85SAPS   O13 8026   5.421   0.633  10.969 -0.4759 -0.3467 -0.1683
   85SAPS   O14 8027   5.563   0.503  11.133 -0.6609  0.0816  0.3731
   85SAPS   O12 8028   5.374   0.399  11.020 -0.6514  0.1211  0.4692
   85SAPS   O11 8029   5.578   0.463  10.889 -0.8386  0.1782 -0.2505
   85SAPS    C1 8030   5.584   0.330  10.833 -0.2971 -0.1816  0.0181
   85SAPS    HA 8031   5.575   0.253  10.913  0.5876 -0.9625 -0.5947
   85SAPS    HB 8032   5.499   0.319  10.763 -1.3067 -0.2166  1.2103
   85SAPS    C2 8033   5.720   0.309  10.757  0.4858 -1.0623 -0.2306
   85SAPS    HS 8034   5.792   0.301  10.841 -0.1701  1.7591  0.6928
   85SAPS   O21 8035   5.745   0.419  10.671  0.5458 -0.7683 -0.3067
   85SAPS   C21 8036   5.878   0.450  10.666 -0.7256  0.3739 -0.4737
   85SAPS   O22 8037   5.962   0.391  10.734 -0.8219  0.2136 -0.4383
   85SAPS   C22 8038   5.900   0.567  10.570  0.5931  0.0927 -0.1007
   85SAPS   H2R 8039   5.816   0.547  10.501  0.0969 -1.2033  0.8349
   85SAPS   H2S 8040   5.874   0.665  10.616 -0.5623 -0.6418  0.8696
   85SAPS    C3 8041   5.711   0.175  10.679  0.4306 -1.0364  0.2829
   85SAPS    HX 8042   5.653   0.209  10.591  2.0993  1.0404 -0.1088
   85SAPS    HY 8043   5.652   0.094  10.727 -1.9492 -0.4404 -1.5003
   85SAPS   O31 8044   5.847   0.135  10.650  0.7479 -0.3529  0.2841
   85SAPS   C31 8045   5.877   0.128  10.522  0.0189 -0.0130  0.0783
   85SAPS   O32 8046   5.809   0.160  10.427 -0.0812  0.5008 -0.3180
   85SAPS   C32 8047   6.022   0.068  10.509  0.3021 -0.4614 -0.0628
   85SAPS   H2X 8048   6.018  -0.030  10.561 -0.2313 -1.5437 -2.0354
   85SAPS   H2Y 8049   6.097   0.130  10.562  0.6608 -2.7744  2.3570
   85SAPS   C23 8050   6.041   0.575  10.506  0.7103 -0.4042  0.0840
   85SAPS   H3R 8051   6.107   0.591  10.594 -1.1072  0.7136  1.3143
   85SAPS   H3S 8052   6.049   0.666  10.443 -1.0351  1.2693  2.1032
   85SAPS   C24 8053   6.081   0.446  10.429  0.2770 -0.6128 -0.5226
   85SAPS   H4R 8054   5.998   0.433  10.355 -0.7681  1.2762  0.2401
   85SAPS   H4S 8055   6.084   0.354  10.491  1.2767 -0.3775 -0.2087
   85SAPS   C25 8056   6.220   0.461  10.365  0.0947 -0.3072 -0.2656
   85SAPS   H5R 8057   6.297   0.496  10.436 -1.0999  2.6598 -0.2869
   85SAPS   C26 8058   6.259   0.425  10.241  0.3222 -0.4414  0.4855
   85SAPS   H6R 8059   6.359   0.458  10.208 -0.8643  2.2751 -0.6203
   85SAPS   C27 8060   6.171   0.375  10.135 -0.5616 -0.9905 -0.0215
   85SAPS   H7R 8061   6.156   0.454  10.058 -0.7957 -0.3301  0.6851
   85SAPS   H7S 8062   6.069   0.352  10.172 -1.2150  0.4150 -0.8758
   85SAPS   C28 8063   6.238   0.252  10.072  0.1273  0.2922  0.0463
   85SAPS   H8R 8064   6.274   0.189  10.154 -1.3368  0.1376  0.6034
   85SAPS   C29 8065   6.250   0.219   9.944  0.3980 -0.4122 -0.2752
   85SAPS   H9R 8066   6.328   0.143   9.929 -0.1105 -1.6276  2.4564
   85SAPS  C210 8067   6.201   0.300   9.830 -0.0717 -0.2627 -0.0670
   85SAPS  H10R 8068   6.146   0.393   9.857 -0.2764  0.3513 -2.3678
   85SAPS  H10S 8069   6.131   0.241   9.769  0.3807 -0.7706 -0.0977
   85SAPS  C211 8070   6.315   0.355   9.748 -0.0862 -0.0456 -0.6881
   85SAPS  H11R 8071   6.390   0.421   9.794 -0.9236  0.3102  0.1916
   85SAPS  C212 8072   6.329   0.329   9.613 -0.1432  0.3612 -0.3600
   85SAPS  H12R 8073   6.421   0.373   9.572  1.6607  0.6475  3.4914
   85SAPS  C213 8074   6.233   0.252   9.522  0.7719 -0.1659 -0.3779
   85SAPS  H13R 8075   6.133   0.232   9.565 -0.6121  0.2808 -3.2113
   85SAPS  H13S 8076   6.279   0.153   9.503  0.1220 -0.3148 -1.2354
   85SAPS  C214 8077   6.209   0.330   9.392  0.5338  0.1593  0.3248
   85SAPS  H14R 8078   6.112   0.383   9.393 -0.5442 -1.3185 -3.8274
   85SAPS  C215 8079   6.288   0.343   9.288 -0.1269  0.3078  0.8124
   85SAPS  H15R 8080   6.253   0.402   9.202 -0.9284 -0.8278  0.3292
   85SAPS  C216 8081   6.417   0.272   9.260 -0.1282  0.0856 -0.8157
   85SAPS  H16R 8082   6.455   0.202   9.338 -0.2494 -0.2429 -1.0470
   85SAPS  H16S 8083   6.495   0.345   9.229 -0.4129 -0.2348 -2.3983
   85SAPS  C217 8084   6.407   0.175   9.135  0.1999 -0.2835  0.2131
   85SAPS  H17R 8085   6.340   0.214   9.055  0.3295 -0.5022 -0.0040
   85SAPS  H17S 8086   6.370   0.078   9.174 -1.1758  0.3572  0.5561
   85SAPS  C218 8087   6.549   0.153   9.062 -0.0937 -0.4080 -0.1678
   85SAPS  H18R 8088   6.599   0.071   9.118  0.9792 -0.1321 -0.6794
   85SAPS  H18S 8089   6.621   0.237   9.056 -1.3815  0.7498  0.1491
   85SAPS  C219 8090   6.538   0.106   8.924  0.5901  0.4422 -0.4817
   85SAPS  H19R 8091   6.474   0.015   8.915 -1.0555  1.4914  0.1491
   85SAPS  H19S 8092   6.639   0.064   8.907  0.9625  1.1069  0.0460
   85SAPS  C220 8093   6.513   0.213   8.817 -0.3746  1.3170 -0.0512
   85SAPS  H20R 8094   6.407   0.249   8.818 -0.4532  1.2862 -2.0991
   85SAPS  H20S 8095   6.513   0.177   8.712 -1.9771  0.4350  0.2132
   85SAPS  H20T 8096   6.590   0.292   8.826  5.0967 -2.8061 -4.0319
   85SAPS   C33 8097   6.068   0.035  10.366  0.4718  0.3511  0.5592
   85SAPS   H3X 8098   6.177   0.013  10.370  0.6009  0.6579 -0.6024
   85SAPS   H3Y 8099   6.063   0.119  10.293 -0.8404 -0.7214 -0.6493
   85SAPS   C34 8100   5.985  -0.073  10.302  0.6185  0.1857 -0.6658
   85SAPS   H4X 8101   5.880  -0.058  10.335  1.6925 -0.2129  3.4797
   85SAPS   H4Y 8102   6.009  -0.164  10.361 -1.5385  1.4164  2.3826
   85SAPS   C35 8103   6.009  -0.121  10.158 -0.3945  0.2496  0.3587
   85SAPS   H5X 8104   5.980  -0.226  10.138  0.9254  0.3179 -2.3575
   85SAPS   H5Y 8105   6.117  -0.122  10.130  0.2711 -0.3107  2.7326
   85SAPS   C36 8106   5.933  -0.025  10.060 -0.2766  0.2833  0.0352
   85SAPS   H6X 8107   5.992   0.069  10.054  1.5307 -0.8547 -0.6565
   85SAPS   H6Y 8108   5.825  -0.018  10.084 -0.5097  0.0127 -0.8942
   85SAPS   C37 8109   5.939  -0.074   9.910 -0.1964  0.2029  0.3997
   85SAPS   H7X 8110   5.882  -0.170   9.906 -0.5723  0.4466 -0.2469
   85SAPS   H7Y 8111   6.046  -0.102   9.898  0.1085  1.6544 -0.4249
   85SAPS   C38 8112   5.895   0.033   9.815  0.5719 -0.4812  0.8061
   85SAPS   H8X 8113   5.967   0.118   9.823  1.4496 -0.6556 -3.0805
   85SAPS   H8Y 8114   5.792   0.068   9.836 -1.3464 -3.1481 -3.0113
   85SAPS   C39 8115   5.908  -0.013   9.667  0.0347  0.2166 -0.6911
   85SAPS   H9X 8116   5.840  -0.100   9.652  1.3815 -1.0643  0.3722
   85SAPS   H9Y 8117   6.011  -0.052   9.654 -0.1108 -0.9341  1.2028
   85SAPS  C310 8118   5.871   0.095   9.568  0.1390  0.8697  0.4497
   85SAPS  H10X 8119   5.929   0.180   9.609  2.5409 -1.6353  2.6635
   85SAPS  H10Y 8120   5.763   0.119   9.565 -0.2158 -0.6596 -0.8570
   85SAPS  C311 8121   5.905   0.055   9.430  0.0086 -0.2916  0.4098
   85SAPS  H11X 8122   5.844  -0.035   9.407  1.4277 -1.3656  0.6919
   85SAPS  H11Y 8123   6.012   0.023   9.421  0.9069  2.1331  1.5212
   85SAPS  C312 8124   5.884   0.157   9.310 -0.8444 -0.3801 -0.0853
   85SAPS  H12X 8125   5.931   0.256   9.329 -1.3673 -0.4310  1.6749
   85SAPS  H12Y 8126   5.775   0.177   9.299 -0.3448  2.3064 -0.8896
   85SAPS  C313 8127   5.947   0.098   9.182  0.2307 -0.6013 -0.3520
   85SAPS  H13X 8128   5.902   0.009   9.132 -2.1080 -1.2411  2.6400
   85SAPS  H13Y 8129   6.056   0.079   9.188  0.3499  0.4153  1.3711
   85SAPS  C314 8130   5.943   0.204   9.064  0.2482  0.2471  0.0207
   85SAPS  H14X 8131   6.013   0.279   9.106 -0.2444  1.9250 -1.9585
   85SAPS  H14Y 8132   5.842   0.252   9.060 -0.1976 -0.7483 -1.8899
   85SAPS  C315 8133   5.995   0.145   8.928  0.1921 -0.7121  0.0216
   85SAPS  H15X 8134   5.908   0.104   8.871 -0.0909 -1.2849  0.8497
   85SAPS  H15Y 8135   6.056   0.056   8.955 -0.5536 -0.7137  1.7731
   85SAPS  C316 8136   6.071   0.253   8.847  0.2651 -0.0359 -0.2017
   85SAPS  H16X 8137   6.170   0.269   8.894  0.5334  0.5884 -0.9680
   85SAPS  H16Y 8138   5.998   0.333   8.875 -1.0567 -1.3667  0.3011
   85SAPS  C317 8139   6.077   0.234   8.697 -0.4165 -0.1796  1.0674
   85SAPS  H17X 8140   6.128   0.327   8.664  2.2071 -1.2046  1.9568
   85SAPS  H17Y 8141   5.972   0.214   8.668 -0.8473  0.6649  1.9686
   85SAPS  C318 8142   6.162   0.115   8.654  0.6175 -0.2841  0.4890
   85SAPS  H18X 8143   6.140   0.076   8.553  1.5329  0.7030 -0.1176
   85SAPS  H18Y 8144   6.149   0.030   8.725 -1.5921 -1.0563 -0.7610
   85SAPS  H18Z 8145   6.269   0.145   8.655  0.5276  0.0378  0.3248
   86SAPS     N 8146   1.346   5.347  11.374  0.0133 -0.2026 -0.0918
   86SAPS   HN1 8147   1.391   5.361  11.467 -0.9290  0.8950  0.2329
   86SAPS   HN2 8148   1.242   5.349  11.382 -0.2874 -3.6411 -1.3991
   86SAPS   HN3 8149   1.362   5.250  11.340  1.6369 -0.6008  1.6532
   86SAPS   C12 8150   1.394   5.441  11.270 -0.8901  0.5582  0.3768
   86SAPS  H12A 8151   1.340   5.422  11.179 -1.0592  1.1089  0.3607
   86SAPS   C13 8152   1.374   5.595  11.303 -0.0714 -0.0809 -0.6632
   86SAPS  O13A 8153   1.318   5.628  11.414  0.8158 -0.6319  0.3309
   86SAPS  O13B 8154   1.440   5.675  11.230  0.1239  0.6618  0.6418
   86SAPS   C11 8155   1.549   5.421  11.253 -0.1178  0.5328 -0.7408
   86SAPS  H11A 8156   1.586   5.438  11.356 -0.3518 -1.1015 -0.3607
   86SAPS  H11B 8157   1.591   5.502  11.190 -0.3422  0.5711 -0.8436
   86SAPS     P 8158   1.661   5.260  11.075  0.1244  0.3683 -0.4365
   86SAPS   O13 8159   1.786   5.339  11.072 -0.3932  0.1593  0.1566
   86SAPS   O14 8160   1.686   5.116  11.059 -0.0751  0.0236 -0.0088
   86SAPS   O12 8161   1.590   5.290  11.212  0.2860  0.1509 -0.1712
   86SAPS   O11 8162   1.552   5.311  10.968  0.1735 -0.3500  0.0772
   86SAPS    C1 8163   1.429   5.246  10.948 -0.2011  0.5274  0.1097
   86SAPS    HA 8164   1.375   5.204  11.036 -0.5474 -0.8962 -0.7489
   86SAPS    HB 8165   1.367   5.329  10.907 -0.6348  0.2386  0.1710
   86SAPS    C2 8166   1.435   5.130  10.844  0.5013 -0.3645 -0.3176
   86SAPS    HS 8167   1.502   5.050  10.882  0.9256  0.3033  0.3783
   86SAPS   O21 8168   1.480   5.189  10.716  0.2537  0.2893 -0.1297
   86SAPS   C21 8169   1.551   5.103  10.643  0.1434  0.0339  0.7142
   86SAPS   O22 8170   1.577   4.992  10.679 -0.0603 -0.0814 -0.2125
   86SAPS   C22 8171   1.612   5.170  10.520 -0.1825 -0.0503 -0.2139
   86SAPS   H2R 8172   1.603   5.280  10.530  1.6150 -0.0039  1.6013
   86SAPS   H2S 8173   1.715   5.128  10.520 -0.4968 -1.0901  2.8529
   86SAPS    C3 8174   1.296   5.070  10.827  0.2947  0.5629  0.0416
   86SAPS    HX 8175   1.223   5.148  10.794  2.4808  1.6667 -2.5950
   86SAPS    HY 8176   1.271   5.038  10.931  0.6835 -1.7115 -0.5065
   86SAPS   O31 8177   1.297   4.959  10.740  0.1406  0.3638  0.1898
   86SAPS   C31 8178   1.348   4.846  10.790  0.6903 -0.1171  0.5236
   86SAPS   O32 8179   1.386   4.828  10.903  0.4333 -0.1120 -0.5930
   86SAPS   C32 8180   1.330   4.740  10.686 -0.3712 -0.3675 -0.2058
   86SAPS   H2X 8181   1.411   4.664  10.701  0.4933  0.7532  1.1034
   86SAPS   H2Y 8182   1.349   4.779  10.584 -0.2277 -0.4034 -0.1930
   86SAPS   C23 8183   1.524   5.136  10.391  0.2402 -0.9042 -0.1947
   86SAPS   H3R 8184   1.521   5.025  10.387 -0.6370 -0.8976 -0.0914
   86SAPS   H3S 8185   1.563   5.165  10.291  0.2527  0.7033  0.2562
   86SAPS   C24 8186   1.381   5.203  10.402 -0.0844  0.3321  0.4776
   86SAPS   H4R 8187   1.330   5.179  10.498  0.1187  3.2293  1.4054
   86SAPS   H4S 8188   1.324   5.166  10.314  0.2654  1.9080 -0.4595
   86SAPS   C25 8189   1.385   5.351  10.383 -0.5078  0.5146 -0.3717
   86SAPS   H5R 8190   1.404   5.407  10.476 -3.6021 -2.3354  2.2316
   86SAPS   C26 8191   1.388   5.423  10.270  0.6306 -0.1280 -0.4496
   86SAPS   H6R 8192   1.388   5.533  10.278  4.0885 -0.1265  1.3520
   86SAPS   C27 8193   1.387   5.363  10.128 -0.2330  0.3646  0.3061
   86SAPS   H7R 8194   1.472   5.292  10.119 -0.7577 -0.0030 -2.7129
   86SAPS   H7S 8195   1.432   5.438  10.060 -2.0872  0.6261 -0.6773
   86SAPS   C28 8196   1.255   5.315  10.073  0.6007  0.4997 -0.8799
   86SAPS   H8R 8197   1.208   5.244  10.142  0.5294 -0.4712 -1.9036
   86SAPS   C29 8198   1.188   5.360   9.964 -0.4416 -0.0807 -0.8725
   86SAPS   H9R 8199   1.088   5.317   9.952 -0.3803 -1.5709  2.6230
   86SAPS  C210 8200   1.225   5.468   9.864  0.3925 -0.5507 -0.7480
   86SAPS  H10R 8201   1.287   5.423   9.784  1.5932  0.2703 -0.2920
   86SAPS  H10S 8202   1.293   5.536   9.918  2.0794 -1.5512 -1.5389
   86SAPS  C211 8203   1.109   5.542   9.815  0.2628 -0.2305 -0.3510
   86SAPS  H11R 8204   1.034   5.562   9.893  2.6708 -2.1513  2.7131
   86SAPS  C212 8205   1.094   5.581   9.694  0.3656  0.5089  0.8345
   86SAPS  H12R 8206   0.998   5.627   9.665 -1.0768 -1.9019  1.5061
   86SAPS  C213 8207   1.183   5.570   9.573 -0.8412  0.4085 -0.9075
   86SAPS  H13R 8208   1.288   5.540   9.596 -1.2805 -2.8525 -2.6307
   86SAPS  H13S 8209   1.192   5.672   9.530  3.5149  1.1305  1.0795
   86SAPS  C214 8210   1.141   5.471   9.467 -0.5516 -0.0717 -0.4069
   86SAPS  H14R 8211   1.130   5.371   9.513 -1.1924 -1.1642 -2.8173
   86SAPS  C215 8212   1.114   5.493   9.337  0.4152  0.2720 -0.0535
   86SAPS  H15R 8213   1.085   5.404   9.280  1.6787  0.2259 -0.6665
   86SAPS  C216 8214   1.113   5.621   9.262  0.3171 -0.3069 -0.6555
   86SAPS  H16R 8215   1.128   5.704   9.333  0.6611 -0.2937 -0.7394
   86SAPS  H16S 8216   1.016   5.633   9.209 -0.2122  0.1605  0.4079
   86SAPS  C217 8217   1.217   5.637   9.153 -0.8654 -0.2497 -0.2197
   86SAPS  H17R 8218   1.213   5.555   9.079  2.2817 -0.4230 -0.3565
   86SAPS  H17S 8219   1.320   5.626   9.192 -2.1098 -1.4904  3.0091
   86SAPS  C218 8220   1.232   5.768   9.078  0.3646  0.5334 -0.2778
   86SAPS  H18R 8221   1.260   5.845   9.154 -2.3465  0.6807  0.7056
   86SAPS  H18S 8222   1.130   5.792   9.041 -0.8161  0.3120  2.5895
   86SAPS  C219 8223   1.340   5.766   8.975 -0.1885  0.3994  0.4847
   86SAPS  H19R 8224   1.312   5.700   8.890 -2.3210 -0.7018  1.9463
   86SAPS  H19S 8225   1.425   5.728   9.034 -1.2600  0.3585  2.0773
   86SAPS  C220 8226   1.372   5.909   8.916  0.3167  0.8510  0.7611
   86SAPS  H20R 8227   1.456   5.907   8.843  0.0003  2.1527  0.3408
   86SAPS  H20S 8228   1.392   5.986   8.993  0.1312  2.6630 -0.9474
   86SAPS  H20T 8229   1.281   5.933   8.857 -1.1699 -3.3742  0.9364
   86SAPS   C33 8230   1.187   4.665  10.687 -0.3763 -0.6854 -0.0787
   86SAPS   H3X 8231   1.106   4.739  10.670  0.5350  0.6056  1.0018
   86SAPS   H3Y 8232   1.168   4.635  10.792 -0.1416  1.0783  0.4987
   86SAPS   C34 8233   1.177   4.544  10.589 -0.5718  0.3984  0.5885
   86SAPS   H4X 8234   1.240   4.462  10.629 -1.0119  0.7267  2.0297
   86SAPS   H4Y 8235   1.230   4.580  10.498  3.0694 -0.5323  2.1619
   86SAPS   C35 8236   1.038   4.493  10.570  0.2052  0.1387  0.4400
   86SAPS   H5X 8237   0.964   4.576  10.567  1.3739  1.2274  0.5671
   86SAPS   H5Y 8238   1.009   4.432  10.659 -0.9528  1.4458  0.9963
   86SAPS   C36 8239   1.009   4.421  10.433 -0.1670 -0.3595  0.3586
   86SAPS   H6X 8240   0.919   4.356  10.432  0.0533 -0.7158 -1.7647
   86SAPS   H6Y 8241   1.101   4.359  10.423  0.9049  0.8343  2.2350
   86SAPS   C37 8242   0.999   4.513  10.310 -0.0923  0.0442 -0.3433
   86SAPS   H7X 8243   1.087   4.581  10.301  1.3096 -1.5279  0.8632
   86SAPS   H7Y 8244   0.909   4.576  10.327  0.1771 -0.3773  3.2942
   86SAPS   C38 8245   0.990   4.435  10.181  0.5795  0.4578  0.9663
   86SAPS   H8X 8246   0.893   4.382  10.172  0.9782 -1.2612  5.0193
   86SAPS   H8Y 8247   1.070   4.360  10.198  0.5442  0.2835  0.4047
   86SAPS   C39 8248   1.043   4.515  10.055 -0.2554  0.5347 -0.6991
   86SAPS   H9X 8249   1.154   4.517  10.059 -0.2183  1.9082 -1.6799
   86SAPS   H9Y 8250   1.004   4.617  10.073 -1.9414 -0.3492  1.0334
   86SAPS  C310 8251   0.995   4.458   9.924 -1.0254  0.5319 -0.0946
   86SAPS  H10X 8252   0.889   4.426   9.932  0.0745 -3.2883  1.1697
   86SAPS  H10Y 8253   1.052   4.364   9.907 -1.2806  0.3245  0.1855
   86SAPS  C311 8254   1.021   4.561   9.812 -0.5312  0.4276 -0.2607
   86SAPS  H11X 8255   1.121   4.609   9.822 -0.6240  0.4812  0.4177
   86SAPS  H11Y 8256   0.941   4.637   9.811 -1.8857 -0.9399 -0.5590
   86SAPS  C312 8257   1.001   4.498   9.670 -0.3043 -0.1290 -0.2390
   86SAPS  H12X 8258   0.904   4.447   9.654 -0.7900  0.1378  1.6241
   86SAPS  H12Y 8259   1.078   4.418   9.676  0.0853  0.3395  1.4819
   86SAPS  C313 8260   1.043   4.597   9.564  0.4633 -0.1135  0.1547
   86SAPS  H13X 8261   1.147   4.627   9.589  0.9094 -2.4695  1.4117
   86SAPS  H13Y 8262   0.978   4.687   9.561  1.6790  1.0114  3.6434
   86SAPS  C314 8263   1.028   4.541   9.422 -0.1429  0.6244 -0.5022
   86SAPS  H14X 8264   0.922   4.511   9.406 -0.4100  0.6276  1.0441
   86SAPS  H14Y 8265   1.092   4.450   9.418  2.1221  2.1688 -1.3275
   86SAPS  C315 8266   1.092   4.628   9.315  0.2767  0.2452 -0.2004
   86SAPS  H15X 8267   1.187   4.675   9.348  0.2866  0.8885 -1.1297
   86SAPS  H15Y 8268   1.017   4.710   9.314  0.4172  0.3811  0.1404
   86SAPS  C316 8269   1.089   4.558   9.175  0.4167  0.3531  0.0556
   86SAPS  H16X 8270   1.117   4.451   9.189  2.3311  1.0694  2.3744
   86SAPS  H16Y 8271   1.167   4.595   9.104 -0.5510  0.9891 -0.7059
   86SAPS  C317 8272   0.947   4.548   9.116  0.4940 -0.2341 -0.1176
   86SAPS  H17X 8273   0.872   4.598   9.182  0.6284  2.0614 -1.5709
   86SAPS  H17Y 8274   0.910   4.447   9.091 -1.2940  0.4004 -0.2487
   86SAPS  C318 8275   0.941   4.637   8.989  0.7196  0.5277 -0.2346
   86SAPS  H18X 8276   1.020   4.612   8.915  2.1493  3.3346  0.2169
   86SAPS  H18Y 8277   0.967   4.741   9.019 -1.1821  0.6307  1.2877
   86SAPS  H18Z 8278   0.838   4.647   8.949  0.0052  3.0109  1.9079
   87SAPS     N 8279   2.887   5.858  10.860 -0.0341  0.0465  0.1450
   87SAPS   HN1 8280   2.912   5.936  10.924 -0.3431 -0.6835  1.1981
   87SAPS   HN2 8281   2.973   5.805  10.834  1.2477  1.2528  1.7038
   87SAPS   HN3 8282   2.849   5.900  10.773 -0.1428  1.0997  0.6885
   87SAPS   C12 8283   2.790   5.768  10.943  0.0779  0.1610 -0.2791
   87SAPS  H12A 8284   2.757   5.694  10.873  1.4849 -1.2892  0.5312
   87SAPS   C13 8285   2.855   5.687  11.055 -0.4752  0.3557  0.2514
   87SAPS  O13A 8286   2.979   5.689  11.064 -0.6205 -0.8353  0.1505
   87SAPS  O13B 8287   2.780   5.602  11.107  0.8416  0.3777  0.6634
   87SAPS   C11 8288   2.677   5.860  11.001  0.2945  0.9914  1.1160
   87SAPS  H11A 8289   2.734   5.938  11.056  1.7786 -0.0632  1.1470
   87SAPS  H11B 8290   2.625   5.804  11.082  1.1423 -2.4565 -0.5485
   87SAPS     P 8291   2.454   5.966  10.915 -0.3244 -0.0983 -0.1640
   87SAPS   O13 8292   2.354   5.857  10.885  0.2026 -0.5050  0.4619
   87SAPS   O14 8293   2.435   6.034  11.046  0.3785  0.6096  0.0795
   87SAPS   O12 8294   2.601   5.903  10.898 -0.0798  0.2919  0.4059
   87SAPS   O11 8295   2.439   6.071  10.804 -0.7947  0.2262 -0.2448
   87SAPS    C1 8296   2.449   6.039  10.664 -0.2000  0.5941  0.2142
   87SAPS    HA 8297   2.510   5.948  10.646 -1.1564  0.3908 -2.4949
   87SAPS    HB 8298   2.351   6.006  10.622  0.3734 -1.5144  0.4502
   87SAPS    C2 8299   2.507   6.147  10.571 -0.3125 -0.9046  0.4129
   87SAPS    HS 8300   2.590   6.191  10.630 -2.0976  0.2432  2.2069
   87SAPS   O21 8301   2.402   6.245  10.548  0.0980 -0.0173  0.3285
   87SAPS   C21 8302   2.435   6.370  10.543 -0.6294  0.3234  0.9186
   87SAPS   O22 8303   2.547   6.417  10.524 -0.2857 -0.5154 -0.2989
   87SAPS   C22 8304   2.304   6.464  10.555  0.0570  0.4066 -0.2908
   87SAPS   H2R 8305   2.217   6.406  10.518  0.1666 -0.1584  0.3077
   87SAPS   H2S 8306   2.281   6.494  10.660  3.5441 -0.8989  0.9796
   87SAPS    C3 8307   2.542   6.091  10.434 -0.0655 -0.2534 -0.0855
   87SAPS    HX 8308   2.453   6.036  10.397 -0.0416 -0.2830 -0.0983
   87SAPS    HY 8309   2.624   6.018  10.452  1.9996  1.7146 -0.9547
   87SAPS   O31 8310   2.587   6.185  10.338  0.4002 -0.2574 -0.0768
   87SAPS   C31 8311   2.723   6.190  10.313 -0.3566 -0.2304 -0.0715
   87SAPS   O32 8312   2.808   6.120  10.364  0.2505  0.5023 -0.1382
   87SAPS   C32 8313   2.760   6.305  10.223  0.0354  0.0045 -0.3535
   87SAPS   H2X 8314   2.864   6.332  10.251  0.8401 -2.2460 -0.9309
   87SAPS   H2Y 8315   2.685   6.385  10.238 -0.9363 -0.3169 -2.9462
   87SAPS   C23 8316   2.300   6.593  10.466  0.2490  0.6276 -0.2916
   87SAPS   H3R 8317   2.390   6.654  10.492 -0.9162  1.7300  1.3275
   87SAPS   H3S 8318   2.208   6.645  10.499  0.7604  1.8141 -0.6479
   87SAPS   C24 8319   2.314   6.552  10.318  0.0305 -0.5879 -0.4289
   87SAPS   H4R 8320   2.407   6.492  10.312  0.6844  0.4561 -0.9790
   87SAPS   H4S 8321   2.340   6.648  10.269  0.5316  0.8636  2.4832
   87SAPS   C25 8322   2.204   6.482  10.242  0.2339 -0.1090 -0.5966
   87SAPS   H5R 8323   2.106   6.501  10.289 -0.4892 -0.9805 -1.6959
   87SAPS   C26 8324   2.210   6.407  10.135  0.6995  0.8425 -0.7294
   87SAPS   H6R 8325   2.119   6.357  10.100  1.1335  0.4120 -1.2417
   87SAPS   C27 8326   2.337   6.375  10.069 -0.1258  0.3788  0.1641
   87SAPS   H7R 8327   2.339   6.267  10.043  2.6688  0.4767 -0.3053
   87SAPS   H7S 8328   2.423   6.388  10.138 -0.9068 -3.1927  2.0476
   87SAPS   C28 8329   2.361   6.447   9.946 -0.1570 -0.6317  0.4933
   87SAPS   H8R 8330   2.405   6.546   9.963  0.8046 -0.4092 -2.6763
   87SAPS   C29 8331   2.361   6.404   9.814  0.4130  0.9247  0.1006
   87SAPS   H9R 8332   2.372   6.483   9.739 -1.2753  2.1215  1.0377
   87SAPS  C210 8333   2.312   6.266   9.770 -0.2014 -0.4622  0.2246
   87SAPS  H10R 8334   2.206   6.290   9.746 -0.4388 -1.5580  0.1375
   87SAPS  H10S 8335   2.314   6.191   9.852  0.9060 -0.6678  0.0257
   87SAPS  C211 8336   2.380   6.206   9.653 -0.0260  0.0222 -0.5262
   87SAPS  H11R 8337   2.470   6.142   9.664  0.5522  0.5295 -2.0469
   87SAPS  C212 8338   2.356   6.230   9.527  0.8546 -0.1567 -0.7154
   87SAPS  H12R 8339   2.428   6.185   9.458 -0.0906 -1.7201 -0.7211
   87SAPS  C213 8340   2.256   6.325   9.475  0.3999  0.3704  0.7172
   87SAPS  H13R 8341   2.193   6.371   9.554  2.4879  0.3337  2.4947
   87SAPS  H13S 8342   2.188   6.273   9.404  2.4480  0.3972 -1.3858
   87SAPS  C214 8343   2.338   6.436   9.412  0.5539 -0.0133  0.2256
   87SAPS  H14R 8344   2.381   6.503   9.489 -1.3620 -0.1569  1.4768
   87SAPS  C215 8345   2.364   6.459   9.277  1.0471 -0.2235  0.8385
   87SAPS  H15R 8346   2.411   6.549   9.235 -3.5947  1.7705 -0.8376
   87SAPS  C216 8347   2.313   6.364   9.167  1.0161  0.5051 -0.2758
   87SAPS  H16R 8348   2.335   6.257   9.186  1.5299  0.4655 -1.0321
   87SAPS  H16S 8349   2.364   6.363   9.068  2.8185 -0.9252  0.6049
   87SAPS  C217 8350   2.160   6.381   9.136  0.4889  0.4692  0.1398
   87SAPS  H17R 8351   2.106   6.419   9.226 -0.8175  0.4579 -0.6230
   87SAPS  H17S 8352   2.114   6.283   9.112 -1.6070  1.5539 -0.4828
   87SAPS  C218 8353   2.142   6.482   9.016  0.7427 -0.1937  0.5895
   87SAPS  H18R 8354   2.186   6.439   8.923 -0.5636  0.7069 -0.4917
   87SAPS  H18S 8355   2.193   6.579   9.035 -0.6233  0.4293  1.2234
   87SAPS  C219 8356   1.997   6.518   8.978  0.2486  0.0102  0.3690
   87SAPS  H19R 8357   1.951   6.560   9.069 -0.9430 -2.1849  0.8540
   87SAPS  H19S 8358   1.935   6.430   8.949  0.0932  0.1604  0.2458
   87SAPS  C220 8359   1.978   6.620   8.868  0.5141 -0.1418  0.5370
   87SAPS  H20R 8360   2.025   6.585   8.773 -1.5747 -3.1229  0.4701
   87SAPS  H20S 8361   2.022   6.719   8.892 -0.9975  0.9170 -0.8390
   87SAPS  H20T 8362   1.871   6.638   8.847  0.5145 -1.3603 -0.6890
   87SAPS   C33 8363   2.768   6.253  10.076 -0.5247  0.3321 -0.4934
   87SAPS   H3X 8364   2.667   6.225  10.039 -0.2584 -0.2225 -0.8310
   87SAPS   H3Y 8365   2.836   6.165  10.076 -0.4726  0.3687 -1.0340
   87SAPS   C34 8366   2.836   6.348   9.969 -0.0575  0.3491 -0.2529
   87SAPS   H4X 8367   2.944   6.364   9.987  0.3121 -1.2520 -0.9249
   87SAPS   H4Y 8368   2.784   6.444   9.993  1.3489  0.7037  1.5377
   87SAPS   C35 8369   2.820   6.300   9.822 -0.1742 -0.4447 -0.2468
   87SAPS   H5X 8370   2.712   6.303   9.796 -0.1022 -3.7411 -1.4341
   87SAPS   H5Y 8371   2.849   6.194   9.810 -0.3920 -0.7319  1.4642
   87SAPS   C36 8372   2.900   6.395   9.727 -0.2199 -0.8196 -0.1905
   87SAPS   H6X 8373   2.999   6.348   9.708  1.0081  1.7035 -0.3547
   87SAPS   H6Y 8374   2.903   6.498   9.768 -0.2381 -0.1395 -1.8204
   87SAPS   C37 8375   2.835   6.398   9.580  0.0428 -0.2368  0.2126
   87SAPS   H7X 8376   2.728   6.381   9.605  0.4476  0.0858  2.3551
   87SAPS   H7Y 8377   2.871   6.305   9.532 -1.2822  0.6243 -2.6531
   87SAPS   C38 8378   2.865   6.515   9.490 -0.5575 -0.0071  0.1584
   87SAPS   H8X 8379   2.975   6.521   9.473 -0.3410  0.3223  1.6154
   87SAPS   H8Y 8380   2.840   6.617   9.526  1.1934  1.6057 -2.8118
   87SAPS   C39 8381   2.790   6.509   9.357 -0.8959  0.4427  0.6744
   87SAPS   H9X 8382   2.681   6.500   9.378 -1.2187 -0.3871 -1.1541
   87SAPS   H9Y 8383   2.833   6.416   9.313 -1.4187  1.3548 -1.9490
   87SAPS  C310 8384   2.819   6.626   9.262  0.1530 -1.2348 -0.1385
   87SAPS  H10X 8385   2.927   6.651   9.268 -0.0298  0.9478 -3.5541
   87SAPS  H10Y 8386   2.758   6.712   9.297 -1.1203 -2.1038 -0.1413
   87SAPS  C311 8387   2.785   6.587   9.115 -0.5449  0.4039 -0.3988
   87SAPS  H11X 8388   2.842   6.500   9.076  0.1209  0.5821  0.1534
   87SAPS  H11Y 8389   2.821   6.672   9.054 -1.1408 -0.0989 -1.4784
   87SAPS  C312 8390   2.637   6.578   9.081  0.1841  0.6549  0.2122
   87SAPS  H12X 8391   2.575   6.626   9.159  0.2122 -0.6814  1.0870
   87SAPS  H12Y 8392   2.602   6.473   9.078 -1.3081  1.1153  0.8165
   87SAPS  C313 8393   2.597   6.635   8.940 -0.4893 -0.2499 -0.6618
   87SAPS  H13X 8394   2.691   6.646   8.882 -0.6421  0.1270 -0.8367
   87SAPS  H13Y 8395   2.558   6.738   8.950  0.1912  0.0219 -0.7480
   87SAPS  C314 8396   2.499   6.550   8.852  0.2893 -0.3414 -0.1234
   87SAPS  H14X 8397   2.404   6.544   8.910 -1.7114  0.3415 -3.0835
   87SAPS  H14Y 8398   2.548   6.452   8.837  0.5536  0.1537 -3.0425
   87SAPS  C315 8399   2.455   6.617   8.720 -0.4410 -0.2716 -0.0389
   87SAPS  H15X 8400   2.533   6.608   8.642 -0.7843 -0.6709 -0.3379
   87SAPS  H15Y 8401   2.449   6.725   8.748  1.5691 -0.2477  0.4510
   87SAPS  C316 8402   2.317   6.565   8.671  0.4965 -0.3980  0.1864
   87SAPS  H16X 8403   2.259   6.527   8.758  0.1680 -0.0944  0.1035
   87SAPS  H16Y 8404   2.330   6.488   8.593  1.1900  1.9966 -2.2317
   87SAPS  C317 8405   2.232   6.680   8.604  0.0961  0.9940  0.5267
   87SAPS  H17X 8406   2.207   6.747   8.689 -1.2994  1.0681  0.0758
   87SAPS  H17Y 8407   2.143   6.622   8.573  1.1233  0.9675 -2.7137
   87SAPS  C318 8408   2.295   6.753   8.487  0.0026  0.0001  0.7982
   87SAPS  H18X 8409   2.402   6.776   8.506  0.1021 -1.2207  1.8305
   87SAPS  H18Y 8410   2.239   6.847   8.467  0.5490  0.6266  2.0782
   87SAPS  H18Z 8411   2.286   6.702   8.389  1.7991  1.5724 -0.2573
   88SAPS     N 8412   4.004   5.710  10.909 -0.0198 -0.4697  0.2003
   88SAPS   HN1 8413   4.070   5.790  10.896 -0.7928  0.0808 -0.4671
   88SAPS   HN2 8414   4.027   5.639  10.837 -1.7392 -0.5231 -0.3470
   88SAPS   HN3 8415   3.912   5.753  10.887  0.3597  0.3989  0.2378
   88SAPS   C12 8416   4.016   5.668  11.054 -0.0958  0.0343  0.3501
   88SAPS  H12A 8417   4.104   5.606  11.068 -1.2890 -1.4936  1.4019
   88SAPS   C13 8418   4.041   5.787  11.151  0.5125  0.6291 -0.2409
   88SAPS  O13A 8419   4.028   5.908  11.113  0.6377 -0.4543 -0.0168
   88SAPS  O13B 8420   4.077   5.753  11.261 -0.1084 -0.2409  0.2447
   88SAPS   C11 8421   3.885   5.590  11.104 -0.4943  0.3957 -0.0165
   88SAPS  H11A 8422   3.811   5.673  11.112  1.3370  2.2910 -1.7084
   88SAPS  H11B 8423   3.919   5.554  11.204  2.0751 -1.7246 -1.5252
   88SAPS     P 8424   3.789   5.355  11.059  0.6148 -0.2913 -0.1253
   88SAPS   O13 8425   3.894   5.272  11.127  0.3590 -0.4051  0.1813
   88SAPS   O14 8426   3.663   5.371  11.136  0.0130 -0.4988 -0.0633
   88SAPS   O12 8427   3.846   5.487  11.016 -0.1812  0.7310  0.0746
   88SAPS   O11 8428   3.758   5.280  10.918  0.7703 -0.0144 -0.7606
   88SAPS    C1 8429   3.765   5.351  10.799 -0.1438 -0.1831 -0.5499
   88SAPS    HA 8430   3.721   5.453  10.803  1.6244  0.5713  1.4328
   88SAPS    HB 8431   3.869   5.376  10.769 -0.1236 -1.0201 -1.2059
   88SAPS    C2 8432   3.697   5.274  10.693  0.5390  0.3646  0.5652
   88SAPS    HS 8433   3.749   5.175  10.696  0.9668  0.4252 -2.2213
   88SAPS   O21 8434   3.727   5.338  10.572 -0.0935 -0.3068  1.0031
   88SAPS   C21 8435   3.721   5.257  10.467  0.3034 -0.7108 -0.0165
   88SAPS   O22 8436   3.697   5.135  10.471 -0.0485 -0.1272  0.2497
   88SAPS   C22 8437   3.762   5.331  10.335  0.4221  0.8737  0.0045
   88SAPS   H2R 8438   3.704   5.424  10.324 -0.7376 -0.1176 -3.7468
   88SAPS   H2S 8439   3.868   5.357  10.359  0.3220  2.2918 -0.9717
   88SAPS    C3 8440   3.540   5.257  10.716 -0.4414  0.5893 -0.4142
   88SAPS    HX 8441   3.503   5.353  10.757  1.3286  0.9007  0.5491
   88SAPS    HY 8442   3.528   5.180  10.795 -1.3668  0.4529 -0.6809
   88SAPS   O31 8443   3.463   5.229  10.594  0.5504 -0.2549 -0.2781
   88SAPS   C31 8444   3.425   5.101  10.583  0.8797 -0.6934  0.0833
   88SAPS   O32 8445   3.460   5.014  10.659 -0.7281  0.6445  0.7060
   88SAPS   C32 8446   3.331   5.088  10.461 -0.7411  0.3294  0.0464
   88SAPS   H2X 8447   3.260   5.173  10.470  0.8595  1.6556  0.5374
   88SAPS   H2Y 8448   3.280   4.990  10.479 -3.6718  1.5100 -1.2127
   88SAPS   C23 8449   3.753   5.229  10.218 -0.2449 -0.0507  0.3550
   88SAPS   H3R 8450   3.732   5.288  10.126 -0.4104  1.1720  1.1438
   88SAPS   H3S 8451   3.674   5.153  10.228  0.8106 -1.4196 -1.1652
   88SAPS   C24 8452   3.885   5.152  10.183  0.3744 -0.2705 -0.2382
   88SAPS   H4R 8453   3.931   5.121  10.279  0.6839  2.3522  0.5216
   88SAPS   H4S 8454   3.962   5.214  10.133 -0.5401 -0.4046 -1.8931
   88SAPS   C25 8455   3.856   5.033  10.096 -0.2332 -0.3966  0.5126
   88SAPS   H5R 8456   3.817   4.944  10.149  1.6352 -1.5178  0.0638
   88SAPS   C26 8457   3.890   5.028   9.966 -0.0031  0.0261 -0.6406
   88SAPS   H6R 8458   3.865   4.940   9.904  0.8338 -1.5085  1.0930
   88SAPS   C27 8459   3.947   5.143   9.881  0.3133  1.2302  0.0104
   88SAPS   H7R 8460   3.960   5.100   9.779  2.1784 -0.1928  0.7910
   88SAPS   H7S 8461   4.047   5.174   9.917  0.3331  0.6651  0.4436
   88SAPS   C28 8462   3.852   5.254   9.868  0.4178 -1.3161  0.2483
   88SAPS   H8R 8463   3.833   5.324   9.951 -0.6054 -1.2582 -0.0164
   88SAPS   C29 8464   3.774   5.273   9.762  0.4744 -0.4955 -0.9332
   88SAPS   H9R 8465   3.709   5.361   9.753  3.7352  2.0813 -1.0564
   88SAPS  C210 8466   3.766   5.180   9.644  0.7888 -0.2810  0.6843
   88SAPS  H10R 8467   3.729   5.081   9.677  1.0963 -1.1739 -1.5071
   88SAPS  H10S 8468   3.868   5.170   9.601  0.4841  1.6448 -0.6330
   88SAPS  C211 8469   3.680   5.230   9.527  0.2547 -0.1328 -0.1396
   88SAPS  H11R 8470   3.597   5.301   9.541  0.7981  0.2481  1.3212
   88SAPS  C212 8471   3.699   5.193   9.399  0.5210 -0.2958  0.2837
   88SAPS  H12R 8472   3.655   5.263   9.326  1.7903  1.0580  0.7568
   88SAPS  C213 8473   3.800   5.097   9.349 -0.6529  0.4915 -0.1786
   88SAPS  H13R 8474   3.839   5.032   9.431  0.0891  2.2278  0.9069
   88SAPS  H13S 8475   3.886   5.148   9.301 -1.4413  1.0991 -0.9616
   88SAPS  C214 8476   3.742   5.010   9.237  0.2716 -0.2941  0.2650
   88SAPS  H14R 8477   3.666   4.942   9.276  0.7220 -0.3905  1.0041
   88SAPS  C215 8478   3.758   5.028   9.103  0.2466 -0.5559 -0.2048
   88SAPS  H15R 8479   3.707   4.960   9.033 -1.7092 -0.3181  0.9144
   88SAPS  C216 8480   3.845   5.132   9.019 -0.0716  0.1483 -0.5267
   88SAPS  H16R 8481   3.901   5.188   9.098 -1.3152  0.2756  0.3023
   88SAPS  H16S 8482   3.788   5.210   8.965  1.0991  1.5313  0.1557
   88SAPS  C217 8483   3.943   5.054   8.936  0.3304 -0.1617 -0.7577
   88SAPS  H17R 8484   3.973   4.958   8.982  0.1354  1.4000  2.9854
   88SAPS  H17S 8485   4.043   5.102   8.938  0.9703 -1.3993  1.7408
   88SAPS  C218 8486   3.891   5.026   8.787 -0.1974 -0.0909  0.7181
   88SAPS  H18R 8487   3.905   5.115   8.722 -3.3991 -0.2186 -0.3177
   88SAPS  H18S 8488   3.782   5.007   8.789  0.1673 -2.9770 -0.8660
   88SAPS  C219 8489   3.946   4.896   8.712  0.1622  0.8918 -0.0040
   88SAPS  H19R 8490   3.877   4.873   8.629 -1.6176  0.5496  1.4923
   88SAPS  H19S 8491   3.949   4.806   8.778  1.7186  1.0941  0.2344
   88SAPS  C220 8492   4.088   4.904   8.660 -0.1348 -0.0704  0.2185
   88SAPS  H20R 8493   4.160   4.931   8.740  1.1964 -0.7168 -0.7269
   88SAPS  H20S 8494   4.079   4.983   8.583 -0.4712 -0.3762 -0.0592
   88SAPS  H20T 8495   4.123   4.811   8.611  0.8744 -0.3130  1.3483
   88SAPS   C33 8496   3.412   5.087  10.333  0.0383  0.6455 -0.1354
   88SAPS   H3X 8497   3.473   4.994  10.326 -0.9745  0.0040 -0.5475
   88SAPS   H3Y 8498   3.494   5.162  10.342  0.3472  0.0414  4.3546
   88SAPS   C34 8499   3.329   5.113  10.206 -0.0943  0.1915 -0.7850
   88SAPS   H4X 8500   3.280   5.213  10.207 -0.0124  0.2616  1.6071
   88SAPS   H4Y 8501   3.242   5.045  10.199 -0.9833  1.3953 -1.8949
   88SAPS   C35 8502   3.404   5.108  10.065 -0.5515 -0.9002  0.0187
   88SAPS   H5X 8503   3.453   5.009  10.058 -0.3764 -0.7237 -1.5459
   88SAPS   H5Y 8504   3.490   5.178  10.058 -0.5110 -0.8239  1.0728
   88SAPS   C36 8505   3.311   5.138   9.946 -0.6307  0.5361 -0.0089
   88SAPS   H6X 8506   3.260   5.235   9.961 -0.7130  0.5076 -0.1009
   88SAPS   H6Y 8507   3.239   5.054   9.958  1.4146 -1.3174  0.0726
   88SAPS   C37 8508   3.372   5.132   9.803 -0.0461  0.0895 -0.4669
   88SAPS   H7X 8509   3.434   5.040   9.811  2.0589  1.4634 -0.3138
   88SAPS   H7Y 8510   3.447   5.207   9.771  1.9636 -1.7687 -0.3256
   88SAPS   C38 8511   3.273   5.114   9.687 -0.1609 -0.8848 -0.3935
   88SAPS   H8X 8512   3.213   5.207   9.696  0.2817 -0.7108  1.0091
   88SAPS   H8Y 8513   3.219   5.022   9.720  0.0234 -0.9267 -0.2092
   88SAPS   C39 8514   3.346   5.090   9.550 -0.7747 -0.4708 -0.4325
   88SAPS   H9X 8515   3.410   5.006   9.583  2.2724  2.4523  1.7011
   88SAPS   H9Y 8516   3.413   5.176   9.529 -0.4174 -0.9202 -1.1556
   88SAPS  C310 8517   3.259   5.059   9.434 -0.0224 -0.5526  0.2351
   88SAPS  H10X 8518   3.228   5.153   9.384 -0.7787  0.0207  1.7218
   88SAPS  H10Y 8519   3.173   5.007   9.480  1.2211 -2.2221  0.7809
   88SAPS  C311 8520   3.324   4.973   9.327  0.2131 -0.8286 -0.4440
   88SAPS  H11X 8521   3.388   4.899   9.380  0.8692  0.4723  0.6313
   88SAPS  H11Y 8522   3.394   5.036   9.268 -0.7573 -0.6039 -1.3935
   88SAPS  C312 8523   3.229   4.898   9.232  0.4582 -0.2219  0.5449
   88SAPS  H12X 8524   3.179   4.818   9.291  3.4660 -0.3309  3.2124
   88SAPS  H12Y 8525   3.288   4.840   9.158 -0.6637 -0.6941 -0.0154
   88SAPS  C313 8526   3.110   4.979   9.166 -0.6508 -0.2140 -0.4861
   88SAPS  H13X 8527   3.149   5.082   9.149  2.6097 -1.2152  0.2325
   88SAPS  H13Y 8528   3.037   5.000   9.247 -0.5643  0.6136 -0.6095
   88SAPS  C314 8529   3.049   4.916   9.046  0.0808 -0.0614 -0.4100
   88SAPS  H14X 8530   3.007   4.819   9.081 -0.7030  0.4465  0.0973
   88SAPS  H14Y 8531   3.125   4.901   8.967  0.3263  0.3518 -0.2516
   88SAPS  C315 8532   2.928   5.001   8.996 -0.2655 -0.0405 -1.4081
   88SAPS  H15X 8533   2.957   5.100   8.955  1.6815 -1.1570 -2.9517
   88SAPS  H15Y 8534   2.857   5.029   9.076 -0.3602  0.9288 -1.8173
   88SAPS  C316 8535   2.849   4.925   8.893 -0.1322 -0.9795  0.0022
   88SAPS  H16X 8536   2.753   4.979   8.880  0.3052 -0.4087 -0.9556
   88SAPS  H16Y 8537   2.832   4.819   8.921  1.5771 -1.8693 -2.0214
   88SAPS  C317 8538   2.928   4.923   8.758  0.4068  0.7543  0.1029
   88SAPS  H17X 8539   3.012   4.851   8.768 -2.0286 -2.7469 -2.1169
   88SAPS  H17Y 8540   2.963   5.023   8.725 -0.8321  0.9298 -0.7406
   88SAPS  C318 8541   2.845   4.859   8.645  0.1807 -1.0988 -0.7575
   88SAPS  H18X 8542   2.825   4.754   8.675  1.3309 -1.1647 -0.1819
   88SAPS  H18Y 8543   2.906   4.849   8.553 -0.1081 -1.1753 -0.9416
   88SAPS  H18Z 8544   2.759   4.919   8.608 -0.0694  0.0036  1.4049
   89SAPS     N 8545   0.678   1.924  10.873 -0.4363  0.0477 -0.2924
   89SAPS   HN1 8546   0.577   1.918  10.846 -0.7950  0.3231  0.9226
   89SAPS   HN2 8547   0.701   2.022  10.899 -2.0129  0.8524 -1.6616
   89SAPS   HN3 8548   0.744   1.898  10.797  1.6418  0.9520  1.1172
   89SAPS   C12 8549   0.679   1.840  11.004 -0.4785  1.1404 -0.0426
   89SAPS  H12A 8550   0.746   1.886  11.074  0.0279 -0.7008  0.7498
   89SAPS   C13 8551   0.535   1.824  11.065  0.5261  0.4560  0.2904
   89SAPS  O13A 8552   0.441   1.891  11.022 -0.3588  0.1107  0.4681
   89SAPS  O13B 8553   0.527   1.758  11.172 -0.7641 -0.4938 -0.2697
   89SAPS   C11 8554   0.740   1.703  10.972  0.4969  0.5511  0.5939
   89SAPS  H11A 8555   0.671   1.650  10.903  0.8449 -3.2313  2.8568
   89SAPS  H11B 8556   0.741   1.659  11.074 -1.8593  0.3767  0.5946
   89SAPS     P 8557   0.983   1.591  10.935 -0.0292 -0.1924  0.3734
   89SAPS   O13 8558   1.100   1.645  11.002  0.6676  0.8448  0.0467
   89SAPS   O14 8559   0.918   1.480  11.014  0.3340 -0.4264 -0.5061
   89SAPS   O12 8560   0.883   1.712  10.921  0.3854  0.0356  0.6880
   89SAPS   O11 8561   1.012   1.528  10.789  0.2592 -0.7299  0.1714
   89SAPS    C1 8562   0.915   1.554  10.686 -0.4706 -0.1196 -0.5546
   89SAPS    HA 8563   0.831   1.482  10.694 -1.7537  1.3208 -0.5640
   89SAPS    HB 8564   0.876   1.658  10.693  1.3712  0.5701 -0.0555
   89SAPS    C2 8565   0.987   1.548  10.547 -0.6703  0.3312 -0.2153
   89SAPS    HS 8566   0.908   1.554  10.470 -3.2817 -1.5710  2.1033
   89SAPS   O21 8567   1.056   1.424  10.523  0.2740  0.3210  0.0779
   89SAPS   C21 8568   0.984   1.320  10.501 -0.2153 -0.0856 -0.3372
   89SAPS   O22 8569   0.865   1.316  10.487 -0.5306  0.0385  0.8003
   89SAPS   C22 8570   1.077   1.195  10.496  0.7042  0.3626  0.0933
   89SAPS   H2R 8571   1.115   1.175  10.598 -0.9912  1.0434  0.8812
   89SAPS   H2S 8572   1.019   1.111  10.453  0.5154  1.1725 -1.3222
   89SAPS    C3 8573   1.078   1.671  10.537 -0.2191  0.3945 -0.3825
   89SAPS    HX 8574   1.130   1.673  10.635  0.5855  0.9560 -0.8071
   89SAPS    HY 8575   1.019   1.764  10.532 -0.8912 -0.0215 -0.3155
   89SAPS   O31 8576   1.178   1.659  10.430 -0.9096  0.2983  0.5665
   89SAPS   C31 8577   1.142   1.659  10.305 -0.4787 -0.0437  0.1198
   89SAPS   O32 8578   1.027   1.683  10.262 -0.2708  0.0918 -0.3950
   89SAPS   C32 8579   1.259   1.628  10.216  0.2725 -0.3376  0.2191
   89SAPS   H2X 8580   1.287   1.525  10.247  0.4291 -0.0233  1.1738
   89SAPS   H2Y 8581   1.347   1.692  10.239  1.1788 -1.2961 -0.4995
   89SAPS   C23 8582   1.201   1.213  10.403 -0.5909  0.2612 -0.4696
   89SAPS   H3R 8583   1.270   1.129  10.426 -0.1955  0.9460  0.9970
   89SAPS   H3S 8584   1.253   1.302  10.444  0.7238 -0.9362  0.5929
   89SAPS   C24 8585   1.157   1.191  10.252  0.2992  0.6666 -0.2671
   89SAPS   H4R 8586   1.084   1.273  10.239  1.2795  1.3549 -1.7917
   89SAPS   H4S 8587   1.121   1.087  10.239  3.0792 -0.6272  1.3905
   89SAPS   C25 8588   1.274   1.214  10.158 -0.0227  0.2397 -0.1344
   89SAPS   H5R 8589   1.373   1.243  10.195 -0.2428  1.3870 -0.4157
   89SAPS   C26 8590   1.265   1.209  10.025  0.3705 -0.2903 -0.1710
   89SAPS   H6R 8591   1.351   1.233   9.961  0.4967 -0.6091 -0.1233
   89SAPS   C27 8592   1.138   1.168   9.950  0.2820 -0.0321 -0.2742
   89SAPS   H7R 8593   1.049   1.215   9.998  0.6283  0.4927 -0.1415
   89SAPS   H7S 8594   1.128   1.058   9.960  1.3116 -0.0490  0.6829
   89SAPS   C28 8595   1.138   1.211   9.808 -0.0168 -0.5888  0.0439
   89SAPS   H8R 8596   1.091   1.310   9.795  2.3049  1.0821  3.0407
   89SAPS   C29 8597   1.187   1.148   9.697 -0.2656 -0.3979  0.9650
   89SAPS   H9R 8598   1.180   1.204   9.603 -0.4390 -1.5476  0.2624
   89SAPS  C210 8599   1.268   1.018   9.691 -0.2116 -0.9689 -0.8110
   89SAPS  H10R 8600   1.282   0.982   9.795  0.1375 -1.8454 -1.1581
   89SAPS  H10S 8601   1.371   1.034   9.656  1.1410 -2.5353  2.0597
   89SAPS  C211 8602   1.196   0.908   9.614  0.7355  0.1124  0.9728
   89SAPS  H11R 8603   1.152   0.829   9.676  2.7450 -3.0847 -1.3420
   89SAPS  C212 8604   1.195   0.886   9.481 -0.6588 -0.0731  0.3331
   89SAPS  H12R 8605   1.131   0.807   9.442  0.0864 -0.9716  0.8954
   89SAPS  C213 8606   1.276   0.975   9.389 -0.4346 -0.0143  0.1978
   89SAPS  H13R 8607   1.370   0.916   9.382  0.3588  1.2781 -0.3566
   89SAPS  H13S 8608   1.287   1.068   9.447 -2.7204  1.3394 -1.3596
   89SAPS  C214 8609   1.213   1.007   9.250  0.2100  0.2348 -0.3086
   89SAPS  H14R 8610   1.143   0.929   9.216 -2.2573  0.5102  3.4882
   89SAPS  C215 8611   1.220   1.121   9.171  0.4402  0.3299  0.4929
   89SAPS  H15R 8612   1.154   1.122   9.083  2.3349  0.1362 -1.0288
   89SAPS  C216 8613   1.298   1.251   9.177  0.6633 -0.0371  0.2094
   89SAPS  H16R 8614   1.337   1.255   9.073 -0.1472  0.5375 -0.0840
   89SAPS  H16S 8615   1.390   1.234   9.238  0.5629 -1.4284  0.0075
   89SAPS  C217 8616   1.213   1.381   9.192  0.2263 -0.2015  0.5236
   89SAPS  H17R 8617   1.136   1.378   9.113  0.9668 -2.0236 -0.1832
   89SAPS  H17S 8618   1.279   1.466   9.165  1.8818 -1.2942  0.9279
   89SAPS  C218 8619   1.137   1.403   9.327  0.4639 -0.0823  0.2699
   89SAPS  H18R 8620   1.076   1.313   9.351 -2.5903  1.4605 -1.0448
   89SAPS  H18S 8621   1.062   1.478   9.294  0.5820 -0.3110 -0.5345
   89SAPS  C219 8622   1.228   1.450   9.434 -0.5802 -0.7637 -0.4647
   89SAPS  H19R 8623   1.288   1.528   9.383 -0.4418 -1.1095 -0.8351
   89SAPS  H19S 8624   1.309   1.377   9.456  0.4313  0.4232 -0.1576
   89SAPS  C220 8625   1.166   1.503   9.562  0.3942 -0.0226  0.3653
   89SAPS  H20R 8626   1.210   1.471   9.659  0.9917  1.4126  0.5879
   89SAPS  H20S 8627   1.061   1.465   9.570  0.2948 -1.0333 -3.5975
   89SAPS  H20T 8628   1.156   1.613   9.561  1.3292  0.1926  3.6623
   89SAPS   C33 8629   1.233   1.625  10.062  0.1853  0.0440  0.9080
   89SAPS   H3X 8630   1.139   1.567  10.047  0.5471 -0.6213  1.1626
   89SAPS   H3Y 8631   1.312   1.564  10.013 -0.7720 -1.4810  1.1744
   89SAPS   C34 8632   1.251   1.758   9.993 -0.1677 -0.0475 -0.6026
   89SAPS   H4X 8633   1.341   1.808  10.037  2.0385 -2.6985 -1.8046
   89SAPS   H4Y 8634   1.166   1.823  10.022 -0.7310 -0.6662 -0.8349
   89SAPS   C35 8635   1.252   1.755   9.845  0.5899 -0.1889  0.6505
   89SAPS   H5X 8636   1.157   1.708   9.814 -0.8716  3.1967 -0.5294
   89SAPS   H5Y 8637   1.326   1.681   9.807 -0.3803 -1.2492  0.7719
   89SAPS   C36 8638   1.265   1.889   9.770 -0.4612 -0.1207  0.4186
   89SAPS   H6X 8639   1.367   1.931   9.777  0.4056 -2.3474  2.4795
   89SAPS   H6Y 8640   1.184   1.960   9.798 -0.3854  0.9911 -1.9205
   89SAPS   C37 8641   1.243   1.855   9.615 -0.2955 -0.0291 -0.4176
   89SAPS   H7X 8642   1.148   1.802   9.596 -0.9724  1.0141  0.0076
   89SAPS   H7Y 8643   1.333   1.796   9.585  0.5858  0.9497  0.1938
   89SAPS   C38 8644   1.251   1.990   9.527 -0.9202  0.5875  0.3926
   89SAPS   H8X 8645   1.350   2.039   9.534 -0.7697  0.4232 -0.4711
   89SAPS   H8Y 8646   1.178   2.066   9.563 -0.3040  0.5693  1.7377
   89SAPS   C39 8647   1.214   1.963   9.384 -0.0654  0.2390  0.2303
   89SAPS   H9X 8648   1.181   2.052   9.327 -0.3447 -0.8793 -1.4271
   89SAPS   H9Y 8649   1.130   1.892   9.370  0.9118 -0.7780 -0.6985
   89SAPS  C310 8650   1.336   1.910   9.296  0.1575 -0.6572  0.1942
   89SAPS  H10X 8651   1.404   1.857   9.367  1.0947 -1.4807 -1.2546
   89SAPS  H10Y 8652   1.392   2.004   9.276 -1.0469  0.9476  3.6719
   89SAPS  C311 8653   1.289   1.825   9.174  0.5672 -0.4236  0.2718
   89SAPS  H11X 8654   1.197   1.874   9.137  0.7806 -1.1848 -1.3279
   89SAPS  H11Y 8655   1.267   1.720   9.201  1.6332 -0.7693 -0.1155
   89SAPS  C312 8656   1.405   1.799   9.075 -0.1777  0.2382 -0.5985
   89SAPS  H12X 8657   1.480   1.743   9.134  0.3959  3.7888  2.4342
   89SAPS  H12Y 8658   1.446   1.896   9.038 -0.4014  0.6163  0.1247
   89SAPS  C313 8659   1.355   1.700   8.962 -0.0448  0.0208 -0.3838
   89SAPS  H13X 8660   1.318   1.760   8.876  0.6945  2.2038  0.7231
   89SAPS  H13Y 8661   1.266   1.643   8.996  0.8302 -1.3934 -0.3985
   89SAPS  C314 8662   1.465   1.587   8.939 -0.7864 -0.0709 -0.2066
   89SAPS  H14X 8663   1.438   1.520   8.855  1.9558 -0.3067 -0.9757
   89SAPS  H14Y 8664   1.478   1.539   9.039  0.7088  3.2088  1.3061
   89SAPS  C315 8665   1.594   1.644   8.898  0.2034 -0.3116  0.5065
   89SAPS  H15X 8666   1.667   1.561   8.889  0.5351 -0.0323  0.5685
   89SAPS  H15Y 8667   1.647   1.715   8.966  1.5925  0.2595 -1.0923
   89SAPS  C316 8668   1.590   1.708   8.757 -0.0609  0.3183  0.3020
   89SAPS  H16X 8669   1.546   1.810   8.760  0.6208  0.7158 -1.4101
   89SAPS  H16Y 8670   1.526   1.647   8.689 -0.2047  0.1332  0.6002
   89SAPS  C317 8671   1.733   1.712   8.691 -0.8295 -0.0010  0.9107
   89SAPS  H17X 8672   1.795   1.621   8.706 -0.6894  0.1017  0.9663
   89SAPS  H17Y 8673   1.784   1.801   8.735 -1.9504  1.3710 -0.4419
   89SAPS  C318 8674   1.721   1.742   8.533  0.0501  0.4805 -0.2514
   89SAPS  H18X 8675   1.685   1.844   8.508  0.2456  0.6170  0.0097
   89SAPS  H18Y 8676   1.647   1.666   8.501  0.9187 -0.9681  0.9809
   89SAPS  H18Z 8677   1.816   1.732   8.476  0.2828 -1.1963  0.3526
   90SAPS     N 8678   5.209   0.665  10.816 -0.5619 -0.7381  0.0091
   90SAPS   HN1 8679   5.233   0.739  10.747 -1.2316 -0.0932  0.4575
   90SAPS   HN2 8680   5.291   0.653  10.878 -1.1898  0.3484  1.0750
   90SAPS   HN3 8681   5.201   0.576  10.762  0.0045 -1.1144  0.5431
   90SAPS   C12 8682   5.091   0.703  10.890 -0.6807 -0.3534  0.1077
   90SAPS  H12A 8683   5.098   0.637  10.976  3.7822  0.7075  0.7861
   90SAPS   C13 8684   5.094   0.852  10.937 -0.2277 -0.0350 -0.3618
   90SAPS  O13A 8685   5.196   0.917  10.910  0.2740  0.0860  0.8295
   90SAPS  O13B 8686   4.993   0.898  10.992  0.1974  0.4848  0.1387
   90SAPS   C11 8687   4.963   0.674  10.812  0.0761 -0.0541  0.4767
   90SAPS  H11A 8688   4.969   0.725  10.713  2.0642 -0.7398  0.1924
   90SAPS  H11B 8689   4.869   0.712  10.857  0.3884  0.2980  0.8455
   90SAPS     P 8690   4.808   0.478  10.747  0.3765 -0.0875  0.3282
   90SAPS   O13 8691   4.808   0.330  10.746  0.1220  0.4650  0.1668
   90SAPS   O14 8692   4.696   0.546  10.821 -0.5609  0.1622  0.1758
   90SAPS   O12 8693   4.948   0.533  10.796  0.5059  0.3394 -0.0639
   90SAPS   O11 8694   4.809   0.537  10.602 -0.1238 -0.5861  0.2145
   90SAPS    C1 8695   4.912   0.507  10.505 -0.3159  0.5962 -0.6650
   90SAPS    HA 8696   4.984   0.590  10.522 -0.4969  0.6950 -0.3653
   90SAPS    HB 8697   4.956   0.406  10.520  0.7581  0.7286 -2.6272
   90SAPS    C2 8698   4.867   0.489  10.356 -0.2591  0.2319 -1.0877
   90SAPS    HS 8699   4.853   0.380  10.339  1.1401  0.0340 -1.0845
   90SAPS   O21 8700   4.970   0.534  10.263  0.6109 -0.3942 -0.3744
   90SAPS   C21 8701   5.093   0.479  10.260  0.0887 -0.0987 -0.1776
   90SAPS   O22 8702   5.143   0.415  10.349 -0.6359  0.1620 -0.1835
   90SAPS   C22 8703   5.161   0.527  10.134 -0.4693 -0.2650  0.6266
   90SAPS   H2R 8704   5.144   0.635  10.113  1.5281 -0.1509 -0.6185
   90SAPS   H2S 8705   5.270   0.517  10.148 -0.1057  1.3440 -0.7251
   90SAPS    C3 8706   4.737   0.564  10.328 -0.2247  0.0092 -0.1930
   90SAPS    HX 8707   4.755   0.666  10.367 -1.7573 -0.5612  2.2800
   90SAPS    HY 8708   4.656   0.523  10.392  1.2344  2.3031  3.4337
   90SAPS   O31 8709   4.702   0.551  10.190  0.1192 -0.4609  0.1152
   90SAPS   C31 8710   4.725   0.654  10.109 -0.2627 -0.2622  0.5614
   90SAPS   O32 8711   4.770   0.765  10.141 -0.8054  0.5694 -0.2112
   90SAPS   C32 8712   4.677   0.607   9.967 -0.5322 -0.6844 -0.3269
   90SAPS   H2X 8713   4.580   0.555   9.982  0.4699 -2.1151  1.7573
   90SAPS   H2Y 8714   4.758   0.548   9.919 -0.8709  0.3532 -2.2456
   90SAPS   C23 8715   5.084   0.445  10.018 -0.4488 -0.9679 -0.1405
   90SAPS   H3R 8716   4.975   0.451  10.037  0.0321  1.4758  2.6720
   90SAPS   H3S 8717   5.120   0.340  10.016  1.2994 -0.4517  1.3646
   90SAPS   C24 8718   5.114   0.507   9.879 -0.4892  0.3346 -0.2630
   90SAPS   H4R 8719   5.223   0.520   9.863 -0.6980  0.6236 -1.5968
   90SAPS   H4S 8720   5.080   0.613   9.882  1.3979  0.9908 -1.0081
   90SAPS   C25 8721   5.042   0.429   9.768 -0.9671  0.1997  0.1116
   90SAPS   H5R 8722   4.932   0.432   9.779 -0.9983 -0.6090  0.0973
   90SAPS   C26 8723   5.087   0.356   9.667  0.3909 -0.0825  0.3726
   90SAPS   H6R 8724   5.019   0.315   9.592 -0.7720  0.1810  1.2572
   90SAPS   C27 8725   5.234   0.354   9.639 -0.6961 -0.4190  0.0487
   90SAPS   H7R 8726   5.303   0.348   9.725 -0.7623 -1.4965  0.0437
   90SAPS   H7S 8727   5.251   0.438   9.568  2.1099 -0.5775  0.4277
   90SAPS   C28 8728   5.266   0.230   9.562  0.7976 -0.4747  0.1812
   90SAPS   H8R 8729   5.290   0.145   9.628 -1.0013 -1.3163 -0.1819
   90SAPS   C29 8730   5.246   0.211   9.430 -0.6666  0.8599  0.5804
   90SAPS   H9R 8731   5.280   0.114   9.392  0.0344  0.1794  2.7520
   90SAPS  C210 8732   5.192   0.294   9.315  0.4456  0.5915 -0.0762
   90SAPS  H10R 8733   5.138   0.380   9.361 -2.5439 -1.7405  1.1828
   90SAPS  H10S 8734   5.106   0.240   9.271 -1.2793  0.6504  2.9057
   90SAPS  C211 8735   5.305   0.323   9.216 -0.2338  0.6796 -0.5842
   90SAPS  H11R 8736   5.406   0.319   9.258 -0.2210  1.4096 -0.5363
   90SAPS  C212 8737   5.280   0.343   9.082  0.2635  0.2237 -0.6278
   90SAPS  H12R 8738   5.361   0.384   9.019 -1.0215  4.3554  0.0911
   90SAPS  C213 8739   5.148   0.344   9.011 -0.1703  0.4819 -0.1081
   90SAPS  H13R 8740   5.156   0.433   8.945 -0.6610  1.3502  0.9868
   90SAPS  H13S 8741   5.059   0.346   9.077  2.2547 -1.2233  3.5146
   90SAPS  C214 8742   5.137   0.213   8.927 -0.1266 -0.2430  0.0761
   90SAPS  H14R 8743   5.142   0.121   8.987  1.2714  0.3395  0.9074
   90SAPS  C215 8744   5.107   0.203   8.793  0.3781  0.1473 -0.9614
   90SAPS  H15R 8745   5.097   0.102   8.752  2.4315  0.2747 -1.9391
   90SAPS  C216 8746   5.081   0.307   8.689  0.4957  0.5202  0.4007
   90SAPS  H16R 8747   5.157   0.293   8.609  0.7744  0.9444  0.5845
   90SAPS  H16S 8748   5.103   0.406   8.734 -0.2817  0.7105  0.3665
   90SAPS  C217 8749   4.940   0.313   8.627 -0.2694  0.0876  0.5149
   90SAPS  H17R 8750   4.866   0.367   8.689 -0.3638  1.3248 -0.6356
   90SAPS  H17S 8751   4.894   0.213   8.613  1.7902 -0.8434  0.0482
   90SAPS  C218 8752   4.952   0.379   8.485  0.4325  0.2446  0.3047
   90SAPS  H18R 8753   5.020   0.316   8.425 -1.8715 -0.6496 -1.5165
   90SAPS  H18S 8754   4.998   0.480   8.492 -0.5523  0.7666 -0.4139
   90SAPS  C219 8755   4.817   0.399   8.414  0.0276 -1.1625 -0.5861
   90SAPS  H19R 8756   4.829   0.461   8.323 -1.0446  0.0808  0.0817
   90SAPS  H19S 8757   4.739   0.444   8.479 -0.7824 -2.5839 -0.5348
   90SAPS  C220 8758   4.751   0.271   8.359  0.2627  0.0350 -0.0837
   90SAPS  H20R 8759   4.749   0.195   8.440 -0.3696 -0.3434 -0.4494
   90SAPS  H20S 8760   4.808   0.213   8.284  0.4383 -1.7836  1.3591
   90SAPS  H20T 8761   4.652   0.298   8.316 -0.0147 -0.5604  0.1680
   90SAPS   C33 8762   4.663   0.719   9.860 -0.0902 -0.7317  0.2257
   90SAPS   H3X 8763   4.763   0.763   9.842 -0.3282  0.0735  0.8305
   90SAPS   H3Y 8764   4.600   0.795   9.910 -0.3583  0.3320 -1.6336
   90SAPS   C34 8765   4.593   0.677   9.730  0.2760  0.1571 -0.1214
   90SAPS   H4X 8766   4.602   0.768   9.666 -2.5328  0.0754 -0.7810
   90SAPS   H4Y 8767   4.485   0.653   9.731  0.0709  0.9861 -0.8669
   90SAPS   C35 8768   4.654   0.560   9.651 -0.2870  0.1392  0.0963
   90SAPS   H5X 8769   4.572   0.508   9.598  1.1627 -1.0759 -1.0746
   90SAPS   H5Y 8770   4.695   0.485   9.723 -0.8115 -1.4460 -1.1897
   90SAPS   C36 8771   4.760   0.608   9.552  0.7159 -0.2166 -0.1841
   90SAPS   H6X 8772   4.845   0.638   9.617  2.3089 -0.5027 -2.0646
   90SAPS   H6Y 8773   4.731   0.694   9.488  3.1840  1.5167  0.8960
   90SAPS   C37 8774   4.811   0.488   9.476 -0.4240 -0.1142  0.4680
   90SAPS   H7X 8775   4.819   0.394   9.535 -2.4496  0.0156  1.0318
   90SAPS   H7Y 8776   4.909   0.523   9.436 -0.7721 -0.7234 -0.9396
   90SAPS   C38 8777   4.721   0.451   9.357  0.4095  0.1417  0.0503
   90SAPS   H8X 8778   4.700   0.546   9.304  0.7685 -0.8120 -1.9196
   90SAPS   H8Y 8779   4.620   0.417   9.388  0.7181 -1.3133 -0.4543
   90SAPS   C39 8780   4.786   0.358   9.254 -0.2319 -0.3181 -0.3212
   90SAPS   H9X 8781   4.848   0.285   9.310  0.2979 -0.2966 -0.8669
   90SAPS   H9Y 8782   4.862   0.417   9.198 -1.2046 -0.4808 -1.8657
   90SAPS  C310 8783   4.695   0.287   9.151  0.2264 -0.1054 -0.0764
   90SAPS  H10X 8784   4.646   0.360   9.084  0.0177 -1.2055 -1.1630
   90SAPS  H10Y 8785   4.619   0.233   9.211 -1.2422  1.2846 -0.6178
   90SAPS  C311 8786   4.773   0.198   9.047 -0.1358 -0.8087  0.2899
   90SAPS  H11X 8787   4.808   0.111   9.107  0.3569  0.3400  1.7493
   90SAPS  H11Y 8788   4.856   0.248   8.993 -0.7930 -1.1965 -1.1317
   90SAPS  C312 8789   4.692   0.147   8.923  0.7876 -0.9961 -0.9674
   90SAPS  H12X 8790   4.667   0.233   8.858 -0.9723 -0.6043  0.1595
   90SAPS  H12Y 8791   4.587   0.119   8.945 -0.0866  0.1485 -3.3275
   90SAPS  C313 8792   4.757   0.029   8.850  0.0180 -0.5647 -0.0404
   90SAPS  H13X 8793   4.765  -0.060   8.916  1.8142 -0.3799  0.0431
   90SAPS  H13Y 8794   4.863   0.060   8.836 -0.2065  0.9059  1.3209
   90SAPS  C314 8795   4.694   0.001   8.716 -0.4623 -1.0060 -0.4537
   90SAPS  H14X 8796   4.717   0.080   8.641  0.1189  1.3276  2.0028
   90SAPS  H14Y 8797   4.583  -0.007   8.724 -0.5166 -0.5559 -0.6959
   90SAPS  C315 8798   4.751  -0.129   8.661  0.3057  0.4300 -0.1006
   90SAPS  H15X 8799   4.725  -0.206   8.737  0.0079 -1.0485 -1.6432
   90SAPS  H15Y 8800   4.860  -0.116   8.649  0.3885 -0.8609 -1.0241
   90SAPS  C316 8801   4.696  -0.177   8.521 -0.9049  0.6054 -0.4466
   90SAPS  H16X 8802   4.585  -0.173   8.533 -1.0119 -0.8704 -0.7954
   90SAPS  H16Y 8803   4.728  -0.283   8.513 -2.6173  0.0163 -0.1162
   90SAPS  C317 8804   4.742  -0.098   8.401  0.0825 -0.2086 -0.4766
   90SAPS  H17X 8805   4.850  -0.078   8.410 -0.4079  1.6399  2.4402
   90SAPS  H17Y 8806   4.694   0.002   8.406 -2.5752 -1.3413 -1.3656
   90SAPS  C318 8807   4.696  -0.172   8.273  0.3994  0.7872  0.5239
   90SAPS  H18X 8808   4.780  -0.228   8.228  0.3674  0.7498  0.5115
   90SAPS  H18Y 8809   4.650  -0.100   8.202 -3.1266  1.2064  2.9488
   90SAPS  H18Z 8810   4.622  -0.252   8.295 -0.2130  1.9124  2.9950
   91SAPS     N 8811   2.365   3.678   6.242 -0.4700 -0.3113  0.3765
   91SAPS   HN1 8812   2.451   3.640   6.197 -1.2439  0.6927 -2.1070
   91SAPS   HN2 8813   2.381   3.663   6.343  1.0598 -3.2610 -0.1994
   91SAPS   HN3 8814   2.288   3.624   6.196 -2.6925  0.8402  2.5333
   91SAPS   C12 8815   2.353   3.812   6.195  0.0039 -0.3964  0.0635
   91SAPS  H12A 8816   2.374   3.811   6.089 -2.6185  0.0791 -0.5356
   91SAPS   C13 8817   2.217   3.888   6.206  0.6567  0.6350 -0.0061
   91SAPS  O13A 8818   2.110   3.833   6.248  0.3817  0.2539 -0.1261
   91SAPS  O13B 8819   2.216   4.013   6.183 -0.3031 -0.0469  0.2082
   91SAPS   C11 8820   2.461   3.909   6.265  0.0117 -0.3901  0.2544
   91SAPS  H11A 8821   2.447   3.893   6.374  0.4460 -0.4616  0.3032
   91SAPS  H11B 8822   2.433   4.015   6.246  1.3656  0.6309  3.2402
   91SAPS     P 8823   2.704   3.973   6.202 -0.2723  0.0472 -0.1108
   91SAPS   O13 8824   2.839   3.906   6.206 -0.0740  0.1003  0.3176
   91SAPS   O14 8825   2.673   4.037   6.077  0.0774  0.2888  0.3662
   91SAPS   O12 8826   2.589   3.868   6.233  0.4296  0.5739  0.2841
   91SAPS   O11 8827   2.698   4.083   6.321 -0.3048 -0.1268  0.1271
   91SAPS    C1 8828   2.808   4.118   6.403 -0.1576 -0.1777 -0.8128
   91SAPS    HA 8829   2.898   4.125   6.338 -1.3659 -2.3380 -2.8699
   91SAPS    HB 8830   2.801   4.221   6.442  1.0274 -1.3230  2.8353
   91SAPS    C2 8831   2.826   4.013   6.512 -0.0176 -0.4892 -0.1552
   91SAPS    HS 8832   2.849   3.916   6.463  2.0647  0.1782 -0.6428
   91SAPS   O21 8833   2.696   4.010   6.587 -0.2690 -0.3120 -0.3595
   91SAPS   C21 8834   2.675   3.901   6.654  0.0806  0.4761 -0.1364
   91SAPS   O22 8835   2.744   3.800   6.643  0.6679 -0.1030  0.0847
   91SAPS   C22 8836   2.555   3.902   6.739  0.3071  0.2042 -0.0637
   91SAPS   H2R 8837   2.470   3.913   6.668 -0.4824 -1.3705  0.5882
   91SAPS   H2S 8838   2.532   3.807   6.794  2.3911 -1.0534 -1.2377
   91SAPS    C3 8839   2.949   4.050   6.607  0.7641 -0.0089 -0.5052
   91SAPS    HX 8840   2.942   4.157   6.634  1.8381  0.3772 -1.6456
   91SAPS    HY 8841   3.048   4.048   6.555  0.8680  0.9396 -0.3540
   91SAPS   O31 8842   2.938   3.979   6.738  0.2772 -0.1908  0.5500
   91SAPS   C31 8843   3.047   3.906   6.756 -0.0583  0.2433 -0.9096
   91SAPS   O32 8844   3.147   3.902   6.693  0.4310 -0.3876 -0.1825
   91SAPS   C32 8845   3.017   3.806   6.870 -0.5076 -0.0474 -0.2636
   91SAPS   H2X 8846   2.942   3.729   6.841  0.5186 -1.1361 -0.1287
   91SAPS   H2Y 8847   2.965   3.862   6.950  1.0625  0.3112  0.5322
   91SAPS   C23 8848   2.555   4.013   6.851  0.6116 -0.1350 -0.6217
   91SAPS   H3R 8849   2.451   4.020   6.890  0.8254  1.5288 -0.2818
   91SAPS   H3S 8850   2.579   4.112   6.807 -0.2763  0.9330  1.1887
   91SAPS   C24 8851   2.646   3.992   6.977 -0.2913 -0.0498  0.0353
   91SAPS   H4R 8852   2.651   4.084   7.040 -0.2467  0.2937 -0.4689
   91SAPS   H4S 8853   2.748   3.973   6.936 -0.5538 -0.4103 -0.4502
   91SAPS   C25 8854   2.602   3.872   7.054  0.2023 -0.6795  0.6472
   91SAPS   H5R 8855   2.597   3.779   6.995  0.5491 -0.0683 -0.3598
   91SAPS   C26 8856   2.562   3.870   7.181 -0.8296  0.0625  0.1453
   91SAPS   H6R 8857   2.525   3.776   7.226  2.2160 -1.4548 -0.2844
   91SAPS   C27 8858   2.561   3.991   7.268  0.0560  0.7351  0.4592
   91SAPS   H7R 8859   2.525   4.075   7.206 -1.1033  0.7759  1.1723
   91SAPS   H7S 8860   2.666   4.009   7.302  0.5564 -3.9344  2.1369
   91SAPS   C28 8861   2.468   3.985   7.390 -0.2477  0.2098  0.1158
   91SAPS   H8R 8862   2.365   3.962   7.359 -0.4233  2.6408 -1.3681
   91SAPS   C29 8863   2.498   4.001   7.522  0.8761 -0.2340 -0.5955
   91SAPS   H9R 8864   2.417   4.009   7.595  2.0049  0.7662  0.6000
   91SAPS  C210 8865   2.635   4.021   7.591 -0.4144 -0.5885 -0.1513
   91SAPS  H10R 8866   2.718   4.016   7.517  0.7952  4.4289  0.4760
   91SAPS  H10S 8867   2.651   3.930   7.653 -1.2469 -1.0277 -0.5572
   91SAPS  C211 8868   2.649   4.154   7.667 -0.1220  0.3430  0.7438
   91SAPS  H11R 8869   2.606   4.238   7.611 -0.4783  0.0092  0.5115
   91SAPS  C212 8870   2.699   4.179   7.783  0.0333 -0.2043 -0.2312
   91SAPS  H12R 8871   2.685   4.280   7.823 -2.3174 -0.1983 -0.9227
   91SAPS  C213 8872   2.766   4.082   7.881  0.9193 -0.4364  0.6275
   91SAPS  H13R 8873   2.865   4.119   7.913  0.2445  0.8787  1.2816
   91SAPS  H13S 8874   2.773   3.982   7.834 -0.7057 -0.4267  0.2865
   91SAPS  C214 8875   2.684   4.072   8.009 -0.1110  0.0395 -0.1193
   91SAPS  H14R 8876   2.581   4.037   8.006 -0.1099 -0.0510  0.6293
   91SAPS  C215 8877   2.723   4.102   8.131 -0.6274 -0.3953 -0.0907
   91SAPS  H15R 8878   2.649   4.105   8.213 -0.7871  0.6967 -0.2572
   91SAPS  C216 8879   2.860   4.152   8.169  0.3529  0.9371 -0.5473
   91SAPS  H16R 8880   2.870   4.260   8.147  1.2093  0.7614 -1.0687
   91SAPS  H16S 8881   2.940   4.106   8.108 -0.5230 -2.1344  0.4246
   91SAPS  C217 8882   2.898   4.131   8.322 -0.5151 -0.1547 -0.4891
   91SAPS  H17R 8883   2.987   4.195   8.340 -1.7437  1.9832 -1.5445
   91SAPS  H17S 8884   2.926   4.027   8.349 -0.1547 -0.0923 -0.6165
   91SAPS  C218 8885   2.790   4.196   8.411 -0.5988 -0.5217  0.2561
   91SAPS  H18R 8886   2.719   4.257   8.352  0.3604 -0.4364 -0.8657
   91SAPS  H18S 8887   2.835   4.261   8.489  2.1614 -1.3403 -0.5454
   91SAPS  C219 8888   2.715   4.088   8.493 -0.5750  0.0562  0.0288
   91SAPS  H19R 8889   2.799   4.044   8.552 -0.7523  0.1467  0.3504
   91SAPS  H19S 8890   2.673   4.021   8.415 -1.4282  1.4508 -0.7581
   91SAPS  C220 8891   2.602   4.151   8.578  0.1686 -1.3283 -0.0881
   91SAPS  H20R 8892   2.655   4.242   8.614  1.2189 -0.6637 -3.0040
   91SAPS  H20S 8893   2.561   4.080   8.653  0.5529 -3.5318 -1.8878
   91SAPS  H20T 8894   2.526   4.186   8.505 -1.7340 -2.9748  0.9995
   91SAPS   C33 8895   3.148   3.736   6.917  0.1379 -0.1730 -0.1428
   91SAPS   H3X 8896   3.209   3.818   6.961  0.4715 -0.0821 -0.7631
   91SAPS   H3Y 8897   3.210   3.679   6.844  1.0280  1.6712 -0.8955
   91SAPS   C34 8898   3.126   3.636   7.040 -1.1420  0.1632  0.0115
   91SAPS   H4X 8899   3.219   3.575   7.035 -0.9077  0.5765 -0.9128
   91SAPS   H4Y 8900   3.045   3.564   7.020 -0.9999 -0.9731  3.0867
   91SAPS   C35 8901   3.103   3.706   7.169 -0.8636  0.1601  0.1175
   91SAPS   H5X 8902   3.023   3.781   7.148  0.8789  2.1599  0.3335
   91SAPS   H5Y 8903   3.187   3.774   7.193  0.8264 -1.0931 -1.8976
   91SAPS   C36 8904   3.062   3.626   7.289  0.0061  0.4506  0.1689
   91SAPS   H6X 8905   3.140   3.554   7.320  1.0486  2.3292  2.1590
   91SAPS   H6Y 8906   2.972   3.565   7.263 -0.1944  1.0923 -0.7146
   91SAPS   C37 8907   3.040   3.708   7.418  0.0906 -0.5961  0.3294
   91SAPS   H7X 8908   2.973   3.795   7.401  0.1662  0.1477  3.2136
   91SAPS   H7Y 8909   3.139   3.754   7.440 -0.4861  0.2771  1.1935
   91SAPS   C38 8910   3.012   3.624   7.537  0.3002  0.5928 -0.2633
   91SAPS   H8X 8911   3.087   3.543   7.539  0.4329  0.6936 -0.9008
   91SAPS   H8Y 8912   2.914   3.572   7.529  1.7573 -2.3789 -0.0738
   91SAPS   C39 8913   3.006   3.716   7.659  0.1380  0.0076 -0.8927
   91SAPS   H9X 8914   2.931   3.798   7.657  0.1179  0.0447  0.4322
   91SAPS   H9Y 8915   3.099   3.777   7.659  0.0305  0.2000  0.7940
   91SAPS  C310 8916   3.001   3.639   7.793  0.2903  0.2075 -0.4059
   91SAPS  H10X 8917   3.081   3.563   7.801 -0.4223 -0.5296 -0.0804
   91SAPS  H10Y 8918   2.905   3.585   7.777  0.5084  0.1983 -1.8261
   91SAPS  C311 8919   2.986   3.732   7.915 -0.3608  1.3003  0.1973
   91SAPS  H11X 8920   2.908   3.811   7.903 -1.9116  0.2671  2.7538
   91SAPS  H11Y 8921   3.089   3.774   7.914  1.0107 -1.7547 -1.8615
   91SAPS  C312 8922   2.951   3.662   8.042  0.5414  0.2381 -0.6282
   91SAPS  H12X 8923   2.852   3.612   8.045  0.0679  1.1102 -1.4054
   91SAPS  H12Y 8924   2.961   3.740   8.121  2.1169  0.6623 -1.2007
   91SAPS  C313 8925   3.052   3.553   8.088  0.7593  0.3516 -0.3012
   91SAPS  H13X 8926   3.149   3.605   8.072  0.2305  1.4995  0.1381
   91SAPS  H13Y 8927   3.051   3.460   8.027 -0.8720 -1.0083  1.6634
   91SAPS  C314 8928   3.041   3.515   8.244 -0.1220 -0.5884  0.6537
   91SAPS  H14X 8929   2.957   3.447   8.269  0.7627 -1.0650  2.4233
   91SAPS  H14Y 8930   3.013   3.611   8.293  1.2503 -0.3913  1.1007
   91SAPS  C315 8931   3.183   3.475   8.289  0.2028 -0.4090  0.7793
   91SAPS  H15X 8932   3.254   3.554   8.258  0.0558 -0.0641  1.3123
   91SAPS  H15Y 8933   3.214   3.375   8.253 -1.3815 -1.4760  2.1707
   91SAPS  C316 8934   3.187   3.473   8.440  0.1766  0.4419 -0.7174
   91SAPS  H16X 8935   3.136   3.378   8.467  0.1250  0.1933 -1.6620
   91SAPS  H16Y 8936   3.118   3.551   8.479 -2.3282 -1.1144 -1.7639
   91SAPS  C317 8937   3.328   3.478   8.497  0.2972  0.3813 -0.4272
   91SAPS  H17X 8938   3.312   3.440   8.600  0.0582  0.0161 -0.5949
   91SAPS  H17Y 8939   3.371   3.580   8.507 -0.3934  0.4276  3.0669
   91SAPS  C318 8940   3.431   3.389   8.430 -0.4800 -0.4632 -0.4389
   91SAPS  H18X 8941   3.532   3.409   8.474 -0.7326  0.5851 -0.3077
   91SAPS  H18Y 8942   3.443   3.420   8.324 -1.5994 -0.3022 -0.5316
   91SAPS  H18Z 8943   3.406   3.281   8.433  1.7352 -1.0325 -0.3676
   92SAPS     N 8944   0.258   2.257   6.438 -0.4508  0.2504 -0.0606
   92SAPS   HN1 8945   0.277   2.248   6.336 -1.3572  0.6159 -0.2723
   92SAPS   HN2 8946   0.257   2.157   6.466  0.8022  0.0275 -0.7337
   92SAPS   HN3 8947   0.169   2.305   6.461 -3.1010 -4.3056  0.3065
   92SAPS   C12 8948   0.380   2.332   6.496 -0.2552  0.5832 -0.1596
   92SAPS  H12A 8949   0.462   2.264   6.515 -0.4327 -0.0858 -1.6761
   92SAPS   C13 8950   0.433   2.433   6.392  0.4210  0.4567  0.3863
   92SAPS  O13A 8951   0.381   2.435   6.277  0.0789  0.4833  0.4542
   92SAPS  O13B 8952   0.534   2.502   6.420 -0.2515 -0.0534  0.3333
   92SAPS   C11 8953   0.339   2.398   6.633  0.0537 -0.1708  0.0954
   92SAPS  H11A 8954   0.417   2.463   6.678  0.1805 -1.1453  1.3589
   92SAPS  H11B 8955   0.318   2.312   6.701  1.7038 -0.6596  0.0143
   92SAPS     P 8956   0.168   2.601   6.629 -0.0548 -0.1083  0.0366
   92SAPS   O13 8957   0.209   2.677   6.508 -0.4640 -0.3522  0.2078
   92SAPS   O14 8958   0.022   2.606   6.649 -0.5361  0.4070  0.2366
   92SAPS   O12 8959   0.210   2.454   6.620 -0.2237 -0.0805 -0.2376
   92SAPS   O11 8960   0.244   2.662   6.758  0.5667 -0.0553  0.2526
   92SAPS    C1 8961   0.218   2.799   6.796 -0.0968  0.4889 -0.5088
   92SAPS    HA 8962   0.215   2.870   6.711  0.3642  0.5852 -0.4447
   92SAPS    HB 8963   0.118   2.801   6.845  0.2645 -0.4194  0.3006
   92SAPS    C2 8964   0.317   2.841   6.911  0.0527 -0.8162  0.7704
   92SAPS    HS 8965   0.419   2.823   6.872 -0.4719  1.7010 -2.1549
   92SAPS   O21 8966   0.288   2.767   7.030  0.6784  0.2085 -0.3226
   92SAPS   C21 8967   0.340   2.643   7.038 -0.1452 -0.7438  0.4336
   92SAPS   O22 8968   0.435   2.606   6.967  0.4030 -0.6472 -0.5717
   92SAPS   C22 8969   0.265   2.576   7.147  0.3868  0.1040 -0.0988
   92SAPS   H2R 8970   0.250   2.656   7.222 -0.0381  0.0174 -0.0874
   92SAPS   H2S 8971   0.162   2.557   7.111  0.2369  2.1627 -0.9022
   92SAPS    C3 8972   0.307   2.994   6.932  0.3665 -0.2539 -0.3935
   92SAPS    HX 8973   0.202   3.027   6.947 -0.1540 -1.8331 -0.3813
   92SAPS    HY 8974   0.352   3.032   6.838  0.1016  1.5008  0.1495
   92SAPS   O31 8975   0.386   3.035   7.051  0.0680  0.6819 -0.0939
   92SAPS   C31 8976   0.523   3.031   7.035  0.5548  0.6459 -0.4606
   92SAPS   O32 8977   0.574   2.988   6.932  0.4950 -0.2911 -0.6688
   92SAPS   C32 8978   0.595   3.095   7.151 -0.0618  0.1184  0.2919
   92SAPS   H2X 8979   0.524   3.097   7.236  0.0552  3.2113  0.4458
   92SAPS   H2Y 8980   0.619   3.195   7.109 -0.9475  0.2216  0.0229
   92SAPS   C23 8981   0.321   2.444   7.212  0.5498 -0.1409 -0.1233
   92SAPS   H3R 8982   0.426   2.469   7.240  0.3419  2.1131 -1.1110
   92SAPS   H3S 8983   0.328   2.366   7.134  0.1207  3.0073 -3.6341
   92SAPS   C24 8984   0.226   2.417   7.335  0.0731 -1.0621 -0.0883
   92SAPS   H4R 8985   0.129   2.390   7.287 -1.0579  0.3683  1.2849
   92SAPS   H4S 8986   0.206   2.506   7.399 -0.2231  0.3110 -2.0147
   92SAPS   C25 8987   0.280   2.302   7.411 -0.2171 -1.0905 -0.1802
   92SAPS   H5R 8988   0.307   2.220   7.343 -3.7989 -1.1516 -1.7524
   92SAPS   C26 8989   0.310   2.291   7.537 -0.0880 -0.2571  0.4040
   92SAPS   H6R 8990   0.356   2.195   7.564 -1.3611 -1.1593 -0.5212
   92SAPS   C27 8991   0.299   2.400   7.636 -0.2328  0.0958  0.5404
   92SAPS   H7R 8992   0.281   2.494   7.581 -1.6389  0.1315  1.0065
   92SAPS   H7S 8993   0.389   2.403   7.702  0.0505 -0.7126  0.2011
   92SAPS   C28 8994   0.181   2.369   7.730 -0.3554  0.1064 -0.1086
   92SAPS   H8R 8995   0.088   2.349   7.674  0.2352 -0.4148 -0.9151
   92SAPS   C29 8996   0.189   2.342   7.862  0.6548  0.3820 -0.1458
   92SAPS   H9R 8997   0.098   2.309   7.916  0.3088  3.5514  1.4297
   92SAPS  C210 8998   0.309   2.338   7.950 -0.6689 -0.2798 -0.5997
   92SAPS  H10R 8999   0.404   2.363   7.897 -0.4610 -1.9448 -1.0680
   92SAPS  H10S 9000   0.329   2.234   7.982  3.0387  0.4334 -0.0350
   92SAPS  C211 9001   0.284   2.432   8.066  0.5114  0.3401  0.2318
   92SAPS  H11R 9002   0.201   2.505   8.059  1.2536  1.0936 -1.0809
   92SAPS  C212 9003   0.364   2.441   8.173  0.0061 -0.0819 -0.3976
   92SAPS  H12R 9004   0.360   2.530   8.239  0.7671 -0.4577  0.1677
   92SAPS  C213 9005   0.484   2.357   8.201 -0.9567  0.2617 -0.8932
   92SAPS  H13R 9006   0.546   2.338   8.111  0.2672  0.1360 -0.0405
   92SAPS  H13S 9007   0.445   2.258   8.232  1.6564 -0.7485 -0.6167
   92SAPS  C214 9008   0.573   2.400   8.317 -0.0784 -0.5344 -0.5057
   92SAPS  H14R 9009   0.673   2.430   8.284 -0.2437  1.5560  0.7075
   92SAPS  C215 9010   0.549   2.399   8.449  0.6930  0.3570 -0.0838
   92SAPS  H15R 9011   0.609   2.448   8.527 -1.2711  1.4101  0.8470
   92SAPS  C216 9012   0.415   2.355   8.502 -0.0006  0.1325 -0.4304
   92SAPS  H16R 9013   0.375   2.276   8.435 -1.8342  0.4307  0.2416
   92SAPS  H16S 9014   0.340   2.437   8.500 -3.0070 -2.4503 -0.5743
   92SAPS  C217 9015   0.426   2.285   8.635 -0.0127  0.1986 -0.4495
   92SAPS  H17R 9016   0.330   2.268   8.688  1.4138  0.1326  2.3078
   92SAPS  H17S 9017   0.475   2.350   8.711 -0.5575 -1.7590  1.6693
   92SAPS  C218 9018   0.500   2.150   8.627  0.2753  0.2689  0.0703
   92SAPS  H18R 9019   0.602   2.177   8.592 -0.3030 -0.4658 -2.3613
   92SAPS  H18S 9020   0.452   2.073   8.564  0.0633 -1.8389  2.6590
   92SAPS  C219 9021   0.517   2.077   8.761 -0.1164  0.5914 -0.2395
   92SAPS  H19R 9022   0.418   2.077   8.811 -0.6425  2.2830 -1.1908
   92SAPS  H19S 9023   0.587   2.135   8.825  0.2698 -1.3182  1.1545
   92SAPS  C220 9024   0.573   1.929   8.744  0.3228  0.6924  0.5621
   92SAPS  H20R 9025   0.507   1.877   8.670  0.6046  3.4882 -1.8479
   92SAPS  H20S 9026   0.567   1.880   8.843  0.8291 -1.4097 -0.3802
   92SAPS  H20T 9027   0.674   1.932   8.698  0.1770  0.0562  0.1789
   92SAPS   C33 9028   0.718   3.013   7.172 -0.0387 -0.5640  1.1780
   92SAPS   H3X 9029   0.786   3.045   7.253  3.9656 -4.5632 -0.1740
   92SAPS   H3Y 9030   0.781   3.003   7.081 -0.0234 -2.2855  1.3381
   92SAPS   C34 9031   0.686   2.862   7.200  0.1403  0.2441  0.4230
   92SAPS   H4X 9032   0.777   2.799   7.186  0.3728  0.8374 -0.9401
   92SAPS   H4Y 9033   0.606   2.829   7.130  1.9271 -0.8838 -1.1849
   92SAPS   C35 9034   0.632   2.853   7.345  0.0895  0.0090 -0.3011
   92SAPS   H5X 9035   0.556   2.934   7.356 -0.2122 -0.1931 -0.8338
   92SAPS   H5Y 9036   0.725   2.865   7.405  1.0302  1.1437 -1.9141
   92SAPS   C36 9037   0.584   2.713   7.379 -0.7118 -0.1969 -0.6408
   92SAPS   H6X 9038   0.632   2.642   7.308  1.2122 -1.1379  1.4801
   92SAPS   H6Y 9039   0.475   2.694   7.376 -0.6684 -0.5272 -0.1702
   92SAPS   C37 9040   0.619   2.670   7.526  0.0379  0.1717 -0.1050
   92SAPS   H7X 9041   0.726   2.691   7.548 -0.2628 -0.8754  2.8679
   92SAPS   H7Y 9042   0.590   2.563   7.539  0.4381 -0.0118 -0.6621
   92SAPS   C38 9043   0.535   2.755   7.631  0.1380 -0.2226 -0.6282
   92SAPS   H8X 9044   0.430   2.721   7.622 -0.4912  0.6406  2.2802
   92SAPS   H8Y 9045   0.551   2.862   7.606  1.4488 -0.2714 -0.1172
   92SAPS   C39 9046   0.581   2.724   7.774 -0.2698 -0.5614  0.1939
   92SAPS   H9X 9047   0.680   2.771   7.795  0.0236  0.0394 -2.2643
   92SAPS   H9Y 9048   0.579   2.615   7.792  0.5509 -0.3660  1.7093
   92SAPS  C310 9049   0.478   2.783   7.874  0.3428 -0.2504 -0.1503
   92SAPS  H10X 9050   0.375   2.748   7.853 -0.6549  1.9662  0.8171
   92SAPS  H10Y 9051   0.475   2.892   7.855  1.0642 -0.0683  0.7528
   92SAPS  C311 9052   0.515   2.769   8.016  0.3468 -0.1331 -0.6219
   92SAPS  H11X 9053   0.619   2.807   8.027  0.9868 -0.9359 -3.1929
   92SAPS  H11Y 9054   0.509   2.664   8.052 -0.2786  0.2554  0.4789
   92SAPS  C312 9055   0.407   2.839   8.101  0.0699 -0.9079  0.5550
   92SAPS  H12X 9056   0.306   2.793   8.110 -1.4793  2.3866  1.4744
   92SAPS  H12Y 9057   0.405   2.940   8.056 -0.2277 -0.9267  0.5258
   92SAPS  C313 9058   0.476   2.878   8.236 -0.8513  0.2509  1.1747
   92SAPS  H13X 9059   0.563   2.945   8.224 -0.9326 -0.0551 -1.7614
   92SAPS  H13Y 9060   0.517   2.785   8.281 -2.4248 -1.5514 -0.9100
   92SAPS  C314 9061   0.377   2.949   8.330 -0.4174  0.0491 -0.4415
   92SAPS  H14X 9062   0.296   2.876   8.354 -0.1131 -0.1121  0.1000
   92SAPS  H14Y 9063   0.327   3.039   8.287  0.1396  1.0507  0.9456
   92SAPS  C315 9064   0.430   2.994   8.466  0.2662 -0.4105 -0.2775
   92SAPS  H15X 9065   0.360   3.032   8.544  2.2412 -1.9507  2.4364
   92SAPS  H15Y 9066   0.487   3.087   8.443  0.4539 -1.0822 -2.7646
   92SAPS  C316 9067   0.517   2.899   8.541 -0.4435 -0.1546  0.0698
   92SAPS  H16X 9068   0.562   2.954   8.626 -0.1329 -2.5887  1.5629
   92SAPS  H16Y 9069   0.595   2.850   8.478 -0.7060  1.6870 -1.8125
   92SAPS  C317 9070   0.431   2.781   8.590 -0.2539 -0.1903 -0.1464
   92SAPS  H17X 9071   0.397   2.717   8.506 -0.3365 -0.4741  0.1018
   92SAPS  H17Y 9072   0.333   2.813   8.631 -0.7675 -0.9979 -0.7044
   92SAPS  C318 9073   0.515   2.700   8.680  0.6307  0.8586 -0.3254
   92SAPS  H18X 9074   0.600   2.657   8.622  0.6476  1.1755 -0.5402
   92SAPS  H18Y 9075   0.454   2.613   8.711 -0.2798 -0.2939 -4.6570
   92SAPS  H18Z 9076   0.541   2.761   8.769 -2.1950  0.8049  0.6278
   93SAPS     N 9077   1.757   3.227   6.240  0.3071  0.5947  0.3969
   93SAPS   HN1 9078   1.725   3.276   6.154  0.8214  1.0521  0.4685
   93SAPS   HN2 9079   1.718   3.281   6.320 -0.0940  1.4061 -0.3327
   93SAPS   HN3 9080   1.860   3.219   6.248  0.3787  0.7846 -0.2970
   93SAPS   C12 9081   1.699   3.084   6.240  0.4093 -0.1016  0.6331
   93SAPS  H12A 9082   1.599   3.096   6.278  0.4120  1.0025  0.3378
   93SAPS   C13 9083   1.693   3.011   6.102 -0.5617  0.1853  0.2242
   93SAPS  O13A 9084   1.727   3.063   5.990  0.0119 -0.1522 -0.1656
   93SAPS  O13B 9085   1.666   2.892   6.100  0.3666  0.5445  0.3198
   93SAPS   C11 9086   1.782   2.998   6.341  0.7684 -0.0446 -0.3086
   93SAPS  H11A 9087   1.883   2.975   6.301  0.1756 -0.8451 -1.4104
   93SAPS  H11B 9088   1.736   2.897   6.349 -0.2932  0.5130  0.8623
   93SAPS     P 9089   1.906   3.013   6.567  0.0662 -0.2063 -0.2912
   93SAPS   O13 9090   2.009   2.940   6.489  1.1274 -0.0363  0.3457
   93SAPS   O14 9091   1.962   3.114   6.656 -0.0397 -0.0073 -0.6336
   93SAPS   O12 9092   1.793   3.063   6.467  0.1276  0.1117 -0.7946
   93SAPS   O11 9093   1.827   2.904   6.645 -0.3746 -0.4886  0.2162
   93SAPS    C1 9094   1.686   2.892   6.656  0.0250  0.1541 -0.2792
   93SAPS    HA 9095   1.636   2.894   6.557  2.3143 -3.3565 -1.7114
   93SAPS    HB 9096   1.679   2.793   6.707  2.2036  0.1708  0.1297
   93SAPS    C2 9097   1.629   2.998   6.758  0.4394  0.3597  1.7913
   93SAPS    HS 9098   1.622   3.091   6.698 -1.5496  0.5860  2.3122
   93SAPS   O21 9099   1.719   3.014   6.870 -0.2398  0.3057 -0.4847
   93SAPS   C21 9100   1.686   3.117   6.946 -0.4013  0.0838  0.0466
   93SAPS   O22 9101   1.589   3.189   6.917 -0.8150  0.5656 -0.6981
   93SAPS   C22 9102   1.783   3.142   7.061 -1.0236 -0.5969  0.1630
   93SAPS   H2R 9103   1.757   3.231   7.122  1.6527 -0.1363  0.7372
   93SAPS   H2S 9104   1.783   3.052   7.126  1.2253  0.0481  1.1392
   93SAPS    C3 9105   1.487   2.948   6.803 -0.2154 -0.2666  0.3525
   93SAPS    HX 9106   1.426   2.960   6.711  0.5204  3.1692  0.1685
   93SAPS    HY 9107   1.434   3.014   6.875 -3.2276 -0.7646 -1.2443
   93SAPS   O31 9108   1.487   2.818   6.855 -0.4871  0.1811  0.1557
   93SAPS   C31 9109   1.496   2.797   6.984 -0.0772  0.6700  0.2252
   93SAPS   O32 9110   1.509   2.884   7.068 -0.0924 -0.0242  0.7646
   93SAPS   C32 9111   1.487   2.645   7.011  0.3548 -0.2565  0.1386
   93SAPS   H2X 9112   1.592   2.613   7.026  0.4555 -0.0509 -0.1274
   93SAPS   H2Y 9113   1.451   2.595   6.919 -1.2088 -1.7232  1.4717
   93SAPS   C23 9114   1.930   3.171   7.009 -0.4819  0.0011 -0.1358
   93SAPS   H3R 9115   1.932   3.272   6.963 -1.4011 -0.6063 -1.5619
   93SAPS   H3S 9116   1.952   3.092   6.934 -1.7108 -0.2845 -0.2253
   93SAPS   C24 9117   2.026   3.152   7.121 -0.4054 -0.0787 -0.3149
   93SAPS   H4R 9118   2.128   3.142   7.078  0.0672  1.2666  0.4249
   93SAPS   H4S 9119   1.994   3.059   7.173 -3.4653  0.7036 -0.6044
   93SAPS   C25 9120   2.030   3.270   7.211  0.1178 -0.2855 -0.0915
   93SAPS   H5R 9121   1.996   3.361   7.159 -4.1537 -1.6781 -0.1789
   93SAPS   C26 9122   2.053   3.272   7.345 -0.1674  0.5929 -0.2527
   93SAPS   H6R 9123   2.040   3.372   7.390 -0.5354  0.6141 -0.4053
   93SAPS   C27 9124   2.090   3.158   7.432  0.0492  0.2242 -0.9335
   93SAPS   H7R 9125   2.054   3.058   7.400  1.9830 -0.7459 -0.1878
   93SAPS   H7S 9126   2.034   3.171   7.527  0.1414  2.8849 -1.1593
   93SAPS   C28 9127   2.233   3.166   7.478  0.0326  0.2595  0.1295
   93SAPS   H8R 9128   2.311   3.197   7.407  0.9228  1.5008  1.5955
   93SAPS   C29 9129   2.287   3.110   7.588  0.5644  0.0186  1.0412
   93SAPS   H9R 9130   2.396   3.120   7.597  0.6639  0.2032 -0.1271
   93SAPS  C210 9131   2.217   3.049   7.710 -0.0637  0.0128 -0.4622
   93SAPS  H10R 9132   2.274   2.956   7.734  0.4681  0.4663  0.0799
   93SAPS  H10S 9133   2.113   3.015   7.689 -0.1271  1.1850 -2.2843
   93SAPS  C211 9134   2.189   3.139   7.817 -0.3906 -0.5941  0.4263
   93SAPS  H11R 9135   2.125   3.227   7.797  0.2238 -0.0804  0.6662
   93SAPS  C212 9136   2.225   3.125   7.945  0.4162  0.0398 -0.1165
   93SAPS  H12R 9137   2.190   3.198   8.019  3.6839  1.9085 -0.2122
   93SAPS  C213 9138   2.299   3.012   8.011 -0.3979 -0.0171 -0.4538
   93SAPS  H13R 9139   2.320   2.929   7.939  0.1322  0.7517 -1.2050
   93SAPS  H13S 9140   2.230   2.967   8.086  0.2688  1.3749  1.0567
   93SAPS  C214 9141   2.436   3.025   8.074 -0.2757 -1.0232  1.3677
   93SAPS  H14R 9142   2.504   3.056   7.994 -1.1389 -2.6727 -0.0545
   93SAPS  C215 9143   2.476   3.005   8.199  0.5728 -0.0761 -0.0904
   93SAPS  H15R 9144   2.583   3.024   8.219  0.8843 -1.0168 -0.8268
   93SAPS  C216 9145   2.388   2.971   8.324 -0.3285 -0.3246 -0.2948
   93SAPS  H16R 9146   2.283   2.942   8.303 -1.0485  1.9910 -0.1802
   93SAPS  H16S 9147   2.390   3.061   8.389  2.0360 -1.2648  1.0665
   93SAPS  C217 9148   2.450   2.853   8.394 -0.1093 -0.1115 -0.1575
   93SAPS  H17R 9149   2.474   2.775   8.318  0.5248 -0.0260 -0.0502
   93SAPS  H17S 9150   2.378   2.810   8.466  0.2266 -0.3464  0.0401
   93SAPS  C218 9151   2.570   2.894   8.486 -0.1789 -0.5424  0.6532
   93SAPS  H18R 9152   2.650   2.936   8.421 -0.0212  0.5923  1.5469
   93SAPS  H18S 9153   2.599   2.795   8.528  2.4782  0.0766  0.4459
   93SAPS  C219 9154   2.554   2.991   8.609 -0.0996  0.1901  0.3458
   93SAPS  H19R 9155   2.486   2.942   8.683  0.6726 -0.0818  0.8936
   93SAPS  H19S 9156   2.512   3.086   8.570  0.2262  0.0808 -0.2796
   93SAPS  C220 9157   2.693   3.023   8.660  0.0515  0.4041 -0.2104
   93SAPS  H20R 9158   2.748   2.927   8.675 -1.4430 -0.1953  1.9030
   93SAPS  H20S 9159   2.688   3.077   8.756 -1.4025  1.7541 -1.0032
   93SAPS  H20T 9160   2.740   3.083   8.579 -0.6771 -0.2810 -1.1794
   93SAPS   C33 9161   1.393   2.597   7.129 -0.2563  0.3254 -0.1571
   93SAPS   H3X 9162   1.378   2.487   7.124  0.4745  0.2350 -0.4540
   93SAPS   H3Y 9163   1.295   2.648   7.115  0.4829  1.2420 -2.5288
   93SAPS   C34 9164   1.466   2.631   7.261 -0.6511  0.3092  0.1301
   93SAPS   H4X 9165   1.497   2.738   7.258  0.9017 -0.1291 -0.3282
   93SAPS   H4Y 9166   1.564   2.579   7.265 -0.9433 -0.2061  3.0871
   93SAPS   C35 9167   1.396   2.598   7.392 -0.9455 -0.0529 -0.6507
   93SAPS   H5X 9168   1.366   2.492   7.404 -0.4971 -0.3318 -1.8575
   93SAPS   H5Y 9169   1.298   2.650   7.399 -1.1793 -0.6477  1.0062
   93SAPS   C36 9170   1.489   2.639   7.515 -0.1950  0.1446  0.2296
   93SAPS   H6X 9171   1.521   2.744   7.499  0.5667 -0.1984 -0.5545
   93SAPS   H6Y 9172   1.575   2.569   7.515  0.8184  1.2654 -2.7208
   93SAPS   C37 9173   1.414   2.633   7.645  0.0945  0.3574  0.1527
   93SAPS   H7X 9174   1.361   2.535   7.644  1.7143 -0.5480 -0.7984
   93SAPS   H7Y 9175   1.329   2.705   7.653  0.0701  0.1531  2.0407
   93SAPS   C38 9176   1.499   2.622   7.765 -0.1415  0.0852 -0.3605
   93SAPS   H8X 9177   1.582   2.696   7.770 -0.7268  1.0210 -3.2613
   93SAPS   H8Y 9178   1.556   2.526   7.764  0.1846  0.2827 -1.1876
   93SAPS   C39 9179   1.412   2.640   7.889 -0.1323  0.1160  0.1234
   93SAPS   H9X 9180   1.325   2.571   7.878  0.2582 -0.4515  0.5148
   93SAPS   H9Y 9181   1.380   2.746   7.900 -0.1929  0.1363 -0.2266
   93SAPS  C310 9182   1.489   2.602   8.021 -0.3858  0.7818 -0.3980
   93SAPS  H10X 9183   1.595   2.634   8.015  0.0171 -0.1384  1.2166
   93SAPS  H10Y 9184   1.494   2.491   8.022  0.6515  0.8070  1.5020
   93SAPS  C311 9185   1.398   2.642   8.142 -0.4704  0.1703 -0.2491
   93SAPS  H11X 9186   1.293   2.606   8.143 -0.9375  1.4647 -0.6843
   93SAPS  H11Y 9187   1.403   2.753   8.152  2.6129  0.3243 -2.0248
   93SAPS  C312 9188   1.475   2.592   8.267 -0.3699 -0.1549  0.2077
   93SAPS  H12X 9189   1.583   2.617   8.256 -0.7573  1.5974  0.0682
   93SAPS  H12Y 9190   1.465   2.482   8.261 -1.1985 -0.0362 -0.8049
   93SAPS  C313 9191   1.425   2.649   8.398  0.2477  0.1793 -0.1637
   93SAPS  H13X 9192   1.316   2.637   8.416  0.6440 -1.2275  1.6100
   93SAPS  H13Y 9193   1.437   2.759   8.390  0.6242  0.2191  0.7647
   93SAPS  C314 9194   1.504   2.611   8.514 -0.2885  0.2568 -0.6337
   93SAPS  H14X 9195   1.441   2.633   8.603  0.9108 -0.9168  0.5637
   93SAPS  H14Y 9196   1.590   2.682   8.518  0.5705 -0.8156  0.9183
   93SAPS  C315 9197   1.554   2.463   8.527 -0.1942 -0.2218 -0.5358
   93SAPS  H15X 9198   1.611   2.449   8.621  0.4614  0.3320 -0.8355
   93SAPS  H15Y 9199   1.623   2.444   8.441 -1.8152 -1.5984 -1.5938
   93SAPS  C316 9200   1.448   2.350   8.534  0.0797 -0.3352 -0.1548
   93SAPS  H16X 9201   1.370   2.359   8.454  1.3966 -4.1118 -2.1046
   93SAPS  H16Y 9202   1.393   2.364   8.630 -0.1499 -0.3243 -0.2847
   93SAPS  C317 9203   1.517   2.218   8.514  0.6405  0.4570 -0.3264
   93SAPS  H17X 9204   1.625   2.225   8.541  1.5313 -2.8569 -2.3766
   93SAPS  H17Y 9205   1.507   2.194   8.406 -0.1072  1.1194 -0.4101
   93SAPS  C318 9206   1.460   2.090   8.600 -0.8396 -0.9159  0.3537
   93SAPS  H18X 9207   1.349   2.089   8.595 -0.7999 -0.6897 -1.3962
   93SAPS  H18Y 9208   1.484   2.105   8.707  2.0159  0.6767 -0.4222
   93SAPS  H18Z 9209   1.516   2.000   8.567  1.9050  1.9089 -3.6355
   94SAPS     N 9210   2.766   5.735   5.862 -0.9547 -0.3375  0.1715
   94SAPS   HN1 9211   2.710   5.721   5.775 -3.2534  0.5602  1.4198
   94SAPS   HN2 9212   2.706   5.708   5.943  1.1598  2.3622  2.8916
   94SAPS   HN3 9213   2.784   5.836   5.876 -1.6332 -0.0767 -0.7129
   94SAPS   C12 9214   2.888   5.654   5.851  0.2829  0.6053 -0.3797
   94SAPS  H12A 9215   2.852   5.552   5.846  1.2184 -0.0312  2.9786
   94SAPS   C13 9216   2.975   5.675   5.733 -0.3309 -0.2201 -0.2114
   94SAPS  O13A 9217   2.955   5.767   5.653  0.6900 -0.0249 -0.0464
   94SAPS  O13B 9218   3.074   5.595   5.714 -0.4401  0.0358 -0.3481
   94SAPS   C11 9219   2.967   5.668   5.978  0.0662 -1.4598 -0.2220
   94SAPS  H11A 9220   2.986   5.777   5.992  1.7137 -1.7252 -0.1906
   94SAPS  H11B 9221   3.064   5.615   5.966  0.8527 -0.2016  0.2652
   94SAPS     P 9222   2.871   5.470   6.134 -0.1000 -0.2760 -0.7627
   94SAPS   O13 9223   2.756   5.471   6.230  0.3920  0.0081 -0.2364
   94SAPS   O14 9224   2.872   5.387   6.016 -0.1483 -0.3007 -0.3432
   94SAPS   O12 9225   2.892   5.620   6.093  0.0593  0.4338  0.6452
   94SAPS   O11 9226   3.002   5.449   6.223 -0.9263  0.0531  0.2416
   94SAPS    C1 9227   3.033   5.321   6.289  0.5171  0.1532  0.0487
   94SAPS    HA 9228   2.974   5.236   6.248  0.4415 -0.4261  1.2947
   94SAPS    HB 9229   3.136   5.283   6.276 -0.0331 -1.6060  0.5440
   94SAPS    C2 9230   3.002   5.329   6.439 -0.2851 -0.2686  0.6133
   94SAPS    HS 9231   2.898   5.364   6.456  0.6036  3.3209 -0.4540
   94SAPS   O21 9232   3.090   5.423   6.497  0.0025 -0.3365 -0.1279
   94SAPS   C21 9233   3.044   5.541   6.525 -0.0769  0.3984 -0.0575
   94SAPS   O22 9234   2.939   5.591   6.504  0.2696 -0.2673  0.6403
   94SAPS   C22 9235   3.155   5.621   6.595  0.4417  0.1868  0.3192
   94SAPS   H2R 9236   3.257   5.578   6.610  1.1041  2.7134  4.7891
   94SAPS   H2S 9237   3.171   5.714   6.537  0.3597 -0.3258 -0.5495
   94SAPS    C3 9238   3.028   5.184   6.497  0.0005  0.0010  0.2549
   94SAPS    HX 9239   3.137   5.167   6.485 -0.5920 -2.9499 -2.4336
   94SAPS    HY 9240   2.968   5.113   6.435  0.5113  0.6140 -0.9804
   94SAPS   O31 9241   2.988   5.173   6.631 -0.9343 -1.0601  0.5710
   94SAPS   C31 9242   2.977   5.047   6.674  0.1502 -0.4502  0.0143
   94SAPS   O32 9243   2.997   4.951   6.604  0.2004 -0.0457 -0.2935
   94SAPS   C32 9244   2.915   5.034   6.807  0.1323  0.3195  0.3484
   94SAPS   H2X 9245   2.877   4.933   6.831 -0.6942  0.4590 -0.3541
   94SAPS   H2Y 9246   2.819   5.089   6.815  0.8958  1.5040  2.0802
   94SAPS   C23 9247   3.097   5.655   6.733 -0.3221 -0.4317  0.9648
   94SAPS   H3R 9248   2.989   5.669   6.714 -0.1618 -1.8793 -1.4838
   94SAPS   H3S 9249   3.138   5.756   6.758  2.4274 -1.1622 -0.2166
   94SAPS   C24 9250   3.116   5.538   6.831  0.2485  0.6822 -0.6916
   94SAPS   H4R 9251   3.045   5.456   6.806  0.1426  0.3158  0.7112
   94SAPS   H4S 9252   3.083   5.576   6.930 -0.2235  0.9220 -0.9355
   94SAPS   C25 9253   3.258   5.496   6.842  0.0054 -0.0428  0.7173
   94SAPS   H5R 9254   3.279   5.403   6.787  0.4374 -0.1175  1.0017
   94SAPS   C26 9255   3.363   5.570   6.889 -0.2719 -0.1679 -0.5638
   94SAPS   H6R 9256   3.461   5.522   6.878 -0.6137 -0.9289 -0.3090
   94SAPS   C27 9257   3.360   5.704   6.949 -0.4520  0.0124  0.0781
   94SAPS   H7R 9258   3.254   5.735   6.967 -0.2142  1.1798 -0.4313
   94SAPS   H7S 9259   3.407   5.774   6.877 -1.4148  2.8776  2.0259
   94SAPS   C28 9260   3.415   5.726   7.084 -0.4412 -0.2098 -0.5559
   94SAPS   H8R 9261   3.517   5.766   7.088 -0.4789 -0.0672 -0.9746
   94SAPS   C29 9262   3.354   5.700   7.203  1.0692  0.2803  0.2513
   94SAPS   H9R 9263   3.405   5.710   7.300 -1.3461 -0.3577  1.6863
   94SAPS  C210 9264   3.213   5.645   7.221 -0.1754 -0.0088 -0.5888
   94SAPS  H10R 9265   3.151   5.658   7.130 -1.8840 -2.6485  0.1050
   94SAPS  H10S 9266   3.177   5.720   7.295  0.1064 -0.1795 -0.2748
   94SAPS  C211 9267   3.196   5.508   7.273 -0.7595 -0.0287 -0.5849
   94SAPS  H11R 9268   3.224   5.426   7.204 -1.8887 -0.1031 -0.9694
   94SAPS  C212 9269   3.156   5.471   7.393 -0.2117  0.1560 -0.3062
   94SAPS  H12R 9270   3.154   5.363   7.411 -1.1064  0.0999 -0.7062
   94SAPS  C213 9271   3.106   5.557   7.506 -0.1690  0.4678  0.8201
   94SAPS  H13R 9272   3.004   5.522   7.534 -0.5114  1.6131  1.0782
   94SAPS  H13S 9273   3.089   5.660   7.466 -0.2644 -0.1904 -0.8912
   94SAPS  C214 9274   3.202   5.538   7.618  0.2490  0.1199  0.2652
   94SAPS  H14R 9275   3.235   5.437   7.648  3.8139  0.6905 -1.2081
   94SAPS  C215 9276   3.250   5.637   7.703  0.7608 -0.2547 -0.2575
   94SAPS  H15R 9277   3.324   5.618   7.781  1.2114  1.2114 -0.2918
   94SAPS  C216 9278   3.191   5.781   7.701  0.1271 -0.0108 -0.1109
   94SAPS  H16R 9279   3.100   5.779   7.638  0.0889  2.8182 -0.2606
   94SAPS  H16S 9280   3.261   5.854   7.655  2.6646 -0.9805  1.9008
   94SAPS  C217 9281   3.160   5.832   7.843  0.1024 -0.4883 -0.5617
   94SAPS  H17R 9282   3.102   5.760   7.904  0.9458 -1.1249 -0.4917
   94SAPS  H17S 9283   3.095   5.923   7.847  0.7317 -0.0595  2.8922
   94SAPS  C218 9284   3.287   5.850   7.923 -0.1657 -0.2868 -0.3328
   94SAPS  H18R 9285   3.340   5.939   7.883  2.7823 -1.2047  1.2980
   94SAPS  H18S 9286   3.354   5.762   7.918  0.7227  0.2708  1.1168
   94SAPS  C219 9287   3.262   5.881   8.075  0.2235 -0.2604 -0.0714
   94SAPS  H19R 9288   3.217   5.785   8.108 -1.0075 -0.1579 -1.3815
   94SAPS  H19S 9289   3.177   5.953   8.080 -1.3487 -1.8913 -1.7298
   94SAPS  C220 9290   3.385   5.916   8.156 -0.6219 -0.2090  0.3807
   94SAPS  H20R 9291   3.369   5.939   8.263 -0.0022  0.8300  0.2538
   94SAPS  H20S 9292   3.444   5.990   8.099 -2.1549  0.5771 -0.2491
   94SAPS  H20T 9293   3.441   5.820   8.168 -0.3947 -0.0132  0.9244
   94SAPS   C33 9294   3.017   5.078   6.917 -0.3235  0.1889  0.0126
   94SAPS   H3X 9295   2.950   5.100   7.003  0.6081  0.5708  0.6458
   94SAPS   H3Y 9296   3.081   5.166   6.896  1.8731 -0.9900  1.3628
   94SAPS   C34 9297   3.114   4.966   6.955 -0.5513  0.4851  0.8076
   94SAPS   H4X 9298   3.170   4.953   6.859 -2.5660  0.0708 -0.3734
   94SAPS   H4Y 9299   3.066   4.867   6.974  0.1589  0.5301  3.0783
   94SAPS   C35 9300   3.213   5.009   7.062  0.5037  0.3500  1.1297
   94SAPS   H5X 9301   3.243   5.115   7.049  0.3241  0.0805 -2.4170
   94SAPS   H5Y 9302   3.298   4.938   7.063 -0.1331 -0.4377  0.6014
   94SAPS   C36 9303   3.142   5.005   7.199 -0.6672 -0.4736 -0.0292
   94SAPS   H6X 9304   3.095   4.905   7.199 -1.3236 -0.1660 -0.1020
   94SAPS   H6Y 9305   3.059   5.078   7.203 -0.2931 -0.0624  0.4261
   94SAPS   C37 9306   3.242   5.018   7.316 -0.0502  0.5632 -0.4978
   94SAPS   H7X 9307   3.274   5.124   7.307 -1.4182  0.8641 -2.3371
   94SAPS   H7Y 9308   3.340   4.970   7.293  0.7245  3.1998 -3.3890
   94SAPS   C38 9309   3.178   4.982   7.446 -0.3906  0.2519 -0.8214
   94SAPS   H8X 9310   3.147   4.875   7.439  0.4695 -0.1774  1.1071
   94SAPS   H8Y 9311   3.089   5.043   7.469 -1.1133 -1.0055 -0.1216
   94SAPS   C39 9312   3.277   4.999   7.566 -0.4499  0.4582 -0.5436
   94SAPS   H9X 9313   3.304   5.105   7.585 -0.2748  0.5764 -1.4149
   94SAPS   H9Y 9314   3.374   4.945   7.555 -0.6374 -0.7859  2.8840
   94SAPS  C310 9315   3.202   4.960   7.688 -0.4203 -0.1679  0.3341
   94SAPS  H10X 9316   3.204   4.849   7.695  2.1821 -0.4744 -2.7294
   94SAPS  H10Y 9317   3.096   4.989   7.678 -0.4403 -0.1755  0.5076
   94SAPS  C311 9318   3.254   5.027   7.818 -0.0001 -0.5369 -0.1813
   94SAPS  H11X 9319   3.248   5.138   7.810 -0.2275 -0.5248  0.1571
   94SAPS  H11Y 9320   3.359   4.992   7.824 -0.2388 -1.0311  1.8352
   94SAPS  C312 9321   3.177   4.981   7.940  0.5861 -0.3083 -0.2499
   94SAPS  H12X 9322   3.147   4.875   7.938  1.4915 -0.6825  2.2664
   94SAPS  H12Y 9323   3.089   5.048   7.927  1.8948  1.9769  1.7763
   94SAPS  C313 9324   3.241   5.013   8.074 -0.0695  0.3217 -0.0516
   94SAPS  H13X 9325   3.245   5.123   8.085 -2.0883  0.3574  0.7616
   94SAPS  H13Y 9326   3.342   4.971   8.095  1.0384  0.9413 -3.4238
   94SAPS  C314 9327   3.139   4.970   8.191  0.1523  0.2137  0.4935
   94SAPS  H14X 9328   3.137   4.860   8.205 -1.5430  0.2055  0.3402
   94SAPS  H14Y 9329   3.040   5.011   8.163  0.8968  2.0315  0.4322
   94SAPS  C315 9330   3.161   5.043   8.324  0.0177  0.0048  0.1235
   94SAPS  H15X 9331   3.264   5.017   8.356 -0.3696  0.0594  1.4513
   94SAPS  H15Y 9332   3.088   5.005   8.399  1.1658  1.6824  2.1754
   94SAPS  C316 9333   3.141   5.195   8.320 -0.3621  0.6463 -0.5415
   94SAPS  H16X 9334   3.040   5.231   8.291 -1.3368 -1.1926  0.4356
   94SAPS  H16Y 9335   3.216   5.239   8.250  0.6860  0.1544  0.2355
   94SAPS  C317 9336   3.165   5.261   8.458 -1.2825 -0.2496 -0.1539
   94SAPS  H17X 9337   3.270   5.241   8.489 -0.7610 -0.7037 -2.0538
   94SAPS  H17Y 9338   3.093   5.212   8.527 -1.9496  0.5540 -0.2648
   94SAPS  C318 9339   3.130   5.412   8.466 -0.4658  0.6714  0.2445
   94SAPS  H18X 9340   3.085   5.432   8.565 -1.1808  0.4465 -0.0242
   94SAPS  H18Y 9341   3.046   5.437   8.397 -1.4781 -1.0634  0.7581
   94SAPS  H18Z 9342   3.213   5.483   8.450  0.9295 -0.8309  0.5918
   95SAPS     N 9343   5.824   2.733   6.048  0.7171 -0.4145  0.2094
   95SAPS   HN1 9344   5.833   2.729   5.944 -0.9691  1.6978 -0.0799
   95SAPS   HN2 9345   5.807   2.641   6.095  1.1103  0.9057  3.1112
   95SAPS   HN3 9346   5.742   2.794   6.065  0.8501 -0.0410 -0.4681
   95SAPS   C12 9347   5.936   2.807   6.116  0.4022  0.2956  0.5773
   95SAPS  H12A 9348   6.026   2.770   6.070 -0.5295 -0.4075 -0.7697
   95SAPS   C13 9349   5.926   2.963   6.100 -0.7891  0.1795 -0.1264
   95SAPS  O13A 9350   5.851   3.009   6.013  0.6155 -0.0920 -0.5446
   95SAPS  O13B 9351   6.020   3.028   6.161 -0.0215  0.4779 -0.4265
   95SAPS   C11 9352   5.937   2.764   6.263  0.1467 -0.3673  0.1453
   95SAPS  H11A 9353   5.830   2.780   6.289 -0.2859  2.4969 -2.7271
   95SAPS  H11B 9354   5.985   2.841   6.328 -1.3852  0.2118  0.6236
   95SAPS     P 9355   6.136   2.599   6.309 -0.2069  0.3619  0.2656
   95SAPS   O13 9356   6.148   2.449   6.341  0.4174 -0.9983  0.2414
   95SAPS   O14 9357   6.214   2.648   6.196  0.0196 -0.1913  0.3208
   95SAPS   O12 9358   5.986   2.631   6.279 -0.2434  0.1451  0.0452
   95SAPS   O11 9359   6.187   2.681   6.432 -0.1020 -0.1257  0.0986
   95SAPS    C1 9360   6.105   2.720   6.546  0.2186  0.0622  1.2271
   95SAPS    HA 9361   6.138   2.820   6.581  2.2709  0.2716 -1.0687
   95SAPS    HB 9362   5.998   2.724   6.515  1.0410 -0.5249 -2.0261
   95SAPS    C2 9363   6.114   2.617   6.665 -0.2850  1.1337  1.0143
   95SAPS    HS 9364   6.222   2.607   6.688  0.2956  0.4366 -1.6632
   95SAPS   O21 9365   6.052   2.489   6.623  0.1587 -0.1040  0.4291
   95SAPS   C21 9366   6.122   2.389   6.671 -0.7256 -0.0396  0.2829
   95SAPS   O22 9367   6.220   2.386   6.746 -0.4114  0.3412  0.3058
   95SAPS   C22 9368   6.048   2.262   6.630  0.0864  0.3166  0.6149
   95SAPS   H2R 9369   5.976   2.281   6.548  0.6957 -2.4244 -0.6568
   95SAPS   H2S 9370   6.125   2.187   6.603 -0.2761 -0.3768  1.4636
   95SAPS    C3 9371   6.038   2.681   6.788 -0.1744  0.1068  0.6196
   95SAPS    HX 9372   5.929   2.667   6.771 -0.6249  3.0989  0.4493
   95SAPS    HY 9373   6.048   2.792   6.789 -3.1323  0.4484  0.9804
   95SAPS   O31 9374   6.066   2.624   6.918  0.6478  0.2441  0.3900
   95SAPS   C31 9375   6.177   2.668   6.966  0.2199 -0.1072 -0.7461
   95SAPS   O32 9376   6.249   2.751   6.920 -0.5934 -0.4394 -0.3727
   95SAPS   C32 9377   6.199   2.615   7.117 -0.2873 -0.4275  0.2190
   95SAPS   H2X 9378   6.108   2.558   7.145 -0.9665  1.4082  1.9774
   95SAPS   H2Y 9379   6.204   2.702   7.185 -0.2866 -1.4277  1.5467
   95SAPS   C23 9380   5.979   2.207   6.756 -0.5502 -0.2300 -0.5230
   95SAPS   H3R 9381   6.047   2.230   6.841 -0.8153 -2.9858  0.5376
   95SAPS   H3S 9382   5.951   2.100   6.768 -0.2985 -0.3301 -0.8320
   95SAPS   C24 9383   5.837   2.270   6.769 -0.1148 -0.7427  0.1541
   95SAPS   H4R 9384   5.782   2.247   6.675  1.5710 -1.2190 -0.7516
   95SAPS   H4S 9385   5.866   2.378   6.772  1.1310 -1.0319 -0.5364
   95SAPS   C25 9386   5.749   2.241   6.882  0.1219 -0.2743  0.0398
   95SAPS   H5R 9387   5.666   2.172   6.858  0.0386 -0.2318  0.2029
   95SAPS   C26 9388   5.775   2.265   7.013 -0.0218  0.6322  1.0591
   95SAPS   H6R 9389   5.707   2.237   7.095 -0.1540  1.6174  1.3048
   95SAPS   C27 9390   5.884   2.350   7.072 -1.2611  0.0234  0.0236
   95SAPS   H7R 9391   5.859   2.426   7.149  2.9221  0.0388  1.6031
   95SAPS   H7S 9392   5.937   2.417   7.000 -1.1948 -1.2914 -1.2135
   95SAPS   C28 9393   5.989   2.266   7.143  0.7587 -0.5981  0.1034
   95SAPS   H8R 9394   6.072   2.228   7.082  2.3256  0.9757  1.1461
   95SAPS   C29 9395   5.997   2.241   7.279  0.2054  0.3993 -0.7001
   95SAPS   H9R 9396   6.071   2.171   7.320 -0.7197  0.0534  0.4264
   95SAPS  C210 9397   5.912   2.282   7.397 -0.2799 -0.0556  0.0554
   95SAPS  H10R 9398   5.849   2.197   7.431  0.0838 -1.1779 -1.9646
   95SAPS  H10S 9399   5.837   2.358   7.365 -1.2321 -0.9360  0.1254
   95SAPS  C211 9400   6.001   2.342   7.503 -0.9358 -0.2963 -0.2726
   95SAPS  H11R 9401   6.046   2.440   7.479  0.7907 -0.7724  0.8478
   95SAPS  C212 9402   6.019   2.289   7.621  0.6372 -0.9293  0.1645
   95SAPS  H12R 9403   6.081   2.347   7.691 -1.4110  1.0372  0.4676
   95SAPS  C213 9404   5.952   2.167   7.688  0.1821 -0.5324  0.4308
   95SAPS  H13R 9405   5.982   2.077   7.631  2.2002 -0.8439  1.8631
   95SAPS  H13S 9406   5.841   2.179   7.687  0.3166  0.7949  0.3730
   95SAPS  C214 9407   5.997   2.140   7.827 -0.0202  0.4764  0.3641
   95SAPS  H14R 9408   6.048   2.042   7.831  3.9462  2.2519 -1.3353
   95SAPS  C215 9409   5.989   2.218   7.933  0.0627 -0.2128 -0.4871
   95SAPS  H15R 9410   6.029   2.173   8.026 -0.6800 -0.9573 -0.5131
   95SAPS  C216 9411   5.922   2.352   7.942  0.3520 -0.8533 -0.1627
   95SAPS  H16R 9412   5.930   2.403   7.844 -2.7925 -1.4008 -0.8000
   95SAPS  H16S 9413   5.988   2.429   7.989 -0.2676  1.2337 -2.4778
   95SAPS  C217 9414   5.790   2.358   8.016  0.0650 -0.3961 -0.1273
   95SAPS  H17R 9415   5.791   2.291   8.105  0.3994 -0.2467 -0.0184
   95SAPS  H17S 9416   5.724   2.307   7.943 -0.8879  0.0426  0.4049
   95SAPS  C218 9417   5.736   2.501   8.059 -0.4789 -0.3514  0.0769
   95SAPS  H18R 9418   5.807   2.537   8.136 -0.3923  0.5208 -0.4012
   95SAPS  H18S 9419   5.638   2.488   8.110  0.1347  1.5516  1.8772
   95SAPS  C219 9420   5.727   2.601   7.937 -0.5056  0.1480  0.5165
   95SAPS  H19R 9421   5.654   2.571   7.859 -0.4182  0.9434  0.1187
   95SAPS  H19S 9422   5.828   2.599   7.891 -0.4395 -0.3711  0.6771
   95SAPS  C220 9423   5.707   2.743   7.989  0.1439 -0.0172  0.7391
   95SAPS  H20R 9424   5.786   2.761   8.064 -0.8701  0.1551  1.7928
   95SAPS  H20S 9425   5.611   2.738   8.046  0.3208 -2.9454  0.9238
   95SAPS  H20T 9426   5.711   2.814   7.903  1.5559 -0.9161  0.0263
   95SAPS   C33 9427   6.325   2.527   7.125  0.1815  0.0413  0.2050
   95SAPS   H3X 9428   6.410   2.594   7.099  0.9145 -0.7464  0.5056
   95SAPS   H3Y 9429   6.324   2.438   7.059  2.7140 -1.2229  1.6929
   95SAPS   C34 9430   6.357   2.477   7.266  0.0194 -0.8356  0.1218
   95SAPS   H4X 9431   6.308   2.378   7.267  0.2447 -0.9524  1.3812
   95SAPS   H4Y 9432   6.314   2.544   7.344  0.0051 -1.7064  0.8680
   95SAPS   C35 9433   6.511   2.459   7.291 -0.7707 -0.1645 -0.1229
   95SAPS   H5X 9434   6.569   2.553   7.275  0.2387 -0.8457 -0.5871
   95SAPS   H5Y 9435   6.558   2.385   7.222  0.9919  1.8847 -1.2523
   95SAPS   C36 9436   6.528   2.431   7.444 -0.3689  0.4593  0.1798
   95SAPS   H6X 9437   6.470   2.500   7.510  1.7406  1.7598  0.7764
   95SAPS   H6Y 9438   6.630   2.459   7.477 -0.7948  0.7840  1.2836
   95SAPS   C37 9439   6.482   2.291   7.488 -0.6783  0.4712  0.5735
   95SAPS   H7X 9440   6.557   2.215   7.458 -1.4870  0.1394 -0.6467
   95SAPS   H7Y 9441   6.397   2.259   7.425  1.7916 -1.1647 -2.1716
   95SAPS   C38 9442   6.464   2.279   7.644  0.1454 -0.7840  0.0785
   95SAPS   H8X 9443   6.417   2.182   7.670  0.5903 -1.2111 -0.6567
   95SAPS   H8Y 9444   6.392   2.358   7.670 -1.8478 -1.9536 -1.5398
   95SAPS   C39 9445   6.576   2.296   7.736 -0.5818 -0.4331  0.7233
   95SAPS   H9X 9446   6.620   2.394   7.708 -0.5762 -0.5056  0.4743
   95SAPS   H9Y 9447   6.643   2.212   7.710  1.8565  1.9904 -1.4553
   95SAPS  C310 9448   6.542   2.304   7.886 -0.2290  1.1655 -0.1684
   95SAPS  H10X 9449   6.465   2.379   7.911  0.5658  1.0857  2.9265
   95SAPS  H10Y 9450   6.639   2.323   7.936  0.0523 -1.2480  0.3249
   95SAPS  C311 9451   6.495   2.160   7.938  0.3443  0.6599 -0.2416
   95SAPS  H11X 9452   6.580   2.098   7.901  0.9831  0.7721  0.9619
   95SAPS  H11Y 9453   6.402   2.130   7.886  1.3216  0.3741 -1.8966
   95SAPS  C312 9454   6.477   2.159   8.088  0.0385  0.7693 -0.4827
   95SAPS  H12X 9455   6.578   2.173   8.132  0.3247  0.5900 -1.0693
   95SAPS  H12Y 9456   6.451   2.061   8.133  0.2011  1.3974  1.0373
   95SAPS  C313 9457   6.372   2.253   8.141  0.2263  0.8113 -0.3192
   95SAPS  H13X 9458   6.283   2.232   8.077 -0.3564  0.7891  0.4906
   95SAPS  H13Y 9459   6.411   2.356   8.123  0.4591  0.8146  0.1885
   95SAPS  C314 9460   6.324   2.231   8.288  0.7085 -0.2695  0.0451
   95SAPS  H14X 9461   6.401   2.269   8.359  0.9300 -0.1651 -0.2466
   95SAPS  H14Y 9462   6.315   2.121   8.303 -2.0061 -0.2223 -0.7507
   95SAPS  C315 9463   6.185   2.299   8.304 -0.7501  0.2942  0.3881
   95SAPS  H15X 9464   6.120   2.243   8.234 -0.5326  0.5574 -0.0321
   95SAPS  H15Y 9465   6.198   2.398   8.255 -0.4679 -1.4943 -3.4394
   95SAPS  C316 9466   6.129   2.293   8.449  0.5158  0.5857  0.7049
   95SAPS  H16X 9467   6.191   2.366   8.507  0.4449  2.5036 -1.4785
   95SAPS  H16Y 9468   6.156   2.198   8.499 -1.3700  0.2530  1.1580
   95SAPS  C317 9469   5.986   2.320   8.454  0.0293 -0.2151 -0.6489
   95SAPS  H17X 9470   5.968   2.420   8.410  2.0015  1.4028  1.9183
   95SAPS  H17Y 9471   5.963   2.336   8.562  0.4631 -1.0250 -0.4292
   95SAPS  C318 9472   5.890   2.212   8.408 -0.7070 -0.5329 -0.5791
   95SAPS  H18X 9473   5.924   2.106   8.407 -2.7288 -1.2478  0.3246
   95SAPS  H18Y 9474   5.876   2.238   8.301  0.7998  1.2268 -0.3821
   95SAPS  H18Z 9475   5.793   2.217   8.462  0.2053  1.6907  0.9963
   96SAPS     N 9476   0.641   4.552   6.228 -0.4176  0.4774  0.1456
   96SAPS   HN1 9477   0.619   4.588   6.133  0.0723  1.0577  0.2473
   96SAPS   HN2 9478   0.734   4.587   6.257  1.2258 -1.8717 -1.8415
   96SAPS   HN3 9479   0.631   4.449   6.242 -2.2843  0.8009  1.6275
   96SAPS   C12 9480   0.549   4.609   6.326  0.5332  0.1660  0.7103
   96SAPS  H12A 9481   0.531   4.715   6.314  0.5205  0.1584  0.6642
   96SAPS   C13 9482   0.414   4.536   6.310  0.6319 -0.4112 -0.0064
   96SAPS  O13A 9483   0.390   4.471   6.203  0.0653  0.1054 -0.6833
   96SAPS  O13B 9484   0.320   4.546   6.393 -0.0072 -0.0905  0.5183
   96SAPS   C11 9485   0.615   4.605   6.470  0.6579 -0.1417  0.1947
   96SAPS  H11A 9486   0.626   4.498   6.499 -0.1045 -0.5326 -0.8944
   96SAPS  H11B 9487   0.553   4.667   6.538 -0.7902  1.1365 -2.1855
   96SAPS     P 9488   0.806   4.797   6.500 -0.1950  0.0949 -0.5782
   96SAPS   O13 9489   0.936   4.809   6.432 -0.2479 -0.3722 -0.2788
   96SAPS   O14 9490   0.711   4.906   6.473 -0.6174  0.4781  0.2592
   96SAPS   O12 9491   0.744   4.663   6.449 -0.7071  0.0481 -0.2268
   96SAPS   O11 9492   0.834   4.768   6.653 -0.5152  0.1836  0.1295
   96SAPS    C1 9493   0.889   4.648   6.696  0.0574 -0.5780  0.2249
   96SAPS    HA 9494   0.825   4.560   6.670  0.7696 -1.6088  1.8070
   96SAPS    HB 9495   0.991   4.643   6.652  1.1220  2.4350  2.0848
   96SAPS    C2 9496   0.894   4.645   6.853 -0.8042  1.2203  0.1998
   96SAPS    HS 9497   0.959   4.558   6.876 -0.1280  1.6448 -0.0909
   96SAPS   O21 9498   0.764   4.639   6.903 -0.3050 -0.8084 -0.0669
   96SAPS   C21 9499   0.710   4.524   6.901 -0.0209 -0.7087  0.2867
   96SAPS   O22 9500   0.762   4.428   6.845 -0.0878 -0.1261  0.2365
   96SAPS   C22 9501   0.578   4.524   6.981  0.0789  0.6583 -0.1275
   96SAPS   H2R 9502   0.504   4.570   6.912  0.9727 -0.4529 -1.9068
   96SAPS   H2S 9503   0.563   4.415   6.999  2.9761  0.4907  1.9121
   96SAPS    C3 9504   0.971   4.768   6.912 -0.0443  0.1817 -0.4399
   96SAPS    HX 9505   0.918   4.854   6.865 -1.7674  1.3803  3.3013
   96SAPS    HY 9506   1.080   4.764   6.891  0.6837  0.4526  2.7890
   96SAPS   O31 9507   0.956   4.781   7.053  0.1646  0.2151 -0.1580
   96SAPS   C31 9508   1.033   4.711   7.126  0.4156 -0.2258  0.2597
   96SAPS   O32 9509   1.112   4.627   7.083  0.0174 -0.1722 -0.6618
   96SAPS   C32 9510   1.019   4.740   7.276 -0.2981 -0.1057 -0.8637
   96SAPS   H2X 9511   0.935   4.675   7.308  0.2964 -0.3588  0.2637
   96SAPS   H2Y 9512   1.003   4.848   7.298 -1.8133 -0.4964  0.1765
   96SAPS   C23 9513   0.575   4.600   7.117 -0.9096 -0.4811 -1.1494
   96SAPS   H3R 9514   0.470   4.625   7.146 -0.7981 -0.7155 -0.5231
   96SAPS   H3S 9515   0.638   4.691   7.127 -0.7631 -0.6279 -0.7127
   96SAPS   C24 9516   0.605   4.495   7.229 -0.1345 -0.7060 -1.2111
   96SAPS   H4R 9517   0.713   4.476   7.208  0.0191  0.8418 -2.0245
   96SAPS   H4S 9518   0.549   4.404   7.200 -0.1507 -1.3148  0.6688
   96SAPS   C25 9519   0.573   4.543   7.369 -0.4419 -0.3475  0.2207
   96SAPS   H5R 9520   0.467   4.573   7.373 -0.0841  0.8571  1.1331
   96SAPS   C26 9521   0.651   4.536   7.474 -0.0358  0.5341  0.4617
   96SAPS   H6R 9522   0.627   4.588   7.568  2.7917  0.2075  1.4563
   96SAPS   C27 9523   0.792   4.475   7.472 -0.3958  0.1312 -0.3451
   96SAPS   H7R 9524   0.861   4.555   7.508 -0.8464 -0.5309  2.1817
   96SAPS   H7S 9525   0.822   4.446   7.369  0.7040 -2.4154  0.5937
   96SAPS   C28 9526   0.804   4.357   7.561  0.4096  0.2058 -0.2594
   96SAPS   H8R 9527   0.786   4.260   7.514  0.0805  0.1183  0.0483
   96SAPS   C29 9528   0.824   4.351   7.694  0.3912 -0.2283  0.3882
   96SAPS   H9R 9529   0.822   4.253   7.745  0.4811 -0.4126  0.0396
   96SAPS  C210 9530   0.836   4.465   7.790  0.5333  0.0032  0.8302
   96SAPS  H10R 9531   0.821   4.562   7.737  0.6894  0.6263  1.8789
   96SAPS  H10S 9532   0.938   4.481   7.833  1.2956 -2.4412  0.0850
   96SAPS  C211 9533   0.728   4.458   7.899 -0.6918 -0.1552  0.2792
   96SAPS  H11R 9534   0.627   4.466   7.856 -0.1549  3.2255 -0.6298
   96SAPS  C212 9535   0.741   4.447   8.036 -0.3990  0.0479  0.5713
   96SAPS  H12R 9536   0.646   4.427   8.086 -1.1940 -2.0045 -1.5566
   96SAPS  C213 9537   0.875   4.458   8.105  0.0610  0.2754  0.0376
   96SAPS  H13R 9538   0.948   4.401   8.044 -0.4486 -1.2153  0.7645
   96SAPS  H13S 9539   0.872   4.403   8.202 -0.8071  0.2795  0.0243
   96SAPS  C214 9540   0.933   4.590   8.129  0.4278  0.1393  0.5875
   96SAPS  H14R 9541   0.946   4.650   8.038  1.8231 -1.1352 -0.1174
   96SAPS  C215 9542   0.976   4.654   8.244 -0.1339 -0.0032  0.1024
   96SAPS  H15R 9543   1.018   4.754   8.230  1.2154 -0.7209 -1.3275
   96SAPS  C216 9544   0.971   4.601   8.379  0.4483  0.6105 -0.2871
   96SAPS  H16R 9545   1.069   4.628   8.423  1.9018  0.3777 -3.1138
   96SAPS  H16S 9546   0.958   4.491   8.376 -0.1941  0.6993 -1.0913
   96SAPS  C217 9547   0.843   4.662   8.448 -0.4990 -0.7722  0.0408
   96SAPS  H17R 9548   0.754   4.611   8.406 -0.3895 -0.4664 -0.5748
   96SAPS  H17S 9549   0.846   4.771   8.425  2.2575 -0.9172 -0.6875
   96SAPS  C218 9550   0.857   4.647   8.591 -0.2436  0.4087  0.8183
   96SAPS  H18R 9551   0.957   4.671   8.632 -0.7904  0.2338  2.3473
   96SAPS  H18S 9552   0.846   4.539   8.618  2.1330  0.0161  0.4254
   96SAPS  C219 9553   0.755   4.727   8.674 -0.6232  0.1119  0.6823
   96SAPS  H19R 9554   0.769   4.835   8.654  1.9026 -0.0170  1.3168
   96SAPS  H19S 9555   0.772   4.723   8.784 -1.6427 -0.8702  0.8174
   96SAPS  C220 9556   0.612   4.685   8.640  0.1371  0.4227  0.6321
   96SAPS  H20R 9557   0.545   4.738   8.711 -0.9341 -0.3028  0.1737
   96SAPS  H20S 9558   0.598   4.578   8.667 -1.3277 -0.0230 -1.6515
   96SAPS  H20T 9559   0.584   4.702   8.534 -0.9404  1.8232  1.1006
   96SAPS   C33 9560   1.155   4.719   7.355  0.3062  0.0771 -0.0933
   96SAPS   H3X 9561   1.220   4.798   7.313  0.2727  0.5874  0.7767
   96SAPS   H3Y 9562   1.185   4.615   7.332  0.7665  0.6466 -2.2454
   96SAPS   C34 9563   1.125   4.735   7.502 -0.2807  0.0095  0.0109
   96SAPS   H4X 9564   1.043   4.675   7.547  0.7319  0.5514  2.7980
   96SAPS   H4Y 9565   1.104   4.842   7.521 -0.5096 -0.0096 -0.1372
   96SAPS   C35 9566   1.258   4.699   7.583 -0.0919  0.5279 -0.5894
   96SAPS   H5X 9567   1.345   4.750   7.537  2.3937 -2.4820  0.3357
   96SAPS   H5Y 9568   1.267   4.588   7.584  0.2957  0.5580  0.0233
   96SAPS   C36 9569   1.240   4.728   7.733  0.0662 -0.1905  0.0001
   96SAPS   H6X 9570   1.141   4.687   7.762 -0.7447  0.7808 -1.3254
   96SAPS   H6Y 9571   1.236   4.839   7.738  1.3908 -0.1365  0.2298
   96SAPS   C37 9572   1.350   4.676   7.828 -0.2325  0.1961 -0.0020
   96SAPS   H7X 9573   1.442   4.725   7.790 -0.7113 -1.2182 -3.3505
   96SAPS   H7Y 9574   1.354   4.565   7.815 -0.6382  0.4002 -2.1136
   96SAPS   C38 9575   1.298   4.708   7.968  0.1360  0.5356  0.4289
   96SAPS   H8X 9576   1.194   4.674   7.984 -0.5139  2.9308  1.7196
   96SAPS   H8Y 9577   1.281   4.817   7.980 -2.7664  0.3101 -0.8649
   96SAPS   C39 9578   1.387   4.659   8.076 -0.0983  0.1748 -1.0860
   96SAPS   H9X 9579   1.487   4.708   8.072 -1.1968  2.4609 -1.5216
   96SAPS   H9Y 9580   1.400   4.551   8.051 -1.6233  0.0805 -1.5267
   96SAPS  C310 9581   1.334   4.667   8.215  0.0275 -0.2723 -0.1919
   96SAPS  H10X 9582   1.251   4.593   8.221 -0.7280  0.4830 -0.9764
   96SAPS  H10Y 9583   1.297   4.772   8.222 -0.8205 -0.4631 -1.3633
   96SAPS  C311 9584   1.432   4.623   8.319 -0.6137 -0.8160 -0.3287
   96SAPS  H11X 9585   1.479   4.528   8.286 -0.7668 -0.4105 -1.7838
   96SAPS  H11Y 9586   1.386   4.603   8.418 -1.1144 -0.1783 -0.4204
   96SAPS  C312 9587   1.550   4.716   8.340  0.2564 -0.3909  0.5766
   96SAPS  H12X 9588   1.513   4.818   8.314  0.0019 -0.8296 -0.8582
   96SAPS  H12Y 9589   1.627   4.683   8.267  0.7074  1.8387 -0.0419
   96SAPS  C313 9590   1.610   4.707   8.478  0.2097  0.6938  0.3805
   96SAPS  H13X 9591   1.632   4.601   8.502  1.4510  1.0767  1.0491
   96SAPS  H13Y 9592   1.534   4.740   8.552 -0.5469 -0.4685  0.1418
   96SAPS  C314 9593   1.742   4.792   8.487  0.1229  0.0767 -0.1509
   96SAPS  H14X 9594   1.721   4.901   8.478 -0.4688  0.0907  1.2117
   96SAPS  H14Y 9595   1.807   4.752   8.406 -1.6975 -2.4225 -0.5192
   96SAPS  C315 9596   1.797   4.786   8.628 -0.5322  0.7786 -0.2512
   96SAPS  H15X 9597   1.844   4.687   8.643 -1.0538  0.6387  0.5408
   96SAPS  H15Y 9598   1.710   4.793   8.698 -2.6614  0.4388 -2.7229
   96SAPS  C316 9599   1.904   4.889   8.660 -0.0931  0.2134  0.5436
   96SAPS  H16X 9600   1.950   4.916   8.562  1.3139  1.3323  1.4573
   96SAPS  H16Y 9601   1.979   4.838   8.724 -0.3844 -2.6238 -1.1775
   96SAPS  C317 9602   1.842   5.015   8.733 -0.2330  0.2381  0.2382
   96SAPS  H17X 9603   1.809   4.983   8.834 -2.0696 -1.0400 -0.6999
   96SAPS  H17Y 9604   1.754   5.059   8.681  0.8013  0.2753 -1.5323
   96SAPS  C318 9605   1.940   5.129   8.752  0.0922  0.4955 -0.0230
   96SAPS  H18X 9606   2.041   5.098   8.785  0.5745  0.1690 -1.7231
   96SAPS  H18Y 9607   1.896   5.200   8.826  2.1569  2.6303 -0.7204
   96SAPS  H18Z 9608   1.935   5.177   8.652 -2.4712 -1.4474 -0.9348
   97SAPS     N 9609   0.291   4.249   6.326  0.4085 -0.2784  0.0073
   97SAPS   HN1 9610   0.339   4.319   6.267  1.2663  1.1072  2.2039
   97SAPS   HN2 9611   0.196   4.285   6.348 -0.1709  0.2074 -2.9166
   97SAPS   HN3 9612   0.340   4.223   6.415 -0.1813 -2.2844 -0.2034
   97SAPS   C12 9613   0.270   4.127   6.244 -0.0272  0.0384 -0.2295
   97SAPS  H12A 9614   0.176   4.142   6.193  0.3164  0.5441 -0.7428
   97SAPS   C13 9615   0.382   4.096   6.134  0.0045 -0.4371 -0.4141
   97SAPS  O13A 9616   0.490   4.179   6.142  0.4527  0.6192  0.0611
   97SAPS  O13B 9617   0.378   4.002   6.057 -0.5669  0.4508 -0.0623
   97SAPS   C11 9618   0.250   4.002   6.339 -0.7133  0.2412 -0.3401
   97SAPS  H11A 9619   0.229   3.912   6.278 -1.7300  0.9596 -1.0804
   97SAPS  H11B 9620   0.161   4.018   6.404 -1.4038 -1.9675 -0.6601
   97SAPS     P 9621   0.388   3.898   6.548  0.5863 -0.6184  0.0683
   97SAPS   O13 9622   0.466   3.780   6.503  0.1167 -0.2708 -0.1939
   97SAPS   O14 9623   0.442   3.993   6.648 -0.1275  0.0134 -0.2234
   97SAPS   O12 9624   0.369   3.996   6.424  0.2708  0.2681 -0.2546
   97SAPS   O11 9625   0.238   3.879   6.594  0.0448  0.4355  0.1174
   97SAPS    C1 9626   0.160   3.982   6.651 -0.6218  0.6916 -0.2845
   97SAPS    HA 9627   0.200   4.083   6.632 -0.4231  0.6851  0.1029
   97SAPS    HB 9628   0.061   3.973   6.600 -0.7445  1.6800 -0.2415
   97SAPS    C2 9629   0.147   3.971   6.808 -0.7693  0.2602  1.0223
   97SAPS    HS 9630   0.075   4.048   6.845 -2.4691 -0.3541 -0.7728
   97SAPS   O21 9631   0.272   3.958   6.872  0.3092 -0.2386 -0.5414
   97SAPS   C21 9632   0.328   4.076   6.911 -0.5296  0.5604  0.1175
   97SAPS   O22 9633   0.275   4.184   6.898  0.7835 -0.2031 -0.2731
   97SAPS   C22 9634   0.465   4.046   6.979  0.4009 -0.0108 -0.2231
   97SAPS   H2R 9635   0.459   3.945   7.024  0.6765  2.3473  6.1088
   97SAPS   H2S 9636   0.540   4.063   6.899  3.2823 -0.4155  2.2181
   97SAPS    C3 9637   0.070   3.838   6.847  0.5412 -0.2328  0.2966
   97SAPS    HX 9638   0.120   3.750   6.803 -1.6364 -1.0592 -0.6993
   97SAPS    HY 9639  -0.026   3.834   6.791 -0.2455 -0.4647  1.6102
   97SAPS   O31 9640   0.051   3.819   6.988  0.3925 -0.3725 -0.0713
   97SAPS   C31 9641  -0.021   3.912   7.054 -0.4449 -0.1973  0.3206
   97SAPS   O32 9642  -0.086   4.002   7.003  0.2300  0.4305 -0.2254
   97SAPS   C32 9643   0.012   3.898   7.200 -0.4266  0.3490 -0.3278
   97SAPS   H2X 9644   0.120   3.908   7.226 -0.7877 -1.7063  2.4415
   97SAPS   H2Y 9645  -0.014   3.793   7.227 -1.6833  0.1636 -2.1485
   97SAPS   C23 9646   0.484   4.136   7.102  0.5834 -0.9390  0.4322
   97SAPS   H3R 9647   0.472   4.241   7.067  0.0338 -0.8848  0.7644
   97SAPS   H3S 9648   0.588   4.128   7.140  1.0946  0.7663 -0.4813
   97SAPS   C24 9649   0.383   4.107   7.216  0.3330  0.5169  0.2619
   97SAPS   H4R 9650   0.397   4.002   7.249 -0.5119 -0.0383 -1.0838
   97SAPS   H4S 9651   0.283   4.113   7.168  0.7270 -2.1452 -1.0266
   97SAPS   C25 9652   0.390   4.207   7.329 -0.3406 -0.0949 -0.5107
   97SAPS   H5R 9653   0.414   4.304   7.285  0.4574  0.2203  0.5666
   97SAPS   C26 9654   0.382   4.182   7.468  0.2414  0.1067 -0.1818
   97SAPS   H6R 9655   0.399   4.266   7.536  0.6325 -1.1416  1.3103
   97SAPS   C27 9656   0.378   4.047   7.544 -0.1665 -0.5928  0.0283
   97SAPS   H7R 9657   0.283   3.997   7.514  0.7531 -1.2393 -1.9523
   97SAPS   H7S 9658   0.365   4.066   7.653  2.5895  3.7784 -0.1553
   97SAPS   C28 9659   0.503   3.964   7.524 -0.2250 -0.0203 -0.2259
   97SAPS   H8R 9660   0.517   3.930   7.420  1.8253 -0.8535  0.2902
   97SAPS   C29 9661   0.592   3.925   7.617  0.8071 -0.2299  0.5008
   97SAPS   H9R 9662   0.687   3.881   7.583  0.5838  1.0810 -2.0763
   97SAPS  C210 9663   0.573   3.962   7.763  0.2737 -0.1865  0.0486
   97SAPS  H10R 9664   0.466   3.959   7.795  0.6144  1.2560  1.4610
   97SAPS  H10S 9665   0.612   4.066   7.762 -1.5011  0.5312 -1.7418
   97SAPS  C211 9666   0.644   3.863   7.849  0.7942 -0.2742  0.3049
   97SAPS  H11R 9667   0.588   3.769   7.861  1.3445 -0.5672  0.6532
   97SAPS  C212 9668   0.764   3.879   7.916  0.8804  0.0071  0.9013
   97SAPS  H12R 9669   0.809   3.803   7.981  0.0327 -1.5784 -0.3029
   97SAPS  C213 9670   0.840   4.012   7.909 -1.2238 -0.0515 -0.2528
   97SAPS  H13R 9671   0.775   4.102   7.922  0.3717  0.8563  1.9512
   97SAPS  H13S 9672   0.901   4.017   7.816  1.1530 -2.1015  1.0991
   97SAPS  C214 9673   0.939   4.026   8.023  0.2047 -0.1471  0.6079
   97SAPS  H14R 9674   1.045   4.025   7.996 -0.1379  2.1457 -1.0687
   97SAPS  C215 9675   0.914   4.061   8.148  0.6483 -0.1347  0.4876
   97SAPS  H15R 9676   0.997   4.074   8.219  1.3536 -2.0812  0.0613
   97SAPS  C216 9677   0.777   4.092   8.207 -0.5924  0.2652  0.4100
   97SAPS  H16R 9678   0.698   4.044   8.146  0.5539 -0.6897 -0.3462
   97SAPS  H16S 9679   0.769   4.203   8.207 -0.4278  0.2854 -0.7199
   97SAPS  C217 9680   0.780   4.027   8.358  0.4033 -0.5906 -0.6272
   97SAPS  H17R 9681   0.866   4.073   8.411 -0.2564  0.3059 -0.2973
   97SAPS  H17S 9682   0.796   3.918   8.348 -2.7497 -1.0069 -3.2075
   97SAPS  C218 9683   0.644   4.047   8.425  0.5121  0.0064 -0.2813
   97SAPS  H18R 9684   0.632   3.994   8.522  2.1332 -0.2455 -0.1816
   97SAPS  H18S 9685   0.570   4.001   8.357 -0.3027  2.7790 -1.4065
   97SAPS  C219 9686   0.604   4.196   8.453  0.0139 -0.6496  0.4741
   97SAPS  H19R 9687   0.509   4.199   8.512 -1.0810 -1.3723 -1.1819
   97SAPS  H19S 9688   0.586   4.243   8.354 -1.6604 -0.9233  0.6148
   97SAPS  C220 9689   0.710   4.267   8.537 -0.0212  0.0323  0.0753
   97SAPS  H20R 9690   0.683   4.374   8.545 -0.3777 -0.1468  1.5473
   97SAPS  H20S 9691   0.809   4.262   8.486  0.4446 -0.5519  1.0017
   97SAPS  H20T 9692   0.726   4.228   8.640 -0.0562 -1.4576 -0.4632
   97SAPS   C33 9693  -0.059   4.000   7.291 -0.2771  0.4286 -0.0865
   97SAPS   H3X 9694  -0.167   4.015   7.269 -0.3741 -0.0980  0.0209
   97SAPS   H3Y 9695  -0.005   4.098   7.296  0.7485 -0.1900  1.5563
   97SAPS   C34 9696  -0.047   3.947   7.439 -0.0735 -0.4540 -0.2732
   97SAPS   H4X 9697   0.059   3.938   7.470 -0.7301 -0.5140  2.1678
   97SAPS   H4Y 9698  -0.085   3.843   7.445 -0.7964 -0.1288  1.5458
   97SAPS   C35 9699  -0.113   4.038   7.551  0.1278  0.9134  0.1060
   97SAPS   H5X 9700  -0.213   4.069   7.516 -0.0120  1.1094  0.6576
   97SAPS   H5Y 9701  -0.043   4.123   7.535 -0.3269  1.0721 -1.1294
   97SAPS   C36 9702  -0.105   3.985   7.693 -0.1221 -0.0792  0.3407
   97SAPS   H6X 9703   0.001   3.991   7.728  0.6918 -1.1792 -1.8014
   97SAPS   H6Y 9704  -0.133   3.878   7.696 -1.5850  0.2121 -1.4829
   97SAPS   C37 9705  -0.189   4.070   7.787  0.2305 -0.3413  0.3191
   97SAPS   H7X 9706  -0.294   4.069   7.750  0.8131 -2.0243 -1.4552
   97SAPS   H7Y 9707  -0.156   4.176   7.780 -0.9847  0.0655  0.6502
   97SAPS   C38 9708  -0.185   4.028   7.935 -0.4858  0.0033  0.8045
   97SAPS   H8X 9709  -0.081   3.996   7.959  1.1464  3.8273 -0.3989
   97SAPS   H8Y 9710  -0.269   3.957   7.955 -0.3425  0.2896  2.6545
   97SAPS   C39 9711  -0.220   4.147   8.023  0.0533 -0.4483  0.3861
   97SAPS   H9X 9712  -0.329   4.166   8.011  0.5483  1.3488 -2.1407
   97SAPS   H9Y 9713  -0.168   4.242   7.995 -0.3987 -1.0060 -2.6649
   97SAPS  C310 9714  -0.218   4.111   8.170  0.1684 -0.1270  0.5804
   97SAPS  H10X 9715  -0.111   4.115   8.198  0.5267 -1.3598 -0.5185
   97SAPS  H10Y 9716  -0.265   4.011   8.184 -1.3747  0.4863 -0.0475
   97SAPS  C311 9717  -0.298   4.205   8.254  0.9120 -0.4767  0.6460
   97SAPS  H11X 9718  -0.405   4.204   8.224  0.6558  1.9481  1.2421
   97SAPS  H11Y 9719  -0.261   4.308   8.235 -0.2712  0.4598  3.0319
   97SAPS  C312 9720  -0.270   4.174   8.399 -0.4731 -0.2267 -0.3095
   97SAPS  H12X 9721  -0.189   4.243   8.432 -1.3963  1.7320 -1.9500
   97SAPS  H12Y 9722  -0.229   4.071   8.414  0.5992  0.3522  0.9863
   97SAPS  C313 9723  -0.391   4.200   8.482  0.4401  0.7011 -0.8082
   97SAPS  H13X 9724  -0.476   4.138   8.446 -1.4728  1.2938  2.3058
   97SAPS  H13Y 9725  -0.415   4.308   8.470  1.7191  1.2205  0.8744
   97SAPS  C314 9726  -0.368   4.171   8.630  0.5140 -0.3578  0.0017
   97SAPS  H14X 9727  -0.294   4.242   8.672 -1.3728 -0.0760  3.1763
   97SAPS  H14Y 9728  -0.336   4.069   8.659 -0.6049 -0.4085  1.1104
   97SAPS  C315 9729  -0.502   4.190   8.700 -0.4622  0.3990  0.3312
   97SAPS  H15X 9730  -0.578   4.135   8.642  2.8763 -4.9818  0.3416
   97SAPS  H15Y 9731  -0.519   4.298   8.717 -0.4072  0.4968 -0.2299
   97SAPS  C316 9732  -0.504   4.130   8.846  0.4135 -0.3275 -0.1438
   97SAPS  H16X 9733  -0.411   4.153   8.903  0.5260  1.2791 -0.9095
   97SAPS  H16Y 9734  -0.507   4.020   8.838 -0.8030 -0.2319 -1.2379
   97SAPS  C317 9735  -0.629   4.181   8.915  0.1087 -0.6017 -0.0754
   97SAPS  H17X 9736  -0.716   4.149   8.855  0.5805 -1.3081 -0.3968
   97SAPS  H17Y 9737  -0.635   4.292   8.907  2.2468 -0.2061  2.4258
   97SAPS  C318 9738  -0.644   4.137   9.057 -0.1236 -0.1646  0.3794
   97SAPS  H18X 9739  -0.543   4.134   9.104 -0.6067 -1.2527  1.4008
   97SAPS  H18Y 9740  -0.677   4.031   9.046  0.4480 -0.3689  0.5869
   97SAPS  H18Z 9741  -0.707   4.203   9.121  1.7952  0.7549  1.4038
   98SAPS     N 9742   4.965   1.943   6.030 -0.0729 -0.5914 -0.0140
   98SAPS   HN1 9743   4.965   1.873   6.107  0.9260 -0.5712  0.0115
   98SAPS   HN2 9744   4.905   1.909   5.952  0.0525  2.2536 -1.5065
   98SAPS   HN3 9745   5.061   1.959   5.993 -0.9842  1.8201 -1.5994
   98SAPS   C12 9746   4.904   2.066   6.080  0.8990 -0.1596  0.0744
   98SAPS  H12A 9747   4.960   2.088   6.170 -0.0382 -1.9700  1.1606
   98SAPS   C13 9748   4.917   2.189   5.986 -0.3472  0.9950 -0.2211
   98SAPS  O13A 9749   4.972   2.178   5.876  0.1221  0.3034 -0.6181
   98SAPS  O13B 9750   4.871   2.300   6.031  0.6171 -0.3747 -0.7336
   98SAPS   C11 9751   4.759   2.039   6.106  0.4011  0.0535 -0.8556
   98SAPS  H11A 9752   4.717   1.996   6.013 -0.4167 -2.0235  0.4127
   98SAPS  H11B 9753   4.709   2.135   6.129  0.0267 -0.6860  1.7466
   98SAPS     P 9754   4.587   1.930   6.264 -0.1910  0.0099 -0.4263
   98SAPS   O13 9755   4.529   2.059   6.294  0.0080 -0.4658 -0.4051
   98SAPS   O14 9756   4.513   1.844   6.172 -0.5965 -0.3212 -0.2437
   98SAPS   O12 9757   4.738   1.949   6.212  0.0838  0.1551 -1.2635
   98SAPS   O11 9758   4.607   1.854   6.401 -0.3429  0.4813 -0.7713
   98SAPS    C1 9759   4.728   1.851   6.482 -0.1534 -0.2596 -0.3951
   98SAPS    HA 9760   4.784   1.755   6.479  1.8077  0.5985  2.8519
   98SAPS    HB 9761   4.798   1.929   6.442 -0.6060 -0.0380 -0.7649
   98SAPS    C2 9762   4.710   1.884   6.634  0.2333 -0.0743  0.3752
   98SAPS    HS 9763   4.813   1.890   6.674  0.5821  0.7292 -0.6114
   98SAPS   O21 9764   4.625   1.788   6.698  0.3261 -0.0581  0.4699
   98SAPS   C21 9765   4.694   1.682   6.746 -0.1822 -0.6462  0.0109
   98SAPS   O22 9766   4.813   1.663   6.731 -0.7472 -0.7028 -0.7537
   98SAPS   C22 9767   4.604   1.598   6.836 -0.0839 -0.3958 -0.4688
   98SAPS   H2R 9768   4.532   1.664   6.889  0.9116  1.5259 -1.4143
   98SAPS   H2S 9769   4.541   1.542   6.764  0.4605  1.4331 -2.4747
   98SAPS    C3 9770   4.642   2.018   6.650  0.1192  0.5094 -0.0471
   98SAPS    HX 9771   4.534   1.998   6.637 -0.4336  1.3018  2.6109
   98SAPS    HY 9772   4.674   2.100   6.584 -1.1670  2.7106  1.9096
   98SAPS   O31 9773   4.650   2.056   6.788 -0.6160  0.3280 -0.2258
   98SAPS   C31 9774   4.753   2.128   6.830 -0.6595  0.3566  0.0274
   98SAPS   O32 9775   4.831   2.190   6.756 -0.0252  0.1481  0.5727
   98SAPS   C32 9776   4.760   2.146   6.977  0.1086  0.0385 -0.5622
   98SAPS   H2X 9777   4.656   2.155   7.016 -0.7403  0.6239 -2.8059
   98SAPS   H2Y 9778   4.807   2.245   6.995 -3.2428  1.9187 -1.1057
   98SAPS   C23 9779   4.693   1.507   6.931 -0.5669  0.6263 -0.5024
   98SAPS   H3R 9780   4.767   1.442   6.880 -0.7182  1.9073 -2.4672
   98SAPS   H3S 9781   4.628   1.438   6.988 -0.5589  0.2974 -0.8865
   98SAPS   C24 9782   4.767   1.586   7.043 -0.4211  0.2341  0.1177
   98SAPS   H4R 9783   4.693   1.659   7.082 -1.1942 -0.8733  0.8036
   98SAPS   H4S 9784   4.849   1.640   6.992 -2.2372  0.5747 -2.6120
   98SAPS   C25 9785   4.817   1.501   7.159  0.4966  0.3845 -0.7560
   98SAPS   H5R 9786   4.760   1.513   7.252  0.2921  0.4087 -0.8828
   98SAPS   C26 9787   4.933   1.427   7.169  0.2842 -0.7179 -0.4262
   98SAPS   H6R 9788   4.957   1.368   7.259 -0.5036 -1.9502 -0.9878
   98SAPS   C27 9789   5.026   1.410   7.055 -0.8422 -0.5184 -1.1883
   98SAPS   H7R 9790   5.128   1.426   7.096 -1.4214 -0.4265  0.3117
   98SAPS   H7S 9791   5.015   1.490   6.978 -1.5555 -0.4218 -0.9928
   98SAPS   C28 9792   5.011   1.273   7.002 -0.1686 -0.2806  0.2085
   98SAPS   H8R 9793   4.953   1.274   6.908 -0.2191  3.2442  0.1467
   98SAPS   C29 9794   5.065   1.157   7.053  0.5758 -0.6357  0.1450
   98SAPS   H9R 9795   5.038   1.058   7.015  0.8209 -0.4818 -0.4422
   98SAPS  C210 9796   5.157   1.152   7.170  1.0049  0.5494 -0.5460
   98SAPS  H10R 9797   5.203   1.251   7.188  0.7530  0.1392  3.1544
   98SAPS  H10S 9798   5.240   1.080   7.156  0.9271  0.0947  1.1201
   98SAPS  C211 9799   5.069   1.096   7.279  0.7510 -0.2867 -1.2029
   98SAPS  H11R 9800   5.003   1.010   7.263 -1.4716  0.7052  1.5877
   98SAPS  C212 9801   5.074   1.142   7.407 -0.0755 -0.3566 -0.3423
   98SAPS  H12R 9802   5.018   1.097   7.490  2.0555  1.0648  2.0282
   98SAPS  C213 9803   5.165   1.254   7.454 -0.1390  0.4421 -0.2187
   98SAPS  H13R 9804   5.191   1.325   7.372  1.3820 -0.6077 -0.6784
   98SAPS  H13S 9805   5.257   1.203   7.490 -0.1257  0.2976 -0.4572
   98SAPS  C214 9806   5.091   1.342   7.552 -0.0393  0.1994  0.1833
   98SAPS  H14R 9807   5.016   1.407   7.503  1.2819 -1.3041 -4.3996
   98SAPS  C215 9808   5.119   1.349   7.685  0.0548  0.0599 -0.9062
   98SAPS  H15R 9809   5.061   1.420   7.746  1.4725 -0.2444  0.8750
   98SAPS  C216 9810   5.216   1.275   7.780 -0.1669  0.0452  0.3011
   98SAPS  H16R 9811   5.259   1.344   7.855  0.0817 -1.2187  1.3680
   98SAPS  H16S 9812   5.306   1.252   7.719 -0.5432  1.3869 -0.8107
   98SAPS  C217 9813   5.159   1.155   7.850 -0.3399  0.2826  0.1089
   98SAPS  H17R 9814   5.237   1.099   7.906  0.5583 -0.3254 -1.6672
   98SAPS  H17S 9815   5.139   1.078   7.772  2.7211  0.1877 -0.7157
   98SAPS  C218 9816   5.033   1.177   7.941  0.1212 -0.2156  0.2410
   98SAPS  H18R 9817   4.944   1.179   7.875  1.7058  0.2870 -2.0198
   98SAPS  H18S 9818   5.054   1.272   7.993  0.6867  0.6395 -1.4610
   98SAPS  C219 9819   5.011   1.062   8.037 -0.2197 -0.0679 -0.5690
   98SAPS  H19R 9820   5.100   1.034   8.098 -0.3907  1.4891  0.4587
   98SAPS  H19S 9821   4.961   0.975   7.988 -0.6407 -0.6736  0.8763
   98SAPS  C220 9822   4.920   1.111   8.152  0.2763  1.0311  0.2365
   98SAPS  H20R 9823   4.960   1.190   8.219  0.9394  0.5196  0.4548
   98SAPS  H20S 9824   4.893   1.020   8.210 -0.1678  0.8845 -0.1920
   98SAPS  H20T 9825   4.820   1.137   8.112 -1.1395 -2.3827  1.1667
   98SAPS   C33 9826   4.828   2.038   7.068  0.7265  0.1327 -0.1914
   98SAPS   H3X 9827   4.938   2.054   7.063  0.5640  1.0004 -1.4245
   98SAPS   H3Y 9828   4.803   1.941   7.020  0.5961  0.3020 -0.4672
   98SAPS   C34 9829   4.782   2.035   7.217  0.5349 -0.2628  0.2620
   98SAPS   H4X 9830   4.678   1.996   7.211  0.7324 -0.9149  0.9583
   98SAPS   H4Y 9831   4.774   2.141   7.249 -1.2025  0.7850 -3.1272
   98SAPS   C35 9832   4.863   1.943   7.309 -0.4908  0.1209  0.4272
   98SAPS   H5X 9833   4.969   1.975   7.319 -0.3781  0.2086 -0.8232
   98SAPS   H5Y 9834   4.876   1.842   7.264  2.7147  0.0174  1.3763
   98SAPS   C36 9835   4.790   1.915   7.438  0.2508  0.0317 -0.8165
   98SAPS   H6X 9836   4.722   1.995   7.473  1.2885  0.8474 -0.5919
   98SAPS   H6Y 9837   4.871   1.912   7.515 -0.1904  0.6744 -0.3196
   98SAPS   C37 9838   4.727   1.775   7.440  0.4705  0.2327  0.3278
   98SAPS   H7X 9839   4.808   1.702   7.418  0.5383  0.1156  0.9495
   98SAPS   H7Y 9840   4.658   1.779   7.354  1.0038  2.3613 -0.0582
   98SAPS   C38 9841   4.666   1.731   7.576 -0.6728  0.1964  0.5430
   98SAPS   H8X 9842   4.593   1.810   7.604 -0.6260 -0.0238  1.2955
   98SAPS   H8Y 9843   4.742   1.735   7.657 -0.4969  2.0180  0.3245
   98SAPS   C39 9844   4.578   1.601   7.571 -0.1968 -0.1876 -0.8509
   98SAPS   H9X 9845   4.492   1.618   7.502 -1.8502 -2.0472  0.6412
   98SAPS   H9Y 9846   4.534   1.589   7.672  0.4550 -3.1263 -0.8469
   98SAPS  C310 9847   4.657   1.470   7.540  0.2126 -0.5593 -0.0514
   98SAPS  H10X 9848   4.729   1.451   7.623  0.4614  1.2238  0.1825
   98SAPS  H10Y 9849   4.727   1.487   7.455  0.5112 -1.8197 -0.0792
   98SAPS  C311 9850   4.565   1.359   7.502  0.0151  0.3939  0.1507
   98SAPS  H11X 9851   4.598   1.339   7.398  2.9293  1.5324  0.7601
   98SAPS  H11Y 9852   4.464   1.401   7.520  1.0364  3.4179 -0.5455
   98SAPS  C312 9853   4.581   1.236   7.600  0.2600 -0.0462 -0.3795
   98SAPS  H12X 9854   4.493   1.169   7.586 -1.4884  1.5849  2.0880
   98SAPS  H12Y 9855   4.574   1.275   7.704  0.1892  0.6512 -0.6387
   98SAPS  C313 9856   4.715   1.164   7.580 -0.3449 -0.6272  0.2463
   98SAPS  H13X 9857   4.794   1.228   7.624  0.0064 -1.6744  1.2227
   98SAPS  H13Y 9858   4.716   1.143   7.471 -2.4599  0.6166 -0.0677
   98SAPS  C314 9859   4.704   1.040   7.660 -0.2606  0.0793  0.2335
   98SAPS  H14X 9860   4.622   0.972   7.629  0.2846  0.3479 -1.9528
   98SAPS  H14Y 9861   4.688   1.059   7.768  0.1954  0.2547  0.2715
   98SAPS  C315 9862   4.828   0.957   7.651 -0.1348 -0.7845  0.4190
   98SAPS  H15X 9863   4.916   1.020   7.676 -0.7616  0.1045  0.4074
   98SAPS  H15Y 9864   4.856   0.917   7.551 -0.8715 -2.6246  0.9048
   98SAPS  C316 9865   4.837   0.837   7.751  0.0847  0.2393  0.0335
   98SAPS  H16X 9866   4.778   0.856   7.844 -3.3860 -0.5713 -1.8173
   98SAPS  H16Y 9867   4.940   0.801   7.772 -0.2276 -0.6775  0.0459
   98SAPS  C317 9868   4.762   0.715   7.685 -0.0576  0.2568  0.0015
   98SAPS  H17X 9869   4.803   0.630   7.743 -0.5584 -0.1857 -0.2785
   98SAPS  H17Y 9870   4.807   0.704   7.584 -1.3054 -1.6681 -0.4101
   98SAPS  C318 9871   4.605   0.701   7.681 -0.2590  0.0688 -0.0943
   98SAPS  H18X 9872   4.560   0.764   7.601 -0.6009  1.9226  1.4874
   98SAPS  H18Y 9873   4.563   0.751   7.771 -0.3195  0.1165 -0.1493
   98SAPS  H18Z 9874   4.575   0.595   7.667  0.2350 -0.0831 -0.0392
   99SAPS     N 9875   5.188   6.149   6.349 -0.0337  0.4548 -0.1853
   99SAPS   HN1 9876   5.271   6.178   6.405  0.6796 -0.3602 -0.8036
   99SAPS   HN2 9877   5.126   6.086   6.405  0.5786 -0.0991 -0.1255
   99SAPS   HN3 9878   5.213   6.084   6.272 -1.6753 -1.2332  0.6231
   99SAPS   C12 9879   5.098   6.265   6.306  0.7229  0.0193 -0.5246
   99SAPS  H12A 9880   5.078   6.332   6.388 -0.0321 -0.0045 -0.6814
   99SAPS   C13 9881   5.154   6.350   6.191 -0.1914 -0.2370  0.0702
   99SAPS  O13A 9882   5.245   6.305   6.119 -0.3108 -0.2669  0.3681
   99SAPS  O13B 9883   5.085   6.451   6.157 -0.1451 -0.5763 -0.8318
   99SAPS   C11 9884   4.951   6.213   6.291  0.7336 -0.2678  0.3165
   99SAPS  H11A 9885   4.956   6.141   6.206  1.2743  1.0604 -0.8273
   99SAPS  H11B 9886   4.877   6.292   6.265  0.4081 -0.6180  0.1719
   99SAPS     P 9887   4.786   6.057   6.418  0.2914  0.1356  0.4629
   99SAPS   O13 9888   4.719   6.069   6.286 -0.0966  0.7954 -0.3266
   99SAPS   O14 9889   4.819   5.921   6.467  0.3340 -0.6315 -0.2978
   99SAPS   O12 9890   4.913   6.147   6.410 -0.5137  0.0706 -0.0188
   99SAPS   O11 9891   4.702   6.130   6.530  0.3930 -0.8155  0.3768
   99SAPS    C1 9892   4.763   6.196   6.646  0.6569 -0.3952  0.0757
   99SAPS    HA 9893   4.691   6.188   6.731 -0.1510  0.8404 -0.4562
   99SAPS    HB 9894   4.857   6.151   6.684  1.1344 -1.1457 -1.8969
   99SAPS    C2 9895   4.796   6.337   6.610  0.0423 -0.4993  0.0495
   99SAPS    HS 9896   4.836   6.339   6.506 -0.6263  3.1873 -0.2892
   99SAPS   O21 9897   4.893   6.394   6.702  0.3887  0.1954 -0.0728
   99SAPS   C21 9898   4.959   6.503   6.672 -0.3426  0.3128 -0.3402
   99SAPS   O22 9899   4.962   6.550   6.557  0.0273 -0.0450  0.1280
   99SAPS   C22 9900   5.033   6.569   6.791  0.0526  0.2551  0.8451
   99SAPS   H2R 9901   5.138   6.540   6.769  0.4349  0.1851  2.6289
   99SAPS   H2S 9902   5.034   6.680   6.792 -1.9557  0.3054  1.3383
   99SAPS    C3 9903   4.680   6.442   6.597  0.0627  0.1151  0.0491
   99SAPS    HX 9904   4.611   6.392   6.525 -0.3566  2.1938 -1.0875
   99SAPS    HY 9905   4.715   6.536   6.549  1.0832  0.5842  1.6458
   99SAPS   O31 9906   4.619   6.479   6.724 -0.2444 -0.4620  0.0713
   99SAPS   C31 9907   4.488   6.462   6.745  1.3045  0.4860  0.0808
   99SAPS   O32 9908   4.412   6.426   6.659  0.0163 -0.5904  0.3395
   99SAPS   C32 9909   4.448   6.492   6.892 -0.1318 -0.0836  0.0292
   99SAPS   H2X 9910   4.438   6.602   6.890 -0.9620 -0.1365  0.7238
   99SAPS   H2Y 9911   4.540   6.474   6.952 -0.5639 -0.2543  0.6448
   99SAPS   C23 9912   5.004   6.506   6.929 -0.1933  0.1903  0.7860
   99SAPS   H3R 9913   5.084   6.542   6.998 -0.6395  0.6972  1.0451
   99SAPS   H3S 9914   5.006   6.395   6.942  0.5539  0.2507  1.2393
   99SAPS   C24 9915   4.867   6.550   6.984  0.0322 -0.1289 -0.4705
   99SAPS   H4R 9916   4.874   6.528   7.093  0.9993 -1.0373 -0.6915
   99SAPS   H4S 9917   4.784   6.492   6.938 -2.1753  1.7874  0.8854
   99SAPS   C25 9918   4.830   6.697   6.981  0.1916  0.0922  0.6562
   99SAPS   H5R 9919   4.816   6.731   6.877 -1.0419  0.4459  0.9205
   99SAPS   C26 9920   4.813   6.779   7.082  0.0447 -0.1821 -0.2317
   99SAPS   H6R 9921   4.792   6.885   7.059 -1.2132 -0.4280 -0.2939
   99SAPS   C27 9922   4.828   6.753   7.230  0.0991  0.2508  0.1143
   99SAPS   H7R 9923   4.839   6.850   7.282 -2.0858 -0.3219  1.8011
   99SAPS   H7S 9924   4.914   6.687   7.256  0.0973  0.3323  0.3311
   99SAPS   C28 9925   4.712   6.680   7.288 -0.0755 -0.1950  0.8103
   99SAPS   H8R 9926   4.661   6.625   7.208  2.2107 -0.0021 -0.8896
   99SAPS   C29 9927   4.662   6.685   7.409  0.1378 -0.6657 -0.0614
   99SAPS   H9R 9928   4.573   6.622   7.426 -1.0742  1.1106  0.3573
   99SAPS  C210 9929   4.713   6.763   7.528  0.2727  0.8426 -0.2155
   99SAPS  H10R 9930   4.640   6.842   7.555  0.6112  1.8664 -2.1594
   99SAPS  H10S 9931   4.802   6.823   7.498  1.3490  0.3611  1.8043
   99SAPS  C211 9932   4.750   6.666   7.630 -0.2006 -0.4902 -0.7584
   99SAPS  H11R 9933   4.801   6.577   7.592 -0.5236 -1.0838  0.1780
   99SAPS  C212 9934   4.735   6.679   7.765  0.5997  0.3395 -0.5103
   99SAPS  H12R 9935   4.761   6.595   7.831  1.3487 -0.1173 -1.3623
   99SAPS  C213 9936   4.673   6.800   7.833  1.1085 -0.4663  0.2572
   99SAPS  H13R 9937   4.664   6.884   7.761 -0.5857 -1.8331 -1.2099
   99SAPS  H13S 9938   4.742   6.833   7.913  0.2508  1.1025  0.3917
   99SAPS  C214 9939   4.535   6.771   7.894  0.0890 -0.2061  0.3988
   99SAPS  H14R 9940   4.488   6.677   7.860 -2.5860  0.5848  1.6317
   99SAPS  C215 9941   4.481   6.842   7.993 -0.3460  0.4606  0.5067
   99SAPS  H15R 9942   4.380   6.806   8.020 -0.5224  0.3862 -0.2311
   99SAPS  C216 9943   4.544   6.969   8.050  0.3115 -0.0437 -0.3867
   99SAPS  H16R 9944   4.655   6.955   8.048  0.1328 -1.4995 -1.1249
   99SAPS  H16S 9945   4.521   6.971   8.158  0.8794 -1.8255 -0.2001
   99SAPS  C217 9946   4.508   7.092   7.976 -0.1420 -0.0651  0.0831
   99SAPS  H17R 9947   4.398   7.102   7.976 -0.2411 -0.9199  1.5067
   99SAPS  H17S 9948   4.546   7.100   7.872 -1.2171 -2.6200 -0.5762
   99SAPS  C218 9949   4.556   7.219   8.050 -0.2951  0.7246  0.0904
   99SAPS  H18R 9950   4.520   7.226   8.155 -1.8156  2.6559 -0.4985
   99SAPS  H18S 9951   4.501   7.298   7.994  0.8806  0.1821 -1.9182
   99SAPS  C219 9952   4.703   7.246   8.044  0.0433 -0.0940 -0.0472
   99SAPS  H19R 9953   4.728   7.244   7.936 -1.7763 -1.8019 -0.5044
   99SAPS  H19S 9954   4.748   7.165   8.104  2.6787 -0.0965 -1.8675
   99SAPS  C220 9955   4.737   7.385   8.107  0.4800  1.2133  0.1319
   99SAPS  H20R 9956   4.839   7.416   8.078  1.3080  0.1235  1.6988
   99SAPS  H20S 9957   4.734   7.381   8.218 -1.4679 -0.7143  0.0752
   99SAPS  H20T 9958   4.657   7.452   8.069 -0.2300 -0.2118 -0.9922
   99SAPS   C33 9959   4.323   6.418   6.953  0.1687 -1.1598 -0.0858
   99SAPS   H3X 9960   4.324   6.307   6.944  0.2171 -1.2645  1.0297
   99SAPS   H3Y 9961   4.226   6.444   6.906  0.2965 -1.7212 -0.6766
   99SAPS   C34 9962   4.289   6.442   7.098  0.0904  0.4842 -0.0214
   99SAPS   H4X 9963   4.208   6.372   7.126  1.5764 -0.5876  1.8784
   99SAPS   H4Y 9964   4.264   6.544   7.136  2.0247  0.8173  0.4682
   99SAPS   C35 9965   4.405   6.403   7.197 -0.2153 -0.1669  0.3813
   99SAPS   H5X 9966   4.492   6.471   7.191  2.1333 -3.0795 -1.0764
   99SAPS   H5Y 9967   4.438   6.300   7.170  1.1354 -0.1119  1.7092
   99SAPS   C36 9968   4.355   6.418   7.346 -0.6480 -0.0997 -0.2940
   99SAPS   H6X 9969   4.252   6.377   7.350  0.5160 -3.2219  0.2475
   99SAPS   H6Y 9970   4.350   6.523   7.382 -0.6225  0.1803 -1.0786
   99SAPS   C37 9971   4.440   6.338   7.437  0.2277  0.4444  0.2635
   99SAPS   H7X 9972   4.544   6.375   7.423  0.7060 -0.5430  1.1273
   99SAPS   H7Y 9973   4.445   6.230   7.412  3.2381  0.6453 -0.2885
   99SAPS   C38 9974   4.407   6.340   7.581  0.2488  0.3931  0.2658
   99SAPS   H8X 9975   4.351   6.249   7.609 -1.2158  1.0015 -0.5649
   99SAPS   H8Y 9976   4.335   6.420   7.607 -1.0641 -1.3098  2.1568
   99SAPS   C39 9977   4.536   6.374   7.667  0.1156 -0.1507 -0.4089
   99SAPS   H9X 9978   4.577   6.468   7.624 -2.3325  0.0232 -2.6767
   99SAPS   H9Y 9979   4.599   6.287   7.638 -0.2090 -0.5304  0.0203
   99SAPS  C310 9980   4.501   6.377   7.814  0.1848  0.4175  0.3160
   99SAPS  H10X 9981   4.427   6.460   7.821  1.8123  2.1854 -1.9380
   99SAPS  H10Y 9982   4.600   6.388   7.863  1.5457  0.4687 -2.2545
   99SAPS  C311 9983   4.424   6.253   7.878  0.1077 -0.0498 -0.1277
   99SAPS  H11X 9984   4.331   6.228   7.823  0.1326 -1.7777  0.5510
   99SAPS  H11Y 9985   4.400   6.274   7.985 -0.5528 -2.1189  0.1766
   99SAPS  C312 9986   4.507   6.123   7.896  0.6104 -0.0739  0.2643
   99SAPS  H12X 9987   4.459   6.068   7.979 -0.6392 -0.9791 -1.0095
   99SAPS  H12Y 9988   4.601   6.166   7.936  0.6714  0.0965 -0.0587
   99SAPS  C313 9989   4.517   6.038   7.766  0.2727  0.9049  0.4099
   99SAPS  H13X 9990   4.550   6.098   7.679  0.9008 -1.2157 -0.8795
   99SAPS  H13Y 9991   4.419   5.992   7.743  0.9409 -0.1797 -0.3342
   99SAPS  C314 9992   4.631   5.928   7.774 -0.1685  0.3659 -0.7151
   99SAPS  H14X 9993   4.593   5.857   7.851 -0.6733  1.9743  0.5931
   99SAPS  H14Y 9994   4.726   5.969   7.815 -0.6078 -0.9999  1.9475
   99SAPS  C315 9995   4.650   5.844   7.649 -0.1321  0.1054 -0.2414
   99SAPS  H15X 9996   4.546   5.806   7.635 -0.5745  0.8620  0.8154
   99SAPS  H15Y 9997   4.711   5.757   7.681  2.4428  0.6081 -3.3696
   99SAPS  C316 9998   4.703   5.912   7.531  0.2787 -0.8085  0.4269
   99SAPS  H16X 9999   4.797   5.965   7.559  0.8409 -2.0696  0.9912
   99SAPS  H16Y10000   4.636   5.996   7.500 -0.1215 -0.9356  0.9326
   99SAPS  C31710001   4.741   5.823   7.414 -0.9098  0.0339 -0.1414
   99SAPS  H17X10002   4.796   5.737   7.456 -0.2797  0.5717  0.1540
   99SAPS  H17Y10003   4.804   5.884   7.345 -0.1510 -0.7582 -0.1655
   99SAPS  C31810004   4.623   5.761   7.342 -0.6770  0.7519 -0.2490
   99SAPS  H18X10005   4.570   5.838   7.282 -1.0100 -0.3031 -1.3464
   99SAPS  H18Y10006   4.559   5.707   7.414  1.5856 -0.6932  0.8059
   99SAPS  H18Z10007   4.648   5.676   7.276 -2.2219  0.4700 -0.5048
  100SAPS     N10008   0.273   2.674   6.241 -0.1681 -0.4681 -0.8895
  100SAPS   HN110009   0.336   2.591   6.251 -0.0130 -0.3196 -0.6234
  100SAPS   HN210010   0.344   2.747   6.219  2.3235 -2.8227 -1.3524
  100SAPS   HN310011   0.237   2.676   6.338 -0.3212  3.0960 -0.9117
  100SAPS   C1210012   0.161   2.646   6.144  0.1614  0.2694  0.2673
  100SAPS  H12A10013   0.104   2.737   6.134 -1.4828 -0.8985 -1.5876
  100SAPS   C1310014   0.208   2.607   6.002  0.0806  0.2950  0.0250
  100SAPS  O13A10015   0.328   2.619   5.974 -0.2141  0.1187  0.0753
  100SAPS  O13B10016   0.126   2.582   5.907 -0.3314  0.3153 -0.4155
  100SAPS   C1110017   0.067   2.529   6.194 -0.0867 -0.1555  0.4059
  100SAPS  H11A10018   0.123   2.435   6.179 -1.2401 -0.5877 -1.5816
  100SAPS  H11B10019  -0.007   2.533   6.110 -1.6550  0.8097  1.7641
  100SAPS     P10020  -0.099   2.437   6.362 -0.0272 -0.5062 -0.6972
  100SAPS   O1310021  -0.181   2.491   6.470 -0.0381  0.3995  0.0947
  100SAPS   O1410022  -0.174   2.388   6.249  0.7944  0.2819 -0.4172
  100SAPS   O1210023   0.015   2.543   6.323  0.0610  0.1758  0.0265
  100SAPS   O1110024  -0.014   2.316   6.413 -0.1525 -0.4801  0.4633
  100SAPS    C110025  -0.078   2.195   6.449 -0.1161 -0.2359  0.0259
  100SAPS    HA10026  -0.177   2.182   6.401 -0.9817  0.7055  1.4786
  100SAPS    HB10027  -0.012   2.116   6.407  0.5698 -0.6872  1.8523
  100SAPS    C210028  -0.106   2.194   6.599 -0.1221 -0.2764 -0.1250
  100SAPS    HS10029  -0.189   2.266   6.613 -1.6147 -1.9347 -0.0568
  100SAPS   O2110030   0.004   2.229   6.679 -0.0843  0.0960  0.3373
  100SAPS   C2110031  -0.022   2.273   6.804 -1.3782  0.3780 -0.0453
  100SAPS   O2210032  -0.130   2.305   6.843  0.2172  0.2361 -0.0050
  100SAPS   C2210033   0.103   2.264   6.889 -0.8631  0.5874 -0.7703
  100SAPS   H2R10034   0.174   2.188   6.851 -0.2019  0.8978 -0.1834
  100SAPS   H2S10035   0.160   2.359   6.880 -1.4747  1.1430  0.7256
  100SAPS    C310036  -0.162   2.054   6.643  0.1237  0.2817  0.0406
  100SAPS    HX10037  -0.074   1.987   6.646  1.2541  1.7468  1.0563
  100SAPS    HY10038  -0.230   1.999   6.574 -0.2673 -0.0230  0.6573
  100SAPS   O3110039  -0.222   2.060   6.773 -0.0682 -0.3687  0.3817
  100SAPS   C3110040  -0.351   2.085   6.778 -0.0117 -0.1394 -0.4260
  100SAPS   O3210041  -0.428   2.089   6.684  0.6414  0.1086 -0.2225
  100SAPS   C3210042  -0.395   2.098   6.923 -0.7588 -0.2698  0.3221
  100SAPS   H2X10043  -0.493   2.149   6.926  0.5681  2.5736 -0.1918
  100SAPS   H2Y10044  -0.330   2.175   6.970 -1.3593  0.7288 -0.4343
  100SAPS   C2310045   0.060   2.226   7.036  0.3687 -0.7481 -0.2467
  100SAPS   H3R10046  -0.009   2.305   7.074 -0.2734 -1.8337  0.9327
  100SAPS   H3S10047   0.152   2.241   7.096  0.1675  1.5228 -0.4185
  100SAPS   C2410048  -0.009   2.092   7.061 -0.1317 -0.8788  0.0040
  100SAPS   H4R10049  -0.099   2.078   6.997  1.6907  3.0015 -3.9761
  100SAPS   H4S10050  -0.055   2.086   7.162 -3.6441 -0.5555 -1.4272
  100SAPS   C2510051   0.096   1.993   7.026 -0.5549  0.2690 -0.0440
  100SAPS   H5R10052   0.134   1.984   6.923  0.3990 -0.3587  0.3506
  100SAPS   C2610053   0.154   1.898   7.115  0.1753 -1.1263 -0.0850
  100SAPS   H6R10054   0.246   1.847   7.085  2.6200  0.8975  3.2582
  100SAPS   C2710055   0.122   1.862   7.259  0.6649  0.0794  0.4503
  100SAPS   H7R10056   0.197   1.791   7.299 -1.8395 -3.4629 -0.6427
  100SAPS   H7S10057   0.032   1.796   7.263  2.3330 -2.2281  3.0795
  100SAPS   C2810058   0.116   1.980   7.350  0.2882  0.1406 -0.0778
  100SAPS   H8R10059   0.147   2.078   7.309 -0.1113 -0.0576 -0.8862
  100SAPS   C2910060   0.079   1.983   7.480  0.0192 -0.2914  0.9372
  100SAPS   H9R10061   0.084   2.080   7.532 -2.5326  1.8261 -2.3203
  100SAPS  C21010062   0.032   1.864   7.557 -0.1712 -0.4078  0.0542
  100SAPS  H10R10063   0.109   1.834   7.632 -0.2217  0.1873  0.3510
  100SAPS  H10S10064   0.033   1.773   7.493  0.1548 -1.3760  1.3915
  100SAPS  C21110065  -0.102   1.888   7.623  0.6544 -0.0537  0.1782
  100SAPS  H11R10066  -0.180   1.932   7.558 -0.0062 -1.7654 -0.2410
  100SAPS  C21210067  -0.138   1.862   7.752  1.0849  0.7709 -0.2029
  100SAPS  H12R10068  -0.231   1.908   7.788  0.1206  0.2666 -1.9140
  100SAPS  C21310069  -0.048   1.796   7.854 -0.8370 -0.1228 -0.0379
  100SAPS  H13R10070  -0.065   1.841   7.954  1.6031  0.7848  0.0432
  100SAPS  H13S10071   0.058   1.809   7.822 -0.7462  0.8045  0.5847
  100SAPS  C21410072  -0.084   1.652   7.868 -0.2742 -0.6167  0.2401
  100SAPS  H14R10073  -0.066   1.584   7.784  0.6324 -1.5987  1.2027
  100SAPS  C21510074  -0.144   1.596   7.979 -0.8038  0.4469  0.6234
  100SAPS  H15R10075  -0.159   1.487   7.975 -0.2756  0.3761  0.4400
  100SAPS  C21610076  -0.188   1.660   8.108  0.2100  0.5044  0.1236
  100SAPS  H16R10077  -0.294   1.633   8.127  0.5725 -0.7371  0.4951
  100SAPS  H16S10078  -0.185   1.770   8.097 -0.9234  0.5187 -0.2430
  100SAPS  C21710079  -0.110   1.608   8.227  0.0007  0.3190 -0.1128
  100SAPS  H17R10080  -0.006   1.645   8.228 -0.0269  0.4244  1.0468
  100SAPS  H17S10081  -0.121   1.498   8.219 -3.0188  0.4524  0.8708
  100SAPS  C21810082  -0.180   1.640   8.358 -1.1574 -0.1911  0.4773
  100SAPS  H18R10083  -0.118   1.600   8.441 -0.6358 -2.1993 -0.8023
  100SAPS  H18S10084  -0.282   1.594   8.356 -0.5757 -1.6562 -3.5526
  100SAPS  C21910085  -0.193   1.792   8.387  0.2455 -0.3083  0.1943
  100SAPS  H19R10086  -0.281   1.832   8.332 -0.7546 -2.5554  0.0472
  100SAPS  H19S10087  -0.107   1.846   8.342  1.2569 -2.3672 -0.4512
  100SAPS  C22010088  -0.196   1.833   8.538  0.0750 -0.4809 -0.0609
  100SAPS  H20R10089  -0.199   1.944   8.541 -0.7746 -0.4309 -1.4703
  100SAPS  H20S10090  -0.096   1.807   8.578  1.9460  4.1101 -1.1369
  100SAPS  H20T10091  -0.274   1.775   8.593 -0.0514 -0.7666 -0.5320
  100SAPS   C3310092  -0.410   1.975   7.006 -0.2883 -0.1581  0.4891
  100SAPS   H3X10093  -0.308   1.933   7.022  0.1629  0.2763 -1.0394
  100SAPS   H3Y10094  -0.476   1.904   6.952 -2.2382  1.7707  0.1883
  100SAPS   C3410095  -0.480   1.997   7.147 -0.0601 -0.4313  0.6663
  100SAPS   H4X10096  -0.586   2.011   7.118  0.1844 -1.2663 -0.6843
  100SAPS   H4Y10097  -0.444   2.086   7.204 -0.0509 -0.7834  1.2255
  100SAPS   C3510098  -0.461   1.876   7.235  0.2768 -0.0867  0.0158
  100SAPS   H5X10099  -0.353   1.851   7.248 -0.4936 -3.7522  0.2841
  100SAPS   H5Y10100  -0.509   1.783   7.199  1.3110 -0.1389 -1.3094
  100SAPS   C3610101  -0.529   1.908   7.369  0.3159  0.2953 -0.1375
  100SAPS   H6X10102  -0.636   1.935   7.355  0.5496  1.6363  0.4836
  100SAPS   H6Y10103  -0.490   2.007   7.403  2.7525 -0.1003 -1.5932
  100SAPS   C3710104  -0.520   1.795   7.471  0.0527 -0.3815 -0.1493
  100SAPS   H7X10105  -0.413   1.766   7.482  0.9641  3.2103  2.1425
  100SAPS   H7Y10106  -0.574   1.704   7.436 -0.2516 -0.5612  0.7568
  100SAPS   C3810107  -0.576   1.842   7.607 -0.1267  0.5366 -0.4089
  100SAPS   H8X10108  -0.686   1.829   7.612  0.1383 -1.3416  2.6053
  100SAPS   H8Y10109  -0.552   1.950   7.613  1.0762  0.3985 -2.0199
  100SAPS   C3910110  -0.516   1.760   7.720 -0.6581 -0.1618  0.2060
  100SAPS   H9X10111  -0.416   1.804   7.741 -1.0700  1.0583 -0.3151
  100SAPS   H9Y10112  -0.517   1.651   7.700 -1.7803 -0.0976 -0.1157
  100SAPS  C31010113  -0.589   1.778   7.853  0.2307  0.3858 -0.5674
  100SAPS  H10X10114  -0.694   1.742   7.840  0.4011 -1.9977  3.0421
  100SAPS  H10Y10115  -0.605   1.886   7.875 -0.3291  0.0789  0.6763
  100SAPS  C31110116  -0.550   1.685   7.978 -0.1481  0.2803 -0.2368
  100SAPS  H11X10117  -0.448   1.718   8.007 -0.9966  3.2452 -0.3727
  100SAPS  H11Y10118  -0.550   1.577   7.951 -0.6628  0.8876 -2.9289
  100SAPS  C31210119  -0.641   1.710   8.101  0.4492 -0.1388 -0.3622
  100SAPS  H12X10120  -0.737   1.665   8.068  1.9767 -2.8188 -1.4111
  100SAPS  H12Y10121  -0.658   1.820   8.096 -0.5550 -0.3368 -2.5133
  100SAPS  C31310122  -0.580   1.663   8.232  0.4623 -0.4324  0.0877
  100SAPS  H13X10123  -0.489   1.725   8.249  1.1364 -0.8037 -1.9219
  100SAPS  H13Y10124  -0.536   1.561   8.231  3.4922  0.7532  0.4682
  100SAPS  C31410125  -0.673   1.682   8.353 -0.0711 -0.0943 -0.4556
  100SAPS  H14X10126  -0.747   1.601   8.368 -1.4249  1.2783  0.5992
  100SAPS  H14Y10127  -0.728   1.776   8.329  0.7448  0.4830 -0.0873
  100SAPS  C31510128  -0.592   1.684   8.479  0.6202  0.6773 -1.0553
  100SAPS  H15X10129  -0.541   1.782   8.483 -3.0841  2.8174  3.4470
  100SAPS  H15Y10130  -0.532   1.591   8.471 -2.7420 -1.8850  0.8186
  100SAPS  C31610131  -0.667   1.671   8.621  1.2297 -0.2841  0.0168
  100SAPS  H16X10132  -0.726   1.577   8.622  1.1100 -0.2159  1.3296
  100SAPS  H16Y10133  -0.739   1.756   8.618  0.0909 -1.2569 -0.7485
  100SAPS  C31710134  -0.576   1.686   8.745  1.1490  0.6000 -0.0927
  100SAPS  H17X10135  -0.640   1.689   8.835  0.3738  0.0053 -0.6085
  100SAPS  H17Y10136  -0.521   1.781   8.728 -0.4554  1.2789 -1.7955
  100SAPS  C31810137  -0.475   1.571   8.757 -0.0217 -0.1249 -0.0636
  100SAPS  H18X10138  -0.507   1.466   8.742 -1.3847  0.3204 -0.4282
  100SAPS  H18Y10139  -0.434   1.584   8.860 -0.1629  0.5452 -0.0853
  100SAPS  H18Z10140  -0.385   1.587   8.694  0.6704 -3.2143  0.0238
  101OSM      N10141   4.829   3.169  11.256 -0.1681  0.3146  0.0602
  101OSM    C1510142   4.743   3.263  11.340 -0.1842  0.0416 -0.1379
  101OSM   H15A10143   4.781   3.364  11.337  1.7186 -0.6556 -1.7057
  101OSM   H15B10144   4.746   3.234  11.445  2.6472  1.1979  0.1874
  101OSM   H15C10145   4.640   3.251  11.311 -0.5910  1.8258  0.4595
  101OSM    C1410146   4.959   3.147  11.330 -0.3399 -0.1612 -0.0900
  101OSM   H14A10147   5.039   3.107  11.269  1.5459  1.6524  1.0582
  101OSM   H14B10148   4.945   3.081  11.414  0.0530 -0.0948  0.0305
  101OSM   H14C10149   4.997   3.242  11.365  1.1620 -0.1750 -1.5465
  101OSM    C1310150   4.765   3.033  11.261  0.5048  0.1716  0.8746
  101OSM   H13A10151   4.833   2.961  11.219  3.1080  2.6618  0.4748
  101OSM   H13B10152   4.673   3.026  11.204 -0.5489 -0.5282  2.5980
  101OSM   H13C10153   4.732   3.006  11.360 -2.9774  1.1658  0.1454
  101OSM    C1210154   4.843   3.214  11.116  0.6392 -0.3104 -0.1066
  101OSM   H12A10155   4.895   3.308  11.105  0.0442  0.0761  0.2647
  101OSM   H12B10156   4.745   3.234  11.074  0.8993  1.0113 -0.1287
  101OSM    C1110157   4.926   3.122  11.020  0.7820  0.0620  0.0958
  101OSM   H11A10158   4.922   3.157  10.915  1.0661  3.3537  1.0566
  101OSM   H11B10159   4.890   3.017  11.025  1.2355 -0.1121 -0.1910
  101OSM      P10160   5.148   3.253  11.032 -0.0265 -0.4513  0.1135
  101OSM    O1310161   5.089   3.367  11.111  0.8583 -0.3608 -0.0419
  101OSM    O1410162   5.293   3.225  11.055  0.2686 -0.0688  0.4595
  101OSM    O1110163   5.126   3.276  10.881  0.1393  0.0330  0.1700
  101OSM    O1210164   5.065   3.117  11.061  0.0756  0.0817  0.3419
  101OSM    C1S10165   5.179   3.173  10.796 -0.5067 -0.4035 -0.1556
  101OSM    H1S10166   5.141   3.071  10.817  0.1421 -0.3844  1.1575
  101OSM    H1T10167   5.290   3.180  10.794 -0.4139 -0.9098 -3.4774
  101OSM     NF10168   5.171   3.079  10.566 -0.1906 -0.7586 -0.2446
  101OSM    HNF10169   5.262   3.066  10.528  1.2115  0.0937  2.5606
  101OSM    C2S10170   5.149   3.202  10.644 -0.3667 -0.1831  0.4256
  101OSM    H2S10171   5.041   3.221  10.627 -0.7773 -0.8317  2.0409
  101OSM    C3S10172   5.239   3.327  10.597  0.1118 -0.5502 -0.1363
  101OSM    H3S10173   5.346   3.311  10.624  0.0952 -0.6868 -0.1504
  101OSM     O310174   5.197   3.462  10.645  0.5092  0.4550  0.4987
  101OSM    HO310175   5.107   3.450  10.678  0.4003  0.9618  0.3983
  101OSM    C4S10176   5.233   3.329  10.445 -0.0669 -0.1287 -0.4476
  101OSM    H4S10177   5.130   3.338  10.408 -1.2647 -1.3614  2.2518
  101OSM    C5S10178   5.340   3.308  10.369  0.1696 -0.4133  0.6636
  101OSM    H5S10179   5.431   3.276  10.422 -0.6359  0.3532  2.6100
  101OSM    C6S10180   5.328   3.307  10.218 -0.5598 -0.2198  0.0585
  101OSM    H6S10181   5.313   3.209  10.168  0.3849  1.5954 -4.2639
  101OSM    H6T10182   5.431   3.337  10.189  0.4257 -1.7235  1.7695
  101OSM    C7S10183   5.228   3.413  10.160  0.3527  0.2019 -0.0548
  101OSM    H7S10184   5.250   3.515  10.197 -0.5609 -0.1611  1.5475
  101OSM    H7T10185   5.123   3.393  10.187 -0.9672  5.2086 -0.5469
  101OSM    C8S10186   5.238   3.417  10.004  0.7381  0.2436  0.3204
  101OSM    H8S10187   5.220   3.316   9.960  2.3286 -0.3063  0.8869
  101OSM    H8T10188   5.345   3.441   9.988  0.6443  0.3493 -0.1895
  101OSM    C9S10189   5.165   3.536   9.931  0.6236 -0.7619  0.7201
  101OSM    H9S10190   5.184   3.636   9.975 -0.6146 -0.6382  1.0124
  101OSM    H9T10191   5.059   3.510   9.950  1.0443 -2.7874  0.5026
  101OSM   C10S10192   5.180   3.537   9.778 -0.5825  0.2391  0.4681
  101OSM   H10S10193   5.141   3.444   9.732  2.1571  0.1227 -1.8851
  101OSM   H10T10194   5.288   3.546   9.752 -0.7104  0.2195 -0.0736
  101OSM   C11S10195   5.102   3.653   9.713  0.3215 -0.1056 -0.6062
  101OSM   H11S10196   5.133   3.757   9.739 -0.8419  0.0713  0.1735
  101OSM   H11T10197   5.003   3.655   9.763  0.2863 -4.1695 -0.1853
  101OSM   C12S10198   5.080   3.645   9.560 -0.0160  0.2726 -0.3561
  101OSM   H12S10199   5.029   3.735   9.521 -0.3469  1.4750  2.5724
  101OSM   H12T10200   5.034   3.550   9.524  0.2265 -0.1133  0.3238
  101OSM   C13S10201   5.225   3.655   9.506 -0.6877  0.1926 -0.8861
  101OSM   H13S10202   5.269   3.557   9.537 -1.2229  0.3132  0.3058
  101OSM   H13T10203   5.280   3.738   9.557  0.0755 -0.7715 -0.0837
  101OSM   C14S10204   5.231   3.658   9.355  0.1004 -0.2792  0.3407
  101OSM   H14S10205   5.186   3.753   9.318  0.8679 -0.1568 -0.3006
  101OSM   H14T10206   5.158   3.587   9.310 -1.6714  0.9962  1.0571
  101OSM   C15S10207   5.371   3.625   9.312 -0.2353  0.2790  0.1270
  101OSM   H15S10208   5.414   3.528   9.344 -0.1405 -0.2261 -1.4103
  101OSM   H15T10209   5.440   3.698   9.359  1.3674 -1.7721  1.0620
  101OSM   C16S10210   5.384   3.639   9.161 -0.2777 -0.0327 -0.0422
  101OSM   H16S10211   5.365   3.746   9.137  0.5755  0.2292  0.3997
  101OSM   H16T10212   5.304   3.589   9.103 -0.1880  1.6663 -1.7144
  101OSM   C17S10213   5.515   3.602   9.098 -0.4923  0.1924  0.3582
  101OSM   H17S10214   5.532   3.492   9.104 -1.5823  0.0135  0.4554
  101OSM   H17T10215   5.593   3.656   9.156 -0.0571  1.4151 -1.2910
  101OSM   C18S10216   5.534   3.658   8.956 -0.0308  0.3409  0.2431
  101OSM   H18S10217   5.624   3.622   8.901 -0.6127 -0.6954 -0.0574
  101OSM   H18T10218   5.542   3.768   8.963 -0.5253  0.4112 -0.1790
  101OSM   H18U10219   5.443   3.642   8.894 -1.1860  1.8034  1.4849
  101OSM    C1F10220   5.100   2.971  10.566  0.5292 -0.2131 -0.6371
  101OSM     OF10221   4.991   2.961  10.614  0.4273  0.0909 -0.2366
  101OSM    C2F10222   5.160   2.849  10.502  0.3461  0.1915 -0.6095
  101OSM    H2F10223   5.158   2.766  10.576 -0.8798  0.7800  0.0563
  101OSM    H2G10224   5.265   2.867  10.472  0.0789  0.5197 -1.3821
  101OSM    C3F10225   5.089   2.817  10.370 -0.5517 -0.9826 -0.1190
  101OSM    H3F10226   4.988   2.772  10.380 -1.2163 -0.4752 -3.4578
  101OSM    H3G10227   5.150   2.739  10.320  1.8167  0.3806  0.4301
  101OSM    C4F10228   5.091   2.939  10.277  0.5375 -0.2475  0.4960
  101OSM    H4F10229   5.181   3.003  10.288  0.1508  0.0600  2.2268
  101OSM    H4G10230   5.004   3.002  10.307  1.5243  1.0931  0.5933
  101OSM    C5F10231   5.079   2.918  10.120 -0.2067  0.0238 -0.2672
  101OSM    H5F10232   4.988   2.861  10.091  1.6123 -1.6706 -3.1600
  101OSM    H5G10233   5.165   2.858  10.083  0.5164  0.7148  0.2706
  101OSM    C6F10234   5.071   3.048  10.044  0.6028 -0.1670  0.1307
  101OSM    H6F10235   5.158   3.108  10.076  0.5958 -0.2388  0.2837
  101OSM    H6G10236   4.983   3.111  10.071  1.7954  1.4729  0.2712
  101OSM    C7F10237   5.079   3.024   9.894 -0.2157  0.1379  0.2093
  101OSM    H7F10238   5.011   2.938   9.876  1.4446 -1.0400 -0.8530
  101OSM    H7G10239   5.183   2.990   9.873 -0.1657  0.5646 -0.2413
  101OSM    C8F10240   5.024   3.142   9.810  0.4111 -0.1226 -0.4759
  101OSM    H8F10241   5.099   3.224   9.807 -0.0633  0.3141 -0.4349
  101OSM    H8G10242   4.934   3.179   9.863  1.0144 -0.9425  1.1951
  101OSM    C9F10243   4.992   3.096   9.672 -0.3724  0.0788  0.0592
  101OSM    H9F10244   4.894   3.047   9.665 -0.6091  0.4346  0.8393
  101OSM   C10F10245   5.060   3.114   9.556  0.1888  1.0851  0.2188
  101OSM   H10F10246   5.012   3.075   9.466  0.7085  1.0838 -0.0637
  101OSM   C11F10247   5.197   3.183   9.542  0.4619 -0.5455 -0.4177
  101OSM   H11F10248   5.275   3.103   9.539 -0.3081 -1.5307  2.4208
  101OSM   H11G10249   5.225   3.237   9.635 -0.4083 -2.1302  0.8066
  101OSM   C12F10250   5.214   3.274   9.425 -0.0292  0.3654  0.1270
  101OSM   H12F10251   5.307   3.332   9.438  0.4118 -0.0651 -0.9925
  101OSM   H12G10252   5.132   3.349   9.428  0.5708  1.0313  0.0854
  101OSM   C13F10253   5.220   3.205   9.284  0.1079  0.4310  0.0399
  101OSM   H13F10254   5.114   3.193   9.252 -0.6947  0.4725  2.4422
  101OSM   H13G10255   5.268   3.105   9.283 -0.0124  0.3631 -1.9236
  101OSM   C14F10256   5.287   3.293   9.179 -0.2211  0.2844 -0.1115
  101OSM   H14F10257   5.394   3.305   9.207 -0.8895 -0.2977  3.1263
  101OSM   H14G10258   5.240   3.394   9.182 -0.8275  0.0137 -0.3489
  101OSM   C15F10259   5.279   3.233   9.041 -0.3606 -0.3567  0.1666
  101OSM   H15F10260   5.307   3.312   8.969  0.3230 -0.1064  0.7086
  101OSM   H15G10261   5.179   3.191   9.015  0.0680 -0.3992 -1.5385
  101OSM   C16F10262   5.392   3.126   9.025 -0.0312  0.4655  0.2934
  101OSM   H16F10263   5.403   3.047   9.102  1.6566  2.2216  1.9406
  101OSM   H16G10264   5.495   3.168   9.018  1.0316 -2.1145 -1.2514
  101OSM   C17F10265   5.368   3.041   8.896 -0.5706 -0.6780 -0.0165
  101OSM   H17F10266   5.370   3.115   8.813 -1.8295 -0.1396  0.4197
  101OSM   H17G10267   5.266   2.997   8.896 -1.8716  2.0861 -1.1889
  101OSM   C18F10268   5.469   2.933   8.867 -0.4212 -0.1254  0.0168
  101OSM   H18F10269   5.451   2.918   8.759 -0.6778  4.4526 -0.7632
  101OSM   H18G10270   5.436   2.848   8.930 -0.5325  0.1915  0.3949
  101OSM   H18H10271   5.576   2.964   8.875 -0.0192 -0.6324 -2.5293
  102OSM      N10272   5.998   2.077  10.828  0.3075  0.1305 -0.1126
  102OSM    C1510273   5.890   2.110  10.742 -0.2464 -0.0714 -0.2797
  102OSM   H15A10274   5.928   2.164  10.656 -0.3397 -0.4876 -0.5883
  102OSM   H15B10275   5.810   2.166  10.788  2.9185  3.6054  1.2787
  102OSM   H15C10276   5.840   2.025  10.698 -0.1308  0.2054 -0.9627
  102OSM    C1410277   6.084   1.966  10.768  0.4420 -0.8228  0.2649
  102OSM   H14A10278   6.162   1.927  10.832  0.4502  0.0666  0.8223
  102OSM   H14B10279   6.130   1.990  10.673  1.1476 -0.6342  0.6499
  102OSM   H14C10280   6.019   1.880  10.758 -1.5755  0.5528  0.9396
  102OSM    C1310281   6.085   2.200  10.853 -1.0800  0.4752  0.4385
  102OSM   H13A10282   6.131   2.222  10.758  1.2536  0.4051  1.4975
  102OSM   H13B10283   6.167   2.169  10.916  0.0836  2.7780  0.1545
  102OSM   H13C10284   6.035   2.282  10.902 -1.2342 -1.3235  3.5724
  102OSM    C1210285   5.945   2.019  10.962 -0.1276 -0.6513  0.8524
  102OSM   H12A10286   6.032   2.002  11.024 -0.1833  1.9124  1.7466
  102OSM   H12B10287   5.908   1.921  10.935 -1.5643  0.2477 -0.5617
  102OSM    C1110288   5.832   2.087  11.048  0.2359 -0.7706  0.4365
  102OSM   H11A10289   5.866   2.193  11.055 -0.4171 -0.3742 -1.8590
  102OSM   H11B10290   5.826   2.046  11.152 -0.6625 -1.7948 -0.0061
  102OSM      P10291   5.625   1.961  10.942  0.4087 -0.3257 -0.1592
  102OSM    O1310292   5.705   1.837  10.957 -0.1006  1.1023  0.5762
  102OSM    O1410293   5.493   1.966  11.017  0.0049  0.2305 -0.3292
  102OSM    O1110294   5.606   1.995  10.788  0.0997 -0.3090 -0.3727
  102OSM    O1210295   5.715   2.090  10.975 -0.4441  0.1675 -0.3752
  102OSM    C1S10296   5.475   2.020  10.728 -0.3002  0.2407 -0.2717
  102OSM    H1S10297   5.416   2.089  10.793 -0.7721 -1.1375  0.8028
  102OSM    H1T10298   5.421   1.924  10.722  1.3838 -0.6385 -3.1342
  102OSM     NF10299   5.368   2.111  10.522 -0.1388 -0.7936 -0.5684
  102OSM    HNF10300   5.341   2.055  10.444 -0.8220  1.5615 -2.1273
  102OSM    C2S10301   5.498   2.070  10.580  0.4955  0.0876 -0.7390
  102OSM    H2S10302   5.564   2.160  10.584  0.2770  0.2013  0.5414
  102OSM    C3S10303   5.579   1.962  10.502 -0.4140 -0.2782 -0.5239
  102OSM    H3S10304   5.528   1.866  10.478  0.9913 -0.5710 -2.6278
  102OSM     O310305   5.694   1.910  10.573 -0.9685  0.4984 -0.1293
  102OSM    HO310306   5.666   1.936  10.661  1.4386  2.0699  0.2457
  102OSM    C4S10307   5.622   2.012  10.373  0.0545 -0.0454  0.5110
  102OSM    H4S10308   5.536   2.021  10.305 -0.5360  0.2146  1.2815
  102OSM    C5S10309   5.737   2.048  10.321 -0.4568 -0.0879  0.4850
  102OSM    H5S10310   5.827   2.047  10.384 -0.0702 -0.0772 -0.0578
  102OSM    C6S10311   5.757   2.093  10.179 -0.1215 -0.8113 -0.5749
  102OSM    H6S10312   5.786   2.200  10.172 -1.0473 -0.4432  0.6865
  102OSM    H6T10313   5.656   2.093  10.134 -0.1274  0.6064 -0.6262
  102OSM    C7S10314   5.853   1.993  10.104  0.0230 -0.5540  0.4694
  102OSM    H7S10315   5.811   1.891  10.105  1.9840 -1.4427 -1.2676
  102OSM    H7T10316   5.948   1.987  10.161  0.2232 -0.9756  0.0901
  102OSM    C8S10317   5.886   2.035   9.962  0.0124 -0.4540  0.0726
  102OSM    H8S10318   5.951   1.957   9.916 -0.2157 -0.8458  0.4042
  102OSM    H8T10319   5.948   2.127   9.958  0.2107 -0.6199 -1.0571
  102OSM    C9S10320   5.771   2.049   9.861  0.3863 -0.1357 -0.5318
  102OSM    H9S10321   5.715   2.142   9.884 -0.3355 -0.5061 -0.7527
  102OSM    H9T10322   5.705   1.959   9.864  3.0480 -2.2777 -1.6968
  102OSM   C10S10323   5.817   2.054   9.717 -0.0515  0.2602  0.3412
  102OSM   H10S10324   5.884   1.974   9.678 -0.7444  0.0224 -0.3732
  102OSM   H10T10325   5.870   2.151   9.709 -0.9419  0.6934 -0.4769
  102OSM   C11S10326   5.715   2.057   9.600 -0.2148  0.1105 -0.0073
  102OSM   H11S10327   5.631   2.128   9.610 -1.3884 -0.8824 -1.9901
  102OSM   H11T10328   5.676   1.954   9.585  1.7477 -0.8227  0.9368
  102OSM   C12S10329   5.775   2.092   9.462  0.6071 -0.3835  0.8932
  102OSM   H12S10330   5.874   2.050   9.434  0.0230  0.3994 -3.0082
  102OSM   H12T10331   5.784   2.202   9.452  1.4035 -0.5039  0.1913
  102OSM   C13S10332   5.680   2.041   9.357 -0.2839 -0.4572 -0.6117
  102OSM   H13S10333   5.574   2.075   9.362 -1.3194 -3.1456 -1.8899
  102OSM   H13T10334   5.671   1.931   9.374 -1.1777 -0.0070  2.2577
  102OSM   C14S10335   5.724   2.076   9.216 -0.3727 -0.5986  0.5849
  102OSM   H14S10336   5.816   2.019   9.192 -0.6239 -2.9216  4.3367
  102OSM   H14T10337   5.734   2.187   9.214 -0.2459 -0.6187 -0.2919
  102OSM   C15S10338   5.614   2.042   9.111  0.8656  0.3578 -1.4566
  102OSM   H15S10339   5.528   2.111   9.125  1.4170  0.7366  0.3762
  102OSM   H15T10340   5.577   1.944   9.147  0.9300  1.0555  0.6897
  102OSM   C16S10341   5.655   2.043   8.968  0.2144  0.5349 -0.1090
  102OSM   H16S10342   5.747   1.980   8.962  0.2014  0.3913  0.9223
  102OSM   H16T10343   5.670   2.142   8.920  0.9383  0.0462 -0.9107
  102OSM   C17S10344   5.544   1.980   8.885 -0.1781  0.2745  1.2901
  102OSM   H17S10345   5.525   1.887   8.942  0.7759  0.8093  2.4996
  102OSM   H17T10346   5.596   1.960   8.789 -1.5486 -0.0462  0.5767
  102OSM   C18S10347   5.423   2.062   8.842 -0.0566  0.2817  0.5444
  102OSM   H18S10348   5.445   2.137   8.764 -3.1686  0.9672  0.1969
  102OSM   H18T10349   5.377   2.120   8.925  0.6407  0.7504  0.6079
  102OSM   H18U10350   5.334   1.997   8.823 -0.5656  0.5836  1.7940
  102OSM    C1F10351   5.295   2.214  10.574 -0.3299  0.0945  0.9055
  102OSM     OF10352   5.344   2.307  10.631  0.0316 -0.2056  0.0765
  102OSM    C2F10353   5.149   2.217  10.527 -0.0929 -0.1475  0.4106
  102OSM    H2F10354   5.078   2.183  10.605 -1.8386 -2.3487 -1.9496
  102OSM    H2G10355   5.131   2.148  10.441  0.3042  2.1235 -1.6208
  102OSM    C3F10356   5.100   2.355  10.482  0.6751 -0.1238 -0.1697
  102OSM    H3F10357   5.174   2.400  10.412  1.5572  0.3813  1.0621
  102OSM    H3G10358   5.074   2.417  10.571 -0.2757 -2.3223  1.1652
  102OSM    C4F10359   4.961   2.336  10.402 -0.3661  0.1118 -0.6507
  102OSM    H4F10360   4.885   2.295  10.472 -0.1667 -1.5972 -1.4093
  102OSM    H4G10361   4.971   2.271  10.313 -0.1957  0.7586 -1.1152
  102OSM    C5F10362   4.897   2.467  10.342  0.0900 -0.3868 -0.1270
  102OSM    H5F10363   4.887   2.539  10.426  0.9523 -0.8441  0.3810
  102OSM    H5G10364   4.789   2.450  10.325 -0.0366 -1.1706  1.3489
  102OSM    C6F10365   4.955   2.539  10.213  0.0471 -0.4208 -0.3176
  102OSM    H6F10366   5.064   2.556  10.227  0.9378 -2.9235 -3.1844
  102OSM    H6G10367   4.902   2.634  10.192 -0.7147 -0.6524  0.4648
  102OSM    C7F10368   4.933   2.444  10.089  0.0138 -0.0237  1.0086
  102OSM    H7F10369   4.826   2.414  10.081  0.1534 -0.0716 -1.4133
  102OSM    H7G10370   4.985   2.351  10.121 -0.6037 -0.4668  0.7434
  102OSM    C8F10371   4.985   2.488   9.949  0.4701 -0.0890 -0.6709
  102OSM    H8F10372   4.919   2.571   9.914  0.1472  0.3339  0.8373
  102OSM    H8G10373   4.963   2.411   9.872  1.1193 -2.5938  1.4995
  102OSM    C9F10374   5.124   2.536   9.944 -0.3249  0.0476  0.2515
  102OSM    H9F10375   5.175   2.525  10.041 -1.8796  0.4440  1.1407
  102OSM   C10F10376   5.171   2.611   9.845  0.9343 -0.8302  0.4045
  102OSM   H10F10377   5.276   2.645   9.852  0.3336  1.4001 -0.5148
  102OSM   C11F10378   5.098   2.652   9.721  0.3667  0.3477  0.3448
  102OSM   H11F10379   5.068   2.758   9.732  0.2575  0.4685 -1.0113
  102OSM   H11G10380   5.003   2.593   9.720 -1.1191  2.4603  2.8604
  102OSM   C12F10381   5.187   2.633   9.601  0.7430 -0.5652 -0.2331
  102OSM   H12F10382   5.229   2.531   9.592 -1.3161 -1.3654 -1.2090
  102OSM   H12G10383   5.280   2.694   9.588  1.1068 -0.9495  0.5135
  102OSM   C13F10384   5.108   2.658   9.467  0.4461 -0.1573 -0.3647
  102OSM   H13F10385   5.045   2.749   9.468 -0.9698 -1.0883  1.0910
  102OSM   H13G10386   5.049   2.568   9.438 -2.9484  1.7108  0.2964
  102OSM   C14F10387   5.203   2.680   9.350  0.7939  0.4156  0.2740
  102OSM   H14F10388   5.261   2.586   9.354 -1.8485 -1.5877 -2.7448
  102OSM   H14G10389   5.273   2.766   9.360 -0.0574  1.2474 -0.6510
  102OSM   C15F10390   5.137   2.685   9.223 -0.0867  0.2661  0.6915
  102OSM   H15F10391   5.071   2.596   9.222  0.8783 -0.4715  0.7046
  102OSM   H15G10392   5.221   2.667   9.152 -1.0854  0.3207 -0.5336
  102OSM   C16F10393   5.068   2.814   9.178 -0.6551  0.5228  0.6005
  102OSM   H16F10394   5.137   2.900   9.189  1.1186  0.1111 -4.5707
  102OSM   H16G10395   4.969   2.814   9.230 -1.2572  0.0654 -0.5096
  102OSM   C17F10396   5.039   2.814   9.026  0.3962  0.1706 -0.1909
  102OSM   H17F10397   5.016   2.711   8.993  1.1473  0.0851 -0.4655
  102OSM   H17G10398   5.135   2.839   8.975  0.4808  1.6636  0.6330
  102OSM   C18F10399   4.934   2.906   8.971  0.1169  0.4477  0.1554
  102OSM   H18F10400   4.975   3.009   8.973  1.5235 -0.1008  2.7372
  102OSM   H18G10401   4.851   2.913   9.045 -0.5927 -1.5580 -0.3918
  102OSM   H18H10402   4.908   2.887   8.864 -1.3653  2.0513  0.1692
  103OSM      N10403   1.393   3.454  11.285 -0.1353 -1.1314  0.3729
  103OSM    C1510404   1.460   3.573  11.355 -0.0679 -0.5191 -0.1454
  103OSM   H15A10405   1.436   3.673  11.322  2.5707 -0.2755 -1.5491
  103OSM   H15B10406   1.567   3.564  11.346  0.0427  0.2118  0.3779
  103OSM   H15C10407   1.446   3.563  11.462 -0.7727  0.1708 -0.1672
  103OSM    C1410408   1.450   3.328  11.355  0.0581  0.6359  0.0590
  103OSM   H14A10409   1.551   3.302  11.327 -0.0787 -0.0955  0.2316
  103OSM   H14B10410   1.387   3.248  11.318  0.2668  0.2710  0.4899
  103OSM   H14C10411   1.452   3.346  11.461 -0.7980  0.9761  0.0325
  103OSM    C1310412   1.252   3.473  11.324  0.3820 -1.1082 -0.1188
  103OSM   H13A10413   1.251   3.471  11.431 -0.9960  0.2172 -0.0670
  103OSM   H13B10414   1.186   3.393  11.295 -0.0571 -0.8638  0.2092
  103OSM   H13C10415   1.217   3.571  11.292  1.3828 -1.3856 -2.2820
  103OSM    C1210416   1.409   3.458  11.138  0.0454  0.5333 -0.4819
  103OSM   H12A10417   1.356   3.548  11.112 -0.4878  0.5641  0.6543
  103OSM   H12B10418   1.353   3.374  11.100  1.7715 -2.1244  2.3369
  103OSM    C1110419   1.541   3.451  11.076  0.0017 -0.8709  0.0540
  103OSM   H11A10420   1.517   3.448  10.968  0.6583 -0.2128 -0.1116
  103OSM   H11B10421   1.589   3.355  11.106  0.3704 -0.0656  2.2139
  103OSM      P10422   1.624   3.701  11.061  0.4633  0.3326  0.5026
  103OSM    O1310423   1.505   3.771  11.110 -0.2871  0.0772  0.0155
  103OSM    O1410424   1.757   3.763  11.080 -0.3773 -0.1820 -0.1764
  103OSM    O1110425   1.612   3.666  10.907  0.4613 -0.3367  0.0162
  103OSM    O1210426   1.629   3.552  11.118 -0.2250  0.7547 -0.2815
  103OSM    C1S10427   1.678   3.738  10.798 -0.2277  0.0524 -0.1876
  103OSM    H1S10428   1.786   3.711  10.796 -0.2980 -0.1829 -1.1193
  103OSM    H1T10429   1.678   3.849  10.809  0.1422  0.2820 -2.0912
  103OSM     NF10430   1.666   3.770  10.550  0.4933 -0.2412 -0.1416
  103OSM    HNF10431   1.627   3.857  10.523 -1.0856 -0.2045  1.9842
  103OSM    C2S10432   1.593   3.720  10.664  0.6221 -0.4950 -0.4121
  103OSM    H2S10433   1.583   3.609  10.659 -0.5024 -0.5185  1.5841
  103OSM    C3S10434   1.452   3.773  10.678  0.4926 -0.3798 -0.1093
  103OSM    H3S10435   1.456   3.883  10.688 -2.9792 -0.1412 -0.1423
  103OSM     O310436   1.375   3.736  10.793 -0.1347  0.3537  0.2850
  103OSM    HO310437   1.448   3.713  10.851  1.5612  3.1332 -0.5276
  103OSM    C4S10438   1.374   3.739  10.560 -0.2908 -0.0161  0.5088
  103OSM    H4S10439   1.325   3.642  10.576  1.6924 -1.2226 -0.3653
  103OSM    C5S10440   1.348   3.817  10.460  0.2130  0.5354 -0.2646
  103OSM    H5S10441   1.385   3.920  10.464 -1.7061  1.2649 -0.3323
  103OSM    C6S10442   1.252   3.786  10.348 -0.7485 -0.0205  0.6281
  103OSM    H6S10443   1.160   3.844  10.372 -1.4069 -1.0565  0.6747
  103OSM    H6T10444   1.209   3.684  10.341 -1.5039  0.2802  0.7508
  103OSM    C7S10445   1.317   3.819  10.215 -0.2398 -0.7570  0.0599
  103OSM    H7S10446   1.408   3.756  10.210  0.0852 -0.1942 -2.0800
  103OSM    H7T10447   1.347   3.926  10.211  2.1169 -1.3359  0.4060
  103OSM    C8S10448   1.224   3.778  10.100  0.2820  0.1257 -0.2888
  103OSM    H8S10449   1.126   3.830  10.101  0.1745 -0.0812  0.2643
  103OSM    H8T10450   1.204   3.669  10.114  0.6139  0.1318  0.2603
  103OSM    C9S10451   1.282   3.794   9.963  0.3328  0.2339 -0.1645
  103OSM    H9S10452   1.375   3.733   9.967  0.3585  0.3285  1.2509
  103OSM    H9T10453   1.311   3.900   9.943 -0.5520  0.5593  0.2178
  103OSM   C10S10454   1.185   3.751   9.854  0.1474 -0.6195  0.8423
  103OSM   H10S10455   1.100   3.822   9.862  0.5099  0.0671 -0.8920
  103OSM   H10T10456   1.150   3.647   9.867  0.9533 -0.7964  1.7152
  103OSM   C11S10457   1.243   3.768   9.709 -0.0572  0.1678 -0.5683
  103OSM   H11S10458   1.344   3.722   9.696 -0.5194 -0.8709 -0.5757
  103OSM   H11T10459   1.265   3.877   9.701  3.9137 -0.4806 -0.4540
  103OSM   C12S10460   1.149   3.717   9.596  0.6634 -0.1806  0.7937
  103OSM   H12S10461   1.053   3.764   9.622 -0.2776 -1.3951 -0.3384
  103OSM   H12T10462   1.148   3.605   9.594 -0.6417 -0.1944  1.6076
  103OSM   C13S10463   1.185   3.779   9.454 -0.7546  0.3357  0.5591
  103OSM   H13S10464   1.289   3.742   9.442 -0.2552  0.9587  2.6123
  103OSM   H13T10465   1.182   3.890   9.451 -0.3248  0.3612 -2.4509
  103OSM   C14S10466   1.088   3.721   9.351  0.0693 -0.2502  0.1783
  103OSM   H14S10467   0.990   3.773   9.362  0.0788 -0.2470  0.2453
  103OSM   H14T10468   1.072   3.613   9.373 -2.4982 -0.3286 -1.6546
  103OSM   C15S10469   1.130   3.721   9.202  0.2198  0.2229  0.1975
  103OSM   H15S10470   1.053   3.659   9.152 -0.0881 -0.2648  1.2479
  103OSM   H15T10471   1.222   3.659   9.190 -1.6897 -2.4793 -1.7221
  103OSM   C16S10472   1.163   3.858   9.142  0.1499 -0.6001  0.1843
  103OSM   H16S10473   1.208   3.930   9.214  1.5540  2.1402 -3.1537
  103OSM   H16T10474   1.068   3.907   9.114  1.0217  0.7674 -0.4974
  103OSM   C17S10475   1.259   3.856   9.021 -0.0148  0.1678 -1.2145
  103OSM   H17S10476   1.218   3.786   8.945 -3.5481  0.4257  0.2565
  103OSM   H17T10477   1.360   3.820   9.053 -0.4167 -0.2894 -0.4128
  103OSM   C18S10478   1.268   3.986   8.943 -0.0513  0.4152 -0.2118
  103OSM   H18S10479   1.303   3.969   8.839 -1.2112  1.7919 -0.8681
  103OSM   H18T10480   1.327   4.068   8.991  1.2390 -0.8108  0.3559
  103OSM   H18U10481   1.163   4.019   8.934 -0.4271 -1.0728 -1.5664
  103OSM    C1F10482   1.783   3.712  10.519 -0.3424 -0.6850  0.3497
  103OSM     OF10483   1.815   3.612  10.578  0.1204  0.0988 -0.0211
  103OSM    C2F10484   1.871   3.768  10.413  0.6060  0.6858  0.0549
  103OSM    H2F10485   1.912   3.687  10.349 -2.0433 -0.4214 -0.3790
  103OSM    H2G10486   1.952   3.836  10.445  1.9151 -0.5183 -0.5984
  103OSM    C3F10487   1.789   3.846  10.300 -0.6491  0.1943 -0.5700
  103OSM    H3F10488   1.721   3.920  10.349 -1.4133 -0.2825 -0.8996
  103OSM    H3G10489   1.727   3.771  10.248 -1.1957  0.2158  0.0333
  103OSM    C4F10490   1.873   3.912  10.199 -0.2058  0.0853  0.8477
  103OSM    H4F10491   1.937   3.843  10.141  1.4353  0.7623  1.7782
  103OSM    H4G10492   1.940   3.991  10.239  0.1977  0.2230 -0.0895
  103OSM    C5F10493   1.777   3.977  10.098  0.2215 -0.1787  0.2440
  103OSM    H5F10494   1.762   4.081  10.134 -1.7248 -0.6399  0.8545
  103OSM    H5G10495   1.685   3.920  10.073  0.5992 -0.2402 -1.1084
  103OSM    C6F10496   1.856   3.994   9.963 -0.0583 -0.4162  0.7012
  103OSM    H6F10497   1.873   3.899   9.908  1.6921 -0.7671  1.7716
  103OSM    H6G10498   1.960   4.031   9.980  0.0608  1.6905 -3.3911
  103OSM    C7F10499   1.797   4.092   9.855  0.0357 -0.4420 -0.5663
  103OSM    H7F10500   1.752   4.176   9.912  3.6564  1.7271 -0.6237
  103OSM    H7G10501   1.711   4.041   9.806 -0.7801 -1.1047  1.4199
  103OSM    C8F10502   1.906   4.130   9.753  0.2338  0.3533  0.4608
  103OSM    H8F10503   1.941   4.033   9.713 -1.4749  0.4279 -1.3261
  103OSM    H8G10504   1.981   4.182   9.817  0.5311  1.2053 -0.5649
  103OSM    C9F10505   1.858   4.222   9.646  0.3210  0.0920 -0.0877
  103OSM    H9F10506   1.819   4.320   9.677  1.2991  0.3323  0.4254
  103OSM   C10F10507   1.853   4.198   9.514  0.2017 -0.0768 -0.0056
  103OSM   H10F10508   1.787   4.262   9.454  2.1686  1.0054 -1.1154
  103OSM   C11F10509   1.905   4.076   9.439 -0.2320  0.2911  0.3560
  103OSM   H11F10510   1.828   3.996   9.439 -0.9766  0.9865  0.5083
  103OSM   H11G10511   1.994   4.037   9.493 -1.0767 -0.7851  1.0107
  103OSM   C12F10512   1.941   4.115   9.297  0.0891  0.1196  0.0533
  103OSM   H12F10513   1.852   4.165   9.253  1.3287  0.8135 -1.7454
  103OSM   H12G10514   1.955   4.023   9.237 -0.0734  0.7061 -0.8966
  103OSM   C13F10515   2.062   4.215   9.292  0.1220 -0.3363  0.9675
  103OSM   H13F10516   2.026   4.301   9.353  0.4812  0.8811 -0.5015
  103OSM   H13G10517   2.146   4.178   9.354  0.3486  3.7488  3.4402
  103OSM   C14F10518   2.095   4.278   9.157  1.0506 -0.5890 -1.0170
  103OSM   H14F10519   2.076   4.200   9.081 -2.5370 -0.8599 -0.0065
  103OSM   H14G10520   2.203   4.305   9.159  1.1246 -0.9046 -0.2289
  103OSM   C15F10521   2.008   4.397   9.121  0.7523 -0.1694  0.0948
  103OSM   H15F10522   2.033   4.477   9.195  1.0809  1.2417 -1.4734
  103OSM   H15G10523   1.901   4.375   9.138  0.6416 -0.7202 -1.2279
  103OSM   C16F10524   2.035   4.439   8.975 -0.2126 -0.2015 -0.0058
  103OSM   H16F10525   1.993   4.365   8.904 -0.5030  1.1937 -1.3336
  103OSM   H16G10526   2.140   4.450   8.942 -0.8800  0.9355 -1.9238
  103OSM   C17F10527   1.973   4.577   8.938  0.0263 -1.3418  0.1312
  103OSM   H17F10528   1.863   4.568   8.940 -0.1478  0.3472 -0.3542
  103OSM   H17G10529   1.998   4.608   8.834 -2.4485  2.1938  0.4361
  103OSM   C18F10530   2.000   4.696   9.034 -0.2324 -0.7342  0.4507
  103OSM   H18F10531   1.979   4.675   9.141 -0.7663 -2.6915  0.0035
  103OSM   H18G10532   1.939   4.779   8.993  0.4777 -0.6279 -0.4000
  103OSM   H18H10533   2.106   4.723   9.016  0.3874 -2.7197  0.8534
  104OSM      N10534   4.844   4.382  11.025  0.7433  1.1119 -0.5900
  104OSM    C1510535   4.826   4.507  11.098 -0.2417 -0.2628 -0.0551
  104OSM   H15A10536   4.915   4.535  11.153 -0.8361  0.5524  0.5314
  104OSM   H15B10537   4.748   4.510  11.173 -3.5437 -3.9356 -2.9010
  104OSM   H15C10538   4.805   4.585  11.027  1.8173  1.1362  0.7664
  104OSM    C1410539   4.869   4.261  11.116  0.1228 -0.4926 -0.0647
  104OSM   H14A10540   4.898   4.178  11.054 -0.6764  0.5671 -1.9128
  104OSM   H14B10541   4.783   4.231  11.174  1.3271 -1.1906  1.4342
  104OSM   H14C10542   4.958   4.283  11.174  2.0960 -0.9600 -2.7090
  104OSM    C1310543   4.719   4.342  10.942 -0.2814  0.1883  0.3700
  104OSM   H13A10544   4.635   4.311  11.003  0.0274 -0.7816  0.3176
  104OSM   H13B10545   4.738   4.245  10.898  1.9458 -1.1781  3.9053
  104OSM   H13C10546   4.685   4.408  10.864 -1.7367 -2.4637 -1.4311
  104OSM    C1210547   4.961   4.401  10.928  0.9208 -0.1276  0.2284
  104OSM   H12A10548   4.984   4.305  10.884  1.6711 -0.3141  1.0089
  104OSM   H12B10549   5.043   4.422  10.994 -0.2961 -0.3643  1.8668
  104OSM    C1110550   4.966   4.517  10.821  1.1283 -0.6492 -0.2620
  104OSM   H11A10551   4.894   4.485  10.743 -1.7444  0.2384  1.8743
  104OSM   H11B10552   5.060   4.503  10.763 -0.1100 -4.4490 -1.6701
  104OSM      P10553   5.073   4.733  10.927  0.0716  0.0716 -0.0937
  104OSM    O1310554   5.014   4.840  11.012  0.0601  1.1536  0.0158
  104OSM    O1410555   5.167   4.634  10.983  0.2813  0.1102 -0.0982
  104OSM    O1110556   5.125   4.791  10.794  0.3465 -0.6478  0.5116
  104OSM    O1210557   4.943   4.649  10.868  0.4004 -0.4659 -0.2628
  104OSM    C1S10558   5.028   4.851  10.713  0.7939  0.3495  0.2592
  104OSM    H1S10559   4.969   4.936  10.753 -1.8524 -1.2611  0.0146
  104OSM    H1T10560   4.960   4.773  10.673  2.2888 -0.4456 -0.8405
  104OSM     NF10561   4.987   4.967  10.508  0.0110  0.4119 -0.1795
  104OSM    HNF10562   4.942   4.911  10.438  0.8781 -0.9936  0.3301
  104OSM    C2S10563   5.093   4.910  10.584 -0.3642 -0.3039  0.9729
  104OSM    H2S10564   5.159   4.995  10.613  0.5774 -0.2991 -1.0203
  104OSM    C3S10565   5.180   4.801  10.510 -0.2330  1.0812 -0.0247
  104OSM    H3S10566   5.122   4.706  10.503 -1.8021  1.9121  1.1279
  104OSM     O310567   5.306   4.766  10.568  1.1126 -0.0351 -0.8318
  104OSM    HO310568   5.286   4.799  10.656 -2.1733 -1.0409 -1.0464
  104OSM    C4S10569   5.230   4.860  10.385  0.1417  0.0485  0.4991
  104OSM    H4S10570   5.259   4.965  10.388 -0.3563  0.2754 -1.3122
  104OSM    C5S10571   5.210   4.799  10.259  0.3297 -0.0696 -0.3969
  104OSM    H5S10572   5.172   4.697  10.248 -0.1357 -0.2004  1.8608
  104OSM    C6S10573   5.243   4.867  10.132 -0.3110 -0.5112 -0.0767
  104OSM    H6S10574   5.296   4.962  10.155 -1.2555  0.0323 -0.0880
  104OSM    H6T10575   5.150   4.911  10.090  0.2806  1.0420  0.1618
  104OSM    C7S10576   5.332   4.793  10.026 -0.1838  0.1281 -0.1568
  104OSM    H7S10577   5.282   4.698   9.995 -0.7482  0.6210 -0.7714
  104OSM    H7T10578   5.433   4.761  10.061  0.1019 -4.6718 -4.1405
  104OSM    C8S10579   5.337   4.867   9.892 -0.7338 -0.2932 -0.2763
  104OSM    H8S10580   5.402   4.821   9.815  1.7459 -0.3706  1.7500
  104OSM    H8T10581   5.369   4.971   9.913 -1.1273 -0.5723  1.8449
  104OSM    C9S10582   5.198   4.876   9.826  0.3342 -0.5351  0.9298
  104OSM    H9S10583   5.136   4.941   9.891 -0.6807 -1.5970  1.0666
  104OSM    H9T10584   5.156   4.773   9.826 -1.1687  0.0535  1.2653
  104OSM   C10S10585   5.193   4.920   9.675  0.2856  0.0915 -0.1315
  104OSM   H10S10586   5.221   5.028   9.675 -1.1996  0.5003  0.1774
  104OSM   H10T10587   5.088   4.907   9.641  0.1000  2.3756 -0.6372
  104OSM   C11S10588   5.274   4.840   9.572 -0.9264 -0.3425 -0.0699
  104OSM   H11S10589   5.241   4.735   9.589  3.5922 -1.6918  1.7901
  104OSM   H11T10590   5.380   4.828   9.601 -0.2595  0.1562 -2.1849
  104OSM   C12S10591   5.265   4.888   9.428  0.2275  0.1634  0.4813
  104OSM   H12S10592   5.326   4.813   9.373  0.7431 -0.7373  2.2103
  104OSM   H12T10593   5.316   4.986   9.431  2.1513 -0.8070  1.6871
  104OSM   C13S10594   5.120   4.899   9.372 -0.2893 -0.3702  0.5564
  104OSM   H13S10595   5.057   4.979   9.417 -0.8007 -0.0039 -0.7663
  104OSM   H13T10596   5.072   4.799   9.379 -1.8089 -0.0395 -3.0072
  104OSM   C14S10597   5.133   4.928   9.223 -0.2261 -0.5378  0.1354
  104OSM   H14S10598   5.190   5.021   9.205 -0.2824 -0.3769  0.7635
  104OSM   H14T10599   5.031   4.957   9.193  0.5030  0.1443 -1.8576
  104OSM   C15S10600   5.187   4.813   9.133  0.4361  0.2199  0.2253
  104OSM   H15S10601   5.118   4.727   9.138  0.2393  0.2285 -1.5270
  104OSM   H15T10602   5.287   4.783   9.172  1.9584  1.3476 -2.4822
  104OSM   C16S10603   5.198   4.848   8.987  0.0880  0.2408  0.2827
  104OSM   H16S10604   5.296   4.899   8.980  0.3502 -0.4781 -2.7189
  104OSM   H16T10605   5.116   4.910   8.944 -1.0108 -2.2364 -1.4217
  104OSM   C17S10606   5.216   4.724   8.898  0.0082 -0.7277  0.9530
  104OSM   H17S10607   5.124   4.662   8.901 -1.2031  0.9456  0.3922
  104OSM   H17T10608   5.301   4.669   8.942  1.7067  0.9920 -0.0253
  104OSM   C18S10609   5.249   4.767   8.751 -0.4545  0.1634  0.4545
  104OSM   H18S10610   5.153   4.780   8.698 -0.9672  0.1091  1.3508
  104OSM   H18T10611   5.302   4.690   8.691  0.9168 -1.1550  3.1686
  104OSM   H18U10612   5.319   4.853   8.749 -1.5115  1.0437 -1.8685
  104OSM    C1F10613   4.935   5.088  10.532 -0.1609 -0.0438  0.3483
  104OSM     OF10614   4.974   5.157  10.623  0.1138 -0.3749  0.3266
  104OSM    C2F10615   4.824   5.139  10.443 -0.5498 -0.2914 -0.1423
  104OSM    H2F10616   4.755   5.191  10.514  1.1094  2.3438 -0.3352
  104OSM    H2G10617   4.762   5.064  10.390 -1.8818  2.4329 -2.7257
  104OSM    C3F10618   4.867   5.260  10.356 -0.0375 -0.0901  0.5735
  104OSM    H3F10619   4.933   5.327  10.415  0.6043 -1.3190  1.2983
  104OSM    H3G10620   4.772   5.317  10.348  0.0597 -0.1782 -1.9794
  104OSM    C4F10621   4.904   5.218  10.214  0.1853 -0.7847 -0.5711
  104OSM    H4F10622   4.989   5.146  10.215  0.0981 -0.8801  0.0614
  104OSM    H4G10623   4.943   5.312  10.171  0.8013 -0.0555  1.4759
  104OSM    C5F10624   4.787   5.170  10.127  0.1473  0.2245  0.0678
  104OSM    H5F10625   4.716   5.255  10.129  2.3818  2.2348 -1.0971
  104OSM    H5G10626   4.736   5.086  10.179  1.7588  1.0794  3.3225
  104OSM    C6F10627   4.820   5.151   9.977 -0.1289 -0.2508 -0.3047
  104OSM    H6F10628   4.739   5.097   9.923  0.4536 -2.0290  0.5363
  104OSM    H6G10629   4.911   5.088   9.981  1.0452  1.4366  1.9297
  104OSM    C7F10630   4.843   5.276   9.891  0.2582 -0.2117  0.1257
  104OSM    H7F10631   4.890   5.363   9.943 -2.2114  1.2399  0.0702
  104OSM    H7G10632   4.739   5.305   9.865 -0.1413  1.2490  2.9458
  104OSM    C8F10633   4.932   5.244   9.760  0.4320 -0.4660 -0.1987
  104OSM    H8F10634   5.038   5.221   9.784  0.4281  0.6255  1.0195
  104OSM    H8G10635   4.948   5.339   9.704 -1.1725 -0.8364 -1.3553
  104OSM    C9F10636   4.868   5.129   9.682 -0.0008  0.0843  0.1163
  104OSM    H9F10637   4.884   5.026   9.718 -0.3427  0.4129  1.2447
  104OSM   C10F10638   4.781   5.150   9.580 -0.5328  0.2174 -0.3091
  104OSM   H10F10639   4.739   5.070   9.518 -2.2180 -0.6856  1.8412
  104OSM   C11F10640   4.750   5.282   9.519  0.1734  0.9858  0.0370
  104OSM   H11F10641   4.820   5.358   9.557  0.2974  0.2168  1.3965
  104OSM   H11G10642   4.646   5.309   9.545  0.2677  1.1915  0.1992
  104OSM   C12F10643   4.765   5.293   9.361  0.3788 -0.7586 -1.0565
  104OSM   H12F10644   4.873   5.271   9.347  0.4538 -2.5772  1.5960
  104OSM   H12G10645   4.743   5.396   9.326  1.2420 -0.4850 -0.8043
  104OSM   C13F10646   4.672   5.217   9.276 -0.0605  0.1537  0.0785
  104OSM   H13F10647   4.576   5.213   9.333  0.7244  3.1829  1.8319
  104OSM   H13G10648   4.703   5.111   9.278  1.4644  0.5943  1.2428
  104OSM   C14F10649   4.642   5.265   9.132  0.0029 -0.1862  0.3869
  104OSM   H14F10650   4.739   5.277   9.079 -0.4237  0.2876 -0.2966
  104OSM   H14G10651   4.595   5.365   9.141  1.2529  0.2412  3.5539
  104OSM   C15F10652   4.554   5.172   9.055 -0.3098 -0.1897 -0.6701
  104OSM   H15F10653   4.455   5.166   9.105  0.6787 -1.7070  1.2591
  104OSM   H15G10654   4.601   5.072   9.068 -1.3827 -0.3331  3.3199
  104OSM   C16F10655   4.547   5.215   8.905  0.5042  0.9249  0.6323
  104OSM   H16F10656   4.645   5.227   8.855 -0.0485  0.6459 -0.5622
  104OSM   H16G10657   4.495   5.313   8.889  0.1068  0.6483  0.1973
  104OSM   C17F10658   4.460   5.122   8.828  0.3555 -0.8849  0.9102
  104OSM   H17F10659   4.354   5.142   8.854  0.5751  2.0702 -0.1268
  104OSM   H17G10660   4.478   5.016   8.856  0.2313 -1.0197  0.4819
  104OSM   C18F10661   4.487   5.136   8.677  0.2366  0.2015 -0.4736
  104OSM   H18F10662   4.438   5.048   8.631  0.1390 -0.5141  0.9528
  104OSM   H18G10663   4.597   5.137   8.658  0.0216 -1.0024 -1.9378
  104OSM   H18H10664   4.451   5.235   8.642 -0.3481 -0.1550 -0.8944
  105OSM      N10665   5.531   3.982  11.225 -0.0922 -0.8594  0.3615
  105OSM    C1510666   5.520   4.129  11.245  0.6678  0.0472 -0.3876
  105OSM   H15A10667   5.499   4.163  11.145  2.7386 -2.0136 -1.6030
  105OSM   H15B10668   5.602   4.181  11.293 -1.5945  2.4799  1.1519
  105OSM   H15C10669   5.433   4.150  11.307  0.2561 -0.9740 -0.5972
  105OSM    C1410670   5.670   3.952  11.208  0.3092  0.1821  0.5664
  105OSM   H14A10671   5.719   4.023  11.142  2.3705  0.2748  2.0907
  105OSM   H14B10672   5.676   3.847  11.186  0.3862  0.2447  0.2850
  105OSM   H14C10673   5.718   3.964  11.304  1.5188 -0.0918  0.0148
  105OSM    C1310674   5.472   3.912  11.342 -0.5208 -0.1806 -0.1574
  105OSM   H13A10675   5.543   3.919  11.424  0.4385  0.3167 -1.0085
  105OSM   H13B10676   5.465   3.806  11.321 -0.5175 -0.0537 -0.8132
  105OSM   H13C10677   5.374   3.950  11.366 -0.7958 -1.5564  1.0756
  105OSM    C1210678   5.456   3.932  11.096  0.4904 -0.5256 -0.5649
  105OSM   H12A10679   5.349   3.947  11.106  0.5526 -1.4801  2.8523
  105OSM   H12B10680   5.473   3.827  11.080 -1.9190 -0.6715 -2.9599
  105OSM    C1110681   5.500   4.004  10.965  0.9848 -0.3261 -0.0267
  105OSM   H11A10682   5.450   3.946  10.884 -0.4858  0.1574  0.5030
  105OSM   H11B10683   5.607   3.994  10.939  0.8290  1.8758 -1.8996
  105OSM      P10684   5.299   4.169  10.938  0.4188  0.2722 -0.2295
  105OSM    O1310685   5.220   4.045  10.925  0.1828 -0.2854  0.3766
  105OSM    O1410686   5.255   4.272  11.033  0.0247  0.1435  0.6195
  105OSM    O1110687   5.298   4.235  10.797  0.1429 -0.1231  0.4709
  105OSM    O1210688   5.451   4.138  10.958  0.2143  0.4601  0.1458
  105OSM    C1S10689   5.389   4.340  10.763 -0.2175 -0.2099 -0.2526
  105OSM    H1S10690   5.496   4.310  10.775 -0.2570 -0.3992 -0.3868
  105OSM    H1T10691   5.366   4.424  10.833 -0.0472 -0.5735  0.2513
  105OSM     NF10692   5.487   4.495  10.597 -0.2130 -0.3473  0.1214
  105OSM    HNF10693   5.453   4.589  10.593  0.7235  0.1224  1.9005
  105OSM    C2S10694   5.392   4.386  10.612  0.4502  0.5473  0.3878
  105OSM    H2S10695   5.438   4.302  10.555 -5.1567 -2.9231  0.2307
  105OSM    C3S10696   5.247   4.408  10.553 -0.3760 -0.1760 -0.1707
  105OSM    H3S10697   5.207   4.494  10.611  2.0491  0.6292  0.4191
  105OSM     O310698   5.162   4.294  10.576 -0.0485 -0.2134  0.3219
  105OSM    HO310699   5.210   4.249  10.645  0.7573 -0.1128 -0.1631
  105OSM    C4S10700   5.245   4.446  10.411 -0.2686 -0.4004  0.5672
  105OSM    H4S10701   5.234   4.555  10.398 -0.7365 -0.6408 -1.4509
  105OSM    C5S10702   5.249   4.357  10.311 -0.5097 -0.2563 -0.8010
  105OSM    H5S10703   5.259   4.250  10.333  0.0028  0.0383  0.4522
  105OSM    C6S10704   5.246   4.398  10.168  0.1244  0.2645  0.3497
  105OSM    H6S10705   5.325   4.343  10.112 -0.9391 -2.7645  1.5880
  105OSM    H6T10706   5.270   4.506  10.169  1.5003 -0.0144 -0.5343
  105OSM    C7S10707   5.109   4.375  10.105  0.5461 -0.5618 -0.7135
  105OSM    H7S10708   5.026   4.402  10.174  2.4020 -1.0285  1.8769
  105OSM    H7T10709   5.106   4.265  10.087 -1.5913 -0.8672  1.1084
  105OSM    C8S10710   5.092   4.448   9.968  0.2755 -0.2043  0.6645
  105OSM    H8S10711   5.135   4.551   9.971 -1.6220  0.7142 -1.2417
  105OSM    H8T10712   4.983   4.452   9.949  0.5648 -1.5695 -1.6557
  105OSM    C9S10713   5.165   4.380   9.851 -0.0949 -0.0022  0.0058
  105OSM    H9S10714   5.126   4.276   9.847  0.4548 -0.3252  1.9945
  105OSM    H9T10715   5.272   4.369   9.877  0.0321  2.8721  1.0462
  105OSM   C10S10716   5.135   4.451   9.716  1.2525 -1.1961 -0.1689
  105OSM   H10S10717   5.190   4.547   9.709  1.3744 -0.9648  2.7282
  105OSM   H10T10718   5.025   4.465   9.712  1.6083  2.6707 -1.2614
  105OSM   C11S10719   5.189   4.366   9.594  0.3454 -0.4256 -0.0394
  105OSM   H11S10720   5.137   4.268   9.597  1.2963 -0.9275  1.5260
  105OSM   H11T10721   5.296   4.338   9.598  0.2488 -0.6846  2.5998
  105OSM   C12S10722   5.166   4.434   9.454 -0.1212  0.3656 -0.3368
  105OSM   H12S10723   5.211   4.535   9.455 -1.2131  0.8753 -0.7627
  105OSM   H12T10724   5.058   4.447   9.431 -0.1683  1.9504  0.6311
  105OSM   C13S10725   5.229   4.345   9.346 -0.5929 -0.0431 -0.0749
  105OSM   H13S10726   5.178   4.249   9.368 -2.1567  1.0543  1.3557
  105OSM   H13T10727   5.335   4.321   9.366 -0.1640  0.5992 -1.3988
  105OSM   C14S10728   5.197   4.400   9.204 -0.2708  0.9732 -0.7317
  105OSM   H14S10729   5.240   4.501   9.188  2.7396  0.2058  1.5097
  105OSM   H14T10730   5.087   4.413   9.191 -0.7516  0.2271  1.8805
  105OSM   C15S10731   5.233   4.294   9.105  0.3812  0.0161 -0.1457
  105OSM   H15S10732   5.180   4.322   9.012  3.1425  1.5584 -1.3753
  105OSM   H15T10733   5.201   4.190   9.128 -1.7679  0.6646  0.0562
  105OSM   C16S10734   5.385   4.305   9.057  0.0682  0.4087 -0.5598
  105OSM   H16S10735   5.438   4.312   9.154 -4.8002 -1.4389  2.6368
  105OSM   H16T10736   5.382   4.397   8.995  2.2671 -0.2597 -1.7674
  105OSM   C17S10737   5.418   4.175   8.976 -0.5920 -0.2384 -0.2080
  105OSM   H17S10738   5.373   4.084   9.022 -0.4879  0.4775  1.3928
  105OSM   H17T10739   5.528   4.158   8.978 -0.3597  1.1760 -0.1841
  105OSM   C18S10740   5.382   4.177   8.828 -0.2677  0.1821 -0.4508
  105OSM   H18S10741   5.398   4.078   8.781  1.7670  0.5210 -0.5603
  105OSM   H18T10742   5.464   4.228   8.772  1.1919 -1.1948  0.3750
  105OSM   H18U10743   5.278   4.212   8.807  0.7193  3.8360 -0.0550
  105OSM    C1F10744   5.616   4.482  10.602 -0.3077  0.0482 -0.5038
  105OSM     OF10745   5.672   4.367  10.592  0.2577 -0.2870  0.2086
  105OSM    C2F10746   5.697   4.603  10.639 -0.0421 -0.9475  0.7295
  105OSM    H2F10747   5.767   4.586  10.723  3.4083  1.7949 -1.3119
  105OSM    H2G10748   5.634   4.689  10.670  1.9539  1.3075 -1.0455
  105OSM    C3F10749   5.781   4.652  10.518  0.0206  0.3599 -0.6790
  105OSM    H3F10750   5.861   4.578  10.495  0.8885  1.3800 -1.0349
  105OSM    H3G10751   5.842   4.741  10.547 -0.0284 -0.5807  2.7255
  105OSM    C4F10752   5.691   4.669  10.395 -0.2912  0.0624 -0.3869
  105OSM    H4F10753   5.614   4.589  10.387 -2.1415  1.8403 -1.0951
  105OSM    H4G10754   5.751   4.656  10.302 -0.6776 -0.7752 -0.5295
  105OSM    C5F10755   5.614   4.803  10.392 -0.2699  0.4069 -0.2640
  105OSM    H5F10756   5.650   4.879  10.465 -1.0162  0.7526 -0.2563
  105OSM    H5G10757   5.505   4.788  10.407 -0.4235  0.2759 -1.4489
  105OSM    C6F10758   5.622   4.880  10.254 -1.0791  0.2761  0.2531
  105OSM    H6F10759   5.534   4.948  10.253 -1.7600 -0.5810 -1.2812
  105OSM    H6G10760   5.614   4.807  10.171 -0.2145  2.8209 -2.1974
  105OSM    C7F10761   5.757   4.957  10.235 -0.2392  0.2360  0.2048
  105OSM    H7F10762   5.845   4.897  10.267 -0.0557  0.0937 -0.5413
  105OSM    H7G10763   5.749   5.041  10.307 -0.5247  1.5730 -1.3521
  105OSM    C8F10764   5.782   4.992  10.090 -0.4015 -0.2370  0.2083
  105OSM    H8F10765   5.811   4.899  10.036 -1.1821 -0.7730  0.6954
  105OSM    H8G10766   5.867   5.063  10.101 -0.7555  0.6632 -2.2258
  105OSM    C9F10767   5.673   5.059  10.015 -0.7805 -0.2777 -0.2957
  105OSM    H9F10768   5.614   5.133  10.072  1.6698  1.1156  0.5814
  105OSM   C10F10769   5.641   5.049   9.884  0.7109 -0.4433 -0.0787
  105OSM   H10F10770   5.554   5.101   9.842  1.9751  2.7603  0.9945
  105OSM   C11F10771   5.706   4.965   9.781  0.3110  0.5456  0.0802
  105OSM   H11F10772   5.649   4.870   9.776 -1.1684  1.4461 -0.7695
  105OSM   H11G10773   5.809   4.936   9.811  0.3541 -1.1372 -1.5565
  105OSM   C12F10774   5.704   5.025   9.635  0.4032 -0.1957  0.1318
  105OSM   H12F10775   5.726   5.134   9.644 -2.0180  0.4525 -1.0083
  105OSM   H12G10776   5.599   5.015   9.600 -0.5051  0.6765  2.4222
  105OSM   C13F10777   5.808   4.965   9.544  0.9453 -0.2331  0.2707
  105OSM   H13F10778   5.788   4.858   9.525 -2.6300  0.0445  1.7142
  105OSM   H13G10779   5.910   4.972   9.588  0.9398 -1.3214  0.4679
  105OSM   C14F10780   5.795   5.024   9.399  0.2660 -0.1823  0.9342
  105OSM   H14F10781   5.856   4.954   9.338 -0.7137 -0.3271  0.0988
  105OSM   H14G10782   5.844   5.123   9.385 -1.0307  0.5617  1.5118
  105OSM   C15F10783   5.653   5.032   9.346 -0.3329  0.3161  0.5545
  105OSM   H15F10784   5.579   5.104   9.387 -0.3933 -0.3541  1.6652
  105OSM   H15G10785   5.615   4.930   9.370 -0.0748 -0.4756 -2.0347
  105OSM   C16F10786   5.649   5.041   9.192  0.2031  0.1374  0.1830
  105OSM   H16F10787   5.719   4.968   9.145 -0.9171 -0.2548 -0.9426
  105OSM   H16G10788   5.673   5.149   9.177  1.0180 -0.1053 -0.3539
  105OSM   C17F10789   5.503   5.033   9.127  0.2098  0.2663  0.5901
  105OSM   H17F10790   5.449   5.119   9.171  0.0633  0.3735  0.2102
  105OSM   H17G10791   5.458   4.937   9.158  2.9460 -0.6043  2.1953
  105OSM   C18F10792   5.510   5.047   8.976  0.2830  0.2653  0.5385
  105OSM   H18F10793   5.549   4.956   8.926  1.4767 -0.9166  3.3931
  105OSM   H18G10794   5.574   5.130   8.939  0.1344  0.3716  0.5192
  105OSM   H18H10795   5.408   5.065   8.938  0.8588  1.3047 -0.5824
  106OSM      N10796   6.108   3.218  10.794  0.0020 -0.9761  0.3014
  106OSM    C1510797   6.069   3.154  10.668  0.8461  0.1066 -0.1628
  106OSM   H15A10798   6.149   3.091  10.633  0.7161 -0.2353  0.1538
  106OSM   H15B10799   6.050   3.218  10.583  0.7645 -2.1081 -1.8785
  106OSM   H15C10800   5.987   3.085  10.680  1.9255 -1.0829  0.6613
  106OSM    C1410801   5.992   3.298  10.834 -0.5025  0.0996 -0.1367
  106OSM   H14A10802   5.995   3.330  10.937 -4.4538  3.3250 -0.7549
  106OSM   H14B10803   5.898   3.247  10.820 -1.6247  2.6093 -2.7745
  106OSM   H14C10804   5.974   3.389  10.778  0.5586  0.1491 -0.4195
  106OSM    C1310805   6.121   3.121  10.891  0.7690 -0.2023 -0.7024
  106OSM   H13A10806   6.043   3.046  10.894 -0.1817  0.7428 -0.7924
  106OSM   H13B10807   6.125   3.165  10.990 -1.3834 -0.2601 -0.5236
  106OSM   H13C10808   6.212   3.065  10.885  0.0868 -1.3021 -1.1673
  106OSM    C1210809   6.237   3.308  10.783  0.4634  0.2657  0.1761
  106OSM   H12A10810   6.258   3.334  10.885  0.2315 -0.2414  0.3573
  106OSM   H12B10811   6.226   3.406  10.740  2.2354  0.7805  0.8460
  106OSM    C1110812   6.352   3.243  10.695  0.2635 -0.2236 -0.1495
  106OSM   H11A10813   6.431   3.321  10.698 -0.2070  0.2722  2.4867
  106OSM   H11B10814   6.324   3.243  10.588  2.7589 -0.1835 -0.8466
  106OSM      P10815   6.491   3.094  10.856  0.2145 -0.0255 -0.2881
  106OSM    O1310816   6.459   3.179  10.970  0.4265 -0.0186  0.1935
  106OSM    O1410817   6.514   2.945  10.871  0.3215  0.1337  0.6883
  106OSM    O1110818   6.624   3.151  10.787  0.4520  0.5778  0.1649
  106OSM    O1210819   6.386   3.113  10.740 -0.0774 -0.6809 -0.1980
  106OSM    C1S10820   6.678   3.089  10.670 -0.0456 -0.6641  0.1460
  106OSM    H1S10821   6.605   3.026  10.614  1.0143 -0.0986 -1.9746
  106OSM    H1T10822   6.761   3.024  10.707  1.4014  1.0162 -0.0255
  106OSM     NF10823   6.788   3.133  10.456 -0.0234 -0.1583 -0.5479
  106OSM    HNF10824   6.887   3.119  10.453  0.3644  2.1481 -3.6473
  106OSM    C2S10825   6.738   3.194  10.576 -0.8841 -0.1248 -0.4169
  106OSM    H2S10826   6.657   3.261  10.539 -1.0379  0.0782  0.2764
  106OSM    C3S10827   6.846   3.272  10.654 -0.3971  0.3450 -0.9578
  106OSM    H3S10828   6.935   3.207  10.670 -2.0439 -1.7004  0.4839
  106OSM     O310829   6.825   3.316  10.788 -0.0869 -0.4667  0.0617
  106OSM    HO310830   6.735   3.286  10.805 -0.5482  0.9918  0.3433
  106OSM    C4S10831   6.881   3.394  10.571 -0.6415  0.4799  0.0521
  106OSM    H4S10832   6.796   3.463  10.555 -1.7539 -0.4063  1.8775
  106OSM    C5S10833   6.999   3.429  10.524  0.7793  0.3290 -0.1944
  106OSM    H5S10834   7.087   3.369  10.550  1.2744  0.6233 -1.1613
  106OSM    C6S10835   7.038   3.553  10.449  0.7537  0.5421  0.0731
  106OSM    H6S10836   7.097   3.617  10.518  1.3175  0.1728 -0.0654
  106OSM    H6T10837   6.942   3.600  10.417 -0.6803 -1.3998  1.3061
  106OSM    C7S10838   7.108   3.513  10.319 -0.1946  0.6648 -0.0661
  106OSM    H7S10839   7.033   3.451  10.266  0.5866 -1.0797  0.7785
  106OSM    H7T10840   7.197   3.452  10.345  1.3495  2.5555 -0.7232
  106OSM    C8S10841   7.143   3.631  10.230 -0.8561 -0.2344  0.3997
  106OSM    H8S10842   7.218   3.695  10.282 -0.2035 -0.5235 -0.1617
  106OSM    H8T10843   7.047   3.687  10.229 -1.9496 -2.0297  0.5567
  106OSM    C9S10844   7.197   3.604  10.087  0.9189 -0.5701 -0.5050
  106OSM    H9S10845   7.241   3.502  10.086  1.4160 -0.3874  0.6425
  106OSM    H9T10846   7.265   3.682  10.046 -1.0509  0.9362 -1.0360
  106OSM   C10S10847   7.083   3.600   9.981  0.0612 -0.6520 -0.2198
  106OSM   H10S10848   7.027   3.695   9.990  1.7279  0.7169 -2.9198
  106OSM   H10T10849   7.019   3.514  10.010  0.5223 -1.3961 -1.3374
  106OSM   C11S10850   7.137   3.572   9.837 -0.0436 -0.1845 -0.4245
  106OSM   H11S10851   7.215   3.493   9.840 -0.3066 -0.4267  1.3487
  106OSM   H11T10852   7.184   3.668   9.808 -0.1555  0.3594  1.1229
  106OSM   C12S10853   7.026   3.518   9.749  0.2350 -0.1525 -0.3235
  106OSM   H12S10854   6.928   3.570   9.749  0.6801  0.6890 -0.2744
  106OSM   H12T10855   7.005   3.416   9.788  1.5528 -0.3855 -0.1744
  106OSM   C13S10856   7.065   3.517   9.600  0.5174 -0.0380  0.6036
  106OSM   H13S10857   7.011   3.434   9.550  0.5655  0.6138 -0.5684
  106OSM   H13T10858   7.167   3.479   9.583  1.0462  1.2432  0.7688
  106OSM   C14S10859   7.048   3.650   9.521  0.2598  0.3262 -0.7969
  106OSM   H14S10860   7.114   3.728   9.565 -1.0003 -0.2415  2.3152
  106OSM   H14T10861   6.942   3.673   9.544  0.6586  0.2658  1.2944
  106OSM   C15S10862   7.071   3.630   9.378  0.4922  0.7266  0.0156
  106OSM   H15S10863   7.023   3.542   9.330  0.2093  1.2986 -0.7799
  106OSM   H15T10864   7.181   3.615   9.368  0.6291  0.1581  1.9570
  106OSM   C16S10865   7.028   3.749   9.285 -0.4980 -0.1350 -0.1418
  106OSM   H16S10866   6.920   3.769   9.301 -0.2194  1.4777 -0.0840
  106OSM   H16T10867   7.041   3.711   9.181  0.8675 -0.9963  0.3128
  106OSM   C17S10868   7.114   3.871   9.291 -0.0341 -0.1391  0.7723
  106OSM   H17S10869   7.120   3.919   9.391  0.7086 -1.3693  1.3380
  106OSM   H17T10870   7.075   3.951   9.224 -1.5073 -1.0062  0.5438
  106OSM   C18S10871   7.263   3.843   9.262 -0.0506 -0.5077  0.6322
  106OSM   H18S10872   7.308   3.761   9.322  0.5766 -0.2363  0.5460
  106OSM   H18T10873   7.337   3.925   9.274 -0.9942  0.1951  1.9178
  106OSM   H18U10874   7.278   3.799   9.161  1.8364  1.2280  0.0963
  106OSM    C1F10875   6.704   3.089  10.361  0.0211  0.1397 -0.3335
  106OSM     OF10876   6.585   3.081  10.384 -0.2882  0.2906 -0.2904
  106OSM    C2F10877   6.761   3.036  10.236 -0.5878  1.6435  0.5209
  106OSM    H2F10878   6.834   2.953  10.252 -2.6825 -0.4562 -0.2280
  106OSM    H2G10879   6.818   3.116  10.183  2.7313 -0.7637  0.1063
  106OSM    C3F10880   6.645   2.979  10.141  0.5864  0.8752 -0.8745
  106OSM    H3F10881   6.563   3.054  10.149  0.9059  1.1012  0.6322
  106OSM    H3G10882   6.607   2.885  10.186  1.5034  1.3342  0.9395
  106OSM    C4F10883   6.690   2.943  10.004  0.3078  0.6594  0.0069
  106OSM    H4F10884   6.602   2.901   9.951 -0.2691  0.7671  0.8566
  106OSM    H4G10885   6.782   2.882  10.017 -0.1824 -0.6193 -2.1475
  106OSM    C5F10886   6.737   3.063   9.921 -0.1484  0.0428 -1.1589
  106OSM    H5F10887   6.843   3.087   9.945 -0.5373 -1.1283  2.4226
  106OSM    H5G10888   6.674   3.149   9.952 -0.5965 -1.3570  2.3606
  106OSM    C6F10889   6.717   3.031   9.772 -0.2994 -0.1836  0.4450
  106OSM    H6F10890   6.611   3.017   9.741  0.3528  1.6234 -3.1563
  106OSM    H6G10891   6.782   2.946   9.741 -0.2711  0.1352 -0.3935
  106OSM    C7F10892   6.756   3.156   9.685  0.2565 -0.4446  0.2485
  106OSM    H7F10893   6.854   3.184   9.729 -0.2927  0.2198  1.0834
  106OSM    H7G10894   6.703   3.251   9.710  0.3850 -0.0532 -0.8957
  106OSM    C8F10895   6.747   3.124   9.537  0.2480 -0.2220 -0.5752
  106OSM    H8F10896   6.641   3.128   9.503 -0.3745  0.0499  1.2708
  106OSM    H8G10897   6.772   3.017   9.528  1.6636  0.0386  0.0840
  106OSM    C9F10898   6.849   3.198   9.453  0.1667 -0.3762 -0.9603
  106OSM    H9F10899   6.944   3.219   9.505 -0.8303  0.3892  0.6537
  106OSM   C10F10900   6.821   3.237   9.323  0.0970 -0.5774  0.0426
  106OSM   H10F10901   6.889   3.310   9.277 -0.1137  0.3245  1.1127
  106OSM   C11F10902   6.696   3.211   9.246 -0.0127 -0.3006 -1.0316
  106OSM   H11F10903   6.617   3.279   9.285  0.1255 -0.2821 -0.7838
  106OSM   H11G10904   6.658   3.111   9.277 -2.1549  0.0513 -2.3063
  106OSM   C12F10905   6.697   3.214   9.100  1.0578 -0.2970  0.0251
  106OSM   H12F10906   6.592   3.203   9.066  0.2629  5.4923 -0.3803
  106OSM   H12G10907   6.756   3.129   9.058  2.7864  0.0944  1.5360
  106OSM   C13F10908   6.745   3.347   9.043  0.3798 -0.2096 -0.0510
  106OSM   H13F10909   6.734   3.339   8.933 -1.8040 -0.1853  0.1332
  106OSM   H13G10910   6.853   3.372   9.056  0.5806 -0.7724 -0.5926
  106OSM   C14F10911   6.675   3.474   9.086 -0.2228  0.6191 -0.2362
  106OSM   H14F10912   6.705   3.559   9.021 -1.3363  0.9192 -0.3622
  106OSM   H14G10913   6.703   3.500   9.191  0.0239  2.1034 -0.6469
  106OSM   C15F10914   6.523   3.473   9.065  0.3121  0.7308  0.5315
  106OSM   H15F10915   6.484   3.564   9.114 -0.0550  2.2483 -2.3965
  106OSM   H15G10916   6.487   3.379   9.113 -1.1209  1.0245  0.0771
  106OSM   C16F10917   6.477   3.468   8.915  0.0869 -0.1172  0.4236
  106OSM   H16F10918   6.525   3.387   8.857  1.1336  1.3850 -0.9114
  106OSM   H16G10919   6.496   3.563   8.860 -1.2258  0.8481  1.5569
  106OSM   C17F10920   6.322   3.456   8.912 -0.2602 -0.0134 -0.3812
  106OSM   H17F10921   6.285   3.526   8.990 -0.2483 -0.0112 -0.3768
  106OSM   H17G10922   6.294   3.356   8.952 -1.3959 -0.1049 -1.3395
  106OSM   C18F10923   6.261   3.487   8.779  0.3366  0.1569 -0.1317
  106OSM   H18F10924   6.297   3.578   8.727  0.7232  0.5675  0.8238
  106OSM   H18G10925   6.152   3.491   8.799  0.4040 -0.5136  0.4170
  106OSM   H18H10926   6.292   3.405   8.710  0.8781  0.6514 -0.4916
  107OSM      N10927   0.224   6.567  10.897  0.2284  0.7268  0.0494
  107OSM    C1510928   0.190   6.711  10.881 -0.8204  0.1917  0.6393
  107OSM   H15A10929   0.257   6.766  10.816  0.1810 -1.1730  0.4670
  107OSM   H15B10930   0.168   6.760  10.974  1.3238 -2.1143  2.5141
  107OSM   H15C10931   0.096   6.721  10.829 -0.2084  0.6893 -0.4152
  107OSM    C1410932   0.192   6.504  10.768  0.0345 -0.3130 -0.3558
  107OSM   H14A10933   0.201   6.397  10.785  1.7817  0.2286  2.8756
  107OSM   H14B10934   0.267   6.533  10.696 -0.5818  0.2076 -0.7925
  107OSM   H14C10935   0.092   6.528  10.737 -0.0858 -2.4805 -1.9568
  107OSM    C1310936   0.361   6.540  10.946 -0.1045 -0.3456  0.2277
  107OSM   H13A10937   0.376   6.434  10.959 -0.4887 -0.3850  0.3595
  107OSM   H13B10938   0.384   6.595  11.036 -1.7487 -0.7341  0.9343
  107OSM   H13C10939   0.431   6.566  10.868  0.0348  0.4130  0.6018
  107OSM    C1210940   0.120   6.513  10.999  0.3836  0.1765  0.0303
  107OSM   H12A10941   0.024   6.513  10.951  0.6523 -3.0274 -0.6970
  107OSM   H12B10942   0.134   6.579  11.084  3.0996 -1.2738  0.8584
  107OSM    C1110943   0.136   6.366  11.037  0.5294  0.1677  0.7434
  107OSM   H11A10944   0.062   6.350  11.119 -1.3056  0.0203 -0.8881
  107OSM   H11B10945   0.240   6.348  11.073  0.7318 -0.5858 -0.2039
  107OSM      P10946   0.139   6.140  10.924  0.0921  0.2300  0.0094
  107OSM    O1310947   0.275   6.116  10.985 -0.1725 -0.0899 -0.5055
  107OSM    O1410948   0.028   6.058  10.975 -0.3724 -0.3431 -0.2533
  107OSM    O1110949   0.150   6.113  10.771  0.0680 -0.1640  0.0943
  107OSM    O1210950   0.097   6.292  10.920 -0.4821 -0.1824  0.0923
  107OSM    C1S10951   0.280   6.140  10.698  0.2531  0.8101  0.6656
  107OSM    H1S10952   0.348   6.062  10.738  0.5562  0.6359 -0.1745
  107OSM    H1T10953   0.329   6.236  10.725  2.7042  0.3989 -1.8881
  107OSM     NF10954   0.372   6.144  10.463 -0.4207  0.3148 -0.1129
  107OSM    HNF10955   0.397   6.232  10.424 -0.5962  0.0892 -0.7397
  107OSM    C2S10956   0.255   6.127  10.544  0.9142 -0.2842  0.5150
  107OSM    H2S10957   0.217   6.028  10.510  0.9579  0.3991 -1.6788
  107OSM    C3S10958   0.142   6.244  10.502 -0.1999  0.2071  0.1026
  107OSM    H3S10959   0.198   6.340  10.498 -1.8592  1.2123 -0.1200
  107OSM     O310960   0.036   6.268  10.592 -0.3685 -0.6466 -0.4229
  107OSM    HO310961   0.058   6.218  10.671 -0.3552  2.0196  1.4140
  107OSM    C4S10962   0.090   6.204  10.364 -0.2657 -0.2332  0.0267
  107OSM    H4S10963   0.014   6.125  10.372 -2.6820  2.0137  0.8224
  107OSM    C5S10964   0.124   6.260  10.245  0.0107  0.1818  0.3268
  107OSM    H5S10965   0.191   6.347  10.250 -1.5844  1.4835  0.2830
  107OSM    C6S10966   0.081   6.213  10.106 -0.4412  0.3408  0.7099
  107OSM    H6S10967   0.039   6.112  10.125  0.8060 -0.1930  0.7657
  107OSM    H6T10968   0.169   6.207  10.038 -2.0285 -0.4351 -1.3720
  107OSM    C7S10969  -0.018   6.302  10.023 -0.0112  0.1256 -0.3994
  107OSM    H7S10970  -0.092   6.344  10.094  0.9548 -1.4995  1.6697
  107OSM    H7T10971  -0.068   6.252   9.937  1.4218  0.9033 -1.7514
  107OSM    C8S10972   0.046   6.429   9.959 -0.6199 -0.0126  0.2935
  107OSM    H8S10973   0.106   6.484  10.035 -1.2631 -0.4930  1.1720
  107OSM    H8T10974  -0.032   6.508   9.949  2.4933  3.4119  0.7562
  107OSM    C9S10975   0.134   6.425   9.830  0.1406  0.1805 -0.2618
  107OSM    H9S10976   0.231   6.386   9.867 -0.2337  1.2214  1.9928
  107OSM    H9T10977   0.145   6.530   9.797  2.0058 -0.0706 -0.5105
  107OSM   C10S10978   0.076   6.348   9.712  0.6347 -0.6321  0.1170
  107OSM   H10S10979  -0.024   6.389   9.688  0.3663 -1.6257 -0.5819
  107OSM   H10T10980   0.056   6.244   9.746  0.8670 -0.3256  1.2236
  107OSM   C11S10981   0.167   6.334   9.579 -0.4882 -0.2716 -0.6867
  107OSM   H11S10982   0.248   6.263   9.605  0.4540  1.2806  0.8932
  107OSM   H11T10983   0.217   6.431   9.556  0.2132 -1.4111 -4.7232
  107OSM   C12S10984   0.085   6.286   9.462  0.9060 -0.0085 -0.0693
  107OSM   H12S10985   0.002   6.359   9.456  1.0538  0.6812  3.6984
  107OSM   H12T10986   0.036   6.190   9.488 -0.6216  0.4987 -0.9418
  107OSM   C13S10987   0.177   6.264   9.342  0.2604  0.4176  0.1302
  107OSM   H13S10988   0.272   6.216   9.373  1.3707  2.0627 -0.5820
  107OSM   H13T10989   0.212   6.364   9.307  2.6499  0.3193  1.9936
  107OSM   C14S10990   0.110   6.196   9.222  0.0020 -0.4396 -0.7553
  107OSM   H14S10991   0.014   6.248   9.199 -1.8699 -1.4928  3.6352
  107OSM   H14T10992   0.097   6.089   9.250  1.3211 -0.1477  1.1479
  107OSM   C15S10993   0.187   6.213   9.099 -0.3769  0.2968  0.2414
  107OSM   H15S10994   0.295   6.192   9.116  0.2141  2.2313 -0.8020
  107OSM   H15T10995   0.189   6.320   9.070  0.5383  1.1283  3.0649
  107OSM   C16S10996   0.147   6.124   8.977 -0.0069 -0.1946 -0.4487
  107OSM   H16S10997   0.036   6.119   8.972  0.0589 -0.7661 -3.6858
  107OSM   H16T10998   0.186   6.022   8.994 -0.1575  0.3307  4.4504
  107OSM   C17S10999   0.185   6.191   8.843  0.1253  0.4556  0.7068
  107OSM   H17S11000   0.123   6.283   8.844 -1.4918 -0.5640  2.8278
  107OSM   H17T11001   0.150   6.126   8.760 -1.8853  0.5236  1.4473
  107OSM   C18S11002   0.336   6.221   8.817  0.2149  0.2954 -0.0246
  107OSM   H18S11003   0.389   6.127   8.792  0.9634  0.5683  0.4768
  107OSM   H18T11004   0.396   6.265   8.900  1.5492  0.1256 -0.8548
  107OSM   H18U11005   0.343   6.294   8.734 -0.6237  0.9449  0.4585
  107OSM    C1F11006   0.464   6.047  10.458  0.1001  0.2613  0.0734
  107OSM     OF11007   0.427   5.938  10.503  0.1819 -0.6877 -0.4893
  107OSM    C2F11008   0.599   6.071  10.407 -0.1495  0.5334  0.4668
  107OSM    H2F11009   0.657   6.145  10.467 -0.1254 -0.6451  1.9768
  107OSM    H2G11010   0.586   6.124  10.310  1.8711  2.3632  1.0931
  107OSM    C3F11011   0.681   5.942  10.370 -0.0453 -0.2984 -0.0904
  107OSM    H3F11012   0.622   5.879  10.299 -2.0558 -0.7055  1.8086
  107OSM    H3G11013   0.710   5.873  10.452 -1.4946  0.0564  0.7541
  107OSM    C4F11014   0.819   5.982  10.308  0.0649 -0.0479 -0.1123
  107OSM    H4F11015   0.890   6.017  10.386 -1.8730  2.1506  0.7574
  107OSM    H4G11016   0.813   6.065  10.234  1.7414  0.4874  0.3149
  107OSM    C5F11017   0.880   5.857  10.244  0.7764 -0.0682  0.1296
  107OSM    H5F11018   0.827   5.822  10.153  1.9202  0.4599 -0.7765
  107OSM    H5G11019   0.875   5.772  10.315 -1.0401  0.6402  0.9222
  107OSM    C6F11020   1.032   5.877  10.213  0.2214 -0.5044  0.5787
  107OSM    H6F11021   1.077   5.914  10.308 -0.6663 -1.1811  1.2766
  107OSM    H6G11022   1.041   5.946  10.127 -0.2727 -2.1304 -0.8190
  107OSM    C7F11023   1.094   5.750  10.160 -0.3931  0.5847 -0.2065
  107OSM    H7F11024   1.021   5.707  10.089 -1.6001  0.4124  1.0902
  107OSM    H7G11025   1.091   5.679  10.246  2.2755 -0.5384 -0.9256
  107OSM    C8F11026   1.239   5.768  10.113 -1.1153 -0.3558  0.0590
  107OSM    H8F11027   1.249   5.835  10.024 -1.3469 -0.4777 -0.0595
  107OSM    H8G11028   1.266   5.663  10.088 -1.2202  0.0281 -1.8319
  107OSM    C9F11029   1.322   5.828  10.225  0.0559  0.0420  0.3021
  107OSM    H9F11030   1.280   5.825  10.326  1.1358  1.4189  0.8198
  107OSM   C10F11031   1.452   5.872  10.210  0.4943  0.4354  0.9608
  107OSM   H10F11032   1.508   5.898  10.301 -1.5704  0.9363  2.1476
  107OSM   C11F11033   1.525   5.876  10.079  0.6115  0.9552 -0.7416
  107OSM   H11F11034   1.583   5.971  10.081  0.0933  1.2715 -0.4980
  107OSM   H11G11035   1.453   5.880   9.994 -0.2684  2.3037  0.0476
  107OSM   C12F11036   1.621   5.755  10.043 -0.1030  0.2472 -0.7280
  107OSM   H12F11037   1.589   5.664  10.097 -1.3548  1.8598  1.4229
  107OSM   H12G11038   1.715   5.782  10.097 -1.2363  1.1064  0.9003
  107OSM   C13F11039   1.652   5.738   9.896  0.3979 -0.0135 -0.4285
  107OSM   H13F11040   1.753   5.694   9.882 -0.0982 -0.8091 -1.7173
  107OSM   H13G11041   1.656   5.840   9.851  1.8965 -0.6775 -1.9108
  107OSM   C14F11042   1.551   5.652   9.818 -0.5146  0.7972  0.0907
  107OSM   H14F11043   1.449   5.696   9.809 -1.0146 -0.0064  1.5785
  107OSM   H14G11044   1.536   5.553   9.865 -3.0238  0.7871 -0.5590
  107OSM   C15F11045   1.596   5.631   9.675  0.0932  0.5367  0.0617
  107OSM   H15F11046   1.520   5.573   9.617 -0.8008  0.8282  0.9126
  107OSM   H15G11047   1.687   5.567   9.678 -0.2515  0.0600  0.8109
  107OSM   C16F11048   1.618   5.761   9.595 -0.1637  1.3607  0.2147
  107OSM   H16F11049   1.703   5.811   9.645  0.6431  1.3854 -1.1253
  107OSM   H16G11050   1.525   5.821   9.591 -3.3084 -3.0169 -0.0801
  107OSM   C17F11051   1.664   5.726   9.454  0.7356 -0.1186  0.7682
  107OSM   H17F11052   1.596   5.650   9.411  1.0862 -0.3020  0.5255
  107OSM   H17G11053   1.764   5.678   9.462  0.6509 -0.4489 -0.0240
  107OSM   C18F11054   1.665   5.832   9.343 -0.1462 -0.1111  0.2296
  107OSM   H18F11055   1.755   5.895   9.360 -0.3774 -0.2435  2.1870
  107OSM   H18G11056   1.574   5.897   9.347  1.3253  2.2291 -1.4069
  107OSM   H18H11057   1.672   5.794   9.239  0.3213  1.6257 -0.4153
  108OSM      N11058   3.714   3.642  11.222  0.3972  0.0599  0.7420
  108OSM    C1511059   3.804   3.698  11.324 -0.3851 -0.2288  0.5680
  108OSM   H15A11060   3.811   3.805  11.317  0.9239 -0.3837 -1.5332
  108OSM   H15B11061   3.901   3.657  11.298 -0.5007  0.9344 -1.9916
  108OSM   H15C11062   3.772   3.666  11.422  0.5148 -2.8378  0.1088
  108OSM    C1411063   3.710   3.498  11.241  0.2284  0.0393 -0.2104
  108OSM   H14A11064   3.658   3.463  11.328  0.8491 -2.4049 -0.7271
  108OSM   H14B11065   3.809   3.457  11.259  0.2530 -1.3182 -2.8481
  108OSM   H14C11066   3.666   3.445  11.157 -0.5195 -1.2087  0.9346
  108OSM    C1311067   3.578   3.700  11.255  0.4824  0.1454  0.0864
  108OSM   H13A11068   3.489   3.664  11.204  0.0889 -1.0085  1.5086
  108OSM   H13B11069   3.569   3.807  11.250  1.4902  0.3113  1.2779
  108OSM   H13C11070   3.550   3.689  11.359  0.9599 -0.4540  0.1569
  108OSM    C1211071   3.750   3.684  11.080  0.1393 -0.0687 -0.6890
  108OSM   H12A11072   3.753   3.792  11.076 -0.4416 -0.0586 -0.8957
  108OSM   H12B11073   3.679   3.656  11.004 -2.0612 -2.2925  1.9756
  108OSM    C1111074   3.885   3.624  11.024 -0.0804  0.0580 -0.3224
  108OSM   H11A11075   3.886   3.623  10.913 -0.2516 -1.7425 -0.3303
  108OSM   H11B11076   3.897   3.520  11.062  0.0507 -0.3138 -1.3517
  108OSM      P11077   4.009   3.851  11.008 -0.0793  0.0661 -0.2737
  108OSM    O1311078   3.913   3.939  11.075 -0.8767  0.6225 -0.1147
  108OSM    O1411079   4.152   3.895  11.020  0.6962 -0.1068 -0.7453
  108OSM    O1111080   3.972   3.838  10.855  0.1060 -0.0137  0.1176
  108OSM    O1211081   4.000   3.700  11.069  0.6969  0.4651  0.0267
  108OSM    C1S11082   4.069   3.843  10.756  0.5216 -0.6392  0.6836
  108OSM    H1S11083   4.130   3.750  10.756 -1.7316 -2.2081  1.2011
  108OSM    H1T11084   4.135   3.932  10.767  1.3087 -0.9340 -1.3764
  108OSM     NF11085   4.100   3.838  10.506 -0.0385 -0.6787 -0.2459
  108OSM    HNF11086   4.113   3.918  10.448 -1.4742 -1.1719 -1.2874
  108OSM    C2S11087   3.998   3.851  10.614 -0.4194 -0.0089 -0.4946
  108OSM    H2S11088   3.929   3.764  10.617 -0.4549  0.0229 -0.4164
  108OSM    C3S11089   3.910   3.984  10.605  0.3633 -0.6158 -0.4270
  108OSM    H3S11090   3.985   4.066  10.608  0.5834 -0.7860 -1.1794
  108OSM     O311091   3.819   4.017  10.713 -0.1776  0.5718  0.1298
  108OSM    HO311092   3.839   3.958  10.785  1.4700  2.6090  1.4355
  108OSM    C4S11093   3.830   3.982  10.476 -0.0050  0.1961 -0.0211
  108OSM    H4S11094   3.876   4.049  10.402  0.3363 -0.2239 -0.1930
  108OSM    C5S11095   3.727   3.910  10.456  0.2710 -0.3576 -0.0855
  108OSM    H5S11096   3.683   3.849  10.536  0.2288 -2.8995 -1.9294
  108OSM    C6S11097   3.645   3.909  10.327 -0.7038 -0.0192  0.0827
  108OSM    H6S11098   3.679   3.981  10.250 -0.4556  0.2274  0.4182
  108OSM    H6T11099   3.541   3.936  10.356 -0.5881 -0.1752  0.6586
  108OSM    C7S11100   3.644   3.766  10.273 -0.2082  0.2995  0.3452
  108OSM    H7S11101   3.608   3.699  10.354  1.5568  0.3097  1.1935
  108OSM    H7T11102   3.748   3.734  10.250 -0.0981  1.8565 -1.5468
  108OSM    C8S11103   3.562   3.733  10.151 -0.2064  0.0423 -0.5776
  108OSM    H8S11104   3.456   3.745  10.180  0.0424  3.0976 -0.6088
  108OSM    H8T11105   3.567   3.625  10.124 -0.1232 -0.0552 -0.1810
  108OSM    C9S11106   3.598   3.815  10.027  0.1538  0.1765 -0.1122
  108OSM    H9S11107   3.706   3.810  10.002  0.1804 -0.8260  0.1388
  108OSM    H9T11108   3.574   3.923  10.037  1.1957  0.3395  0.7932
  108OSM   C10S11109   3.532   3.747   9.908 -0.4059  0.5167 -0.4370
  108OSM   H10S11110   3.425   3.773   9.890 -0.4956 -1.1480 -2.8219
  108OSM   H10T11111   3.544   3.638   9.922  2.1431  0.6844 -0.8634
  108OSM   C11S11112   3.619   3.769   9.774  0.1405 -0.1083  0.8098
  108OSM   H11S11113   3.700   3.693   9.780  1.6112  1.3617  0.1979
  108OSM   H11T11114   3.662   3.871   9.775  0.3492 -0.1530 -0.9352
  108OSM   C12S11115   3.528   3.747   9.647  0.2107  0.3046  0.5833
  108OSM   H12S11116   3.463   3.836   9.634 -0.3933 -0.2521 -0.3940
  108OSM   H12T11117   3.467   3.655   9.663  0.6946  0.0838  1.2007
  108OSM   C13S11118   3.594   3.751   9.506 -0.6602  0.7983 -0.1815
  108OSM   H13S11119   3.701   3.723   9.510 -1.1066 -1.2120 -1.2330
  108OSM   H13T11120   3.595   3.860   9.482 -2.4880  0.5125 -1.7908
  108OSM   C14S11121   3.528   3.664   9.402 -0.1556  0.6853 -0.2625
  108OSM   H14S11122   3.417   3.673   9.408  0.0634  3.1693  1.7813
  108OSM   H14T11123   3.556   3.562   9.436 -0.8029  0.3359 -0.7479
  108OSM   C15S11124   3.556   3.694   9.247 -0.2489  0.0076  0.0111
  108OSM   H15S11125   3.667   3.696   9.245 -0.1874 -0.0842  1.7691
  108OSM   H15T11126   3.531   3.802   9.235  1.9396  0.7780  1.5654
  108OSM   C16S11127   3.506   3.599   9.140  1.2714 -0.2401  0.5658
  108OSM   H16S11128   3.398   3.583   9.162  1.4349 -0.7284  1.0374
  108OSM   H16T11129   3.557   3.501   9.150 -1.6754 -1.7383  2.5038
  108OSM   C17S11130   3.515   3.650   8.992 -0.2174 -0.1119 -0.5067
  108OSM   H17S11131   3.621   3.653   8.960  0.4486  0.3396  1.5769
  108OSM   H17T11132   3.474   3.753   8.985  0.7940  0.2314 -1.8817
  108OSM   C18S11133   3.440   3.562   8.892 -0.2585  0.4732  0.1816
  108OSM   H18S11134   3.482   3.459   8.895 -1.0490  0.1532  0.6094
  108OSM   H18T11135   3.461   3.594   8.788 -1.0102  0.7437  0.1068
  108OSM   H18U11136   3.330   3.562   8.907 -0.3008  1.9772 -0.0383
  108OSM    C1F11137   4.179   3.733  10.478  0.2191 -1.3510 -1.3169
  108OSM     OF11138   4.195   3.637  10.556  0.2509  0.2048  0.3427
  108OSM    C2F11139   4.275   3.753  10.364 -0.1705 -0.0533 -0.1234
  108OSM    H2F11140   4.380   3.748  10.399 -1.0040  2.4027  3.2320
  108OSM    H2G11141   4.259   3.854  10.322 -1.4461  0.2263  0.9527
  108OSM    C3F11142   4.263   3.629  10.268 -0.1323 -0.5274 -0.8650
  108OSM    H3F11143   4.160   3.608  10.232 -0.0583 -0.6586 -1.0050
  108OSM    H3G11144   4.282   3.539  10.331 -0.8571  2.1604  3.5468
  108OSM    C4F11145   4.360   3.638  10.152 -0.8457 -0.3741  0.1194
  108OSM    H4F11146   4.341   3.551  10.086  0.6389 -2.1011  1.8675
  108OSM    H4G11147   4.469   3.638  10.175 -1.0149  2.4113  1.3541
  108OSM    C5F11148   4.334   3.761  10.062  0.4273 -0.2926  0.4230
  108OSM    H5F11149   4.367   3.852  10.117 -0.9514 -0.2449  1.2078
  108OSM    H5G11150   4.227   3.777  10.035  1.3159  1.1068 -2.7699
  108OSM    C6F11151   4.416   3.761   9.928  0.0627  0.0397 -0.8193
  108OSM    H6F11152   4.394   3.655   9.900 -0.5366 -1.3208  3.7990
  108OSM    H6G11153   4.525   3.774   9.944 -0.0079  1.4602 -1.4105
  108OSM    C7F11154   4.369   3.845   9.808 -0.4333  0.6185  0.1344
  108OSM    H7F11155   4.377   3.952   9.840  0.4556 -0.1092  2.5431
  108OSM    H7G11156   4.261   3.821   9.796 -0.2383  0.2865 -1.1417
  108OSM    C8F11157   4.452   3.829   9.678  0.1185 -0.2129 -0.0617
  108OSM    H8F11158   4.557   3.827   9.715  0.1333 -1.1736 -0.1275
  108OSM    H8G11159   4.437   3.924   9.621 -0.4172 -0.7295 -0.7976
  108OSM    C9F11160   4.417   3.702   9.603 -0.4944 -0.2480  0.1787
  108OSM    H9F11161   4.470   3.621   9.655  0.0690 -0.3168 -0.4912
  108OSM   C10F11162   4.346   3.691   9.488 -0.4503 -0.0828 -0.0932
  108OSM   H10F11163   4.332   3.591   9.444 -2.1921 -0.4058  1.0981
  108OSM   C11F11164   4.277   3.805   9.408  0.0366  0.0492  0.4749
  108OSM   H11F11165   4.307   3.905   9.447  1.0888 -0.2159  0.3903
  108OSM   H11G11166   4.168   3.791   9.422  0.2176 -3.0858 -0.5206
  108OSM   C12F11167   4.297   3.799   9.261 -0.7114 -0.0125 -0.3468
  108OSM   H12F11168   4.407   3.795   9.245 -0.5126  0.4271  0.8127
  108OSM   H12G11169   4.274   3.891   9.204  0.5580 -1.0189 -2.6086
  108OSM   C13F11170   4.236   3.694   9.173  0.1182  0.0420  0.1417
  108OSM   H13F11171   4.125   3.691   9.181 -0.0571  1.7592 -1.0949
  108OSM   H13G11172   4.260   3.594   9.214  0.0627 -0.6915 -1.5139
  108OSM   C14F11173   4.281   3.700   9.026  0.5409 -0.8616  0.4987
  108OSM   H14F11174   4.230   3.789   8.985 -1.3857 -0.1839  3.9650
  108OSM   H14G11175   4.246   3.605   8.980  0.1036  0.9341 -3.2638
  108OSM   C15F11176   4.432   3.717   9.003 -0.2818  0.5714 -0.2048
  108OSM   H15F11177   4.480   3.651   9.079  0.9011  3.0670  1.3548
  108OSM   H15G11178   4.470   3.820   9.018  0.2224  0.2341  0.9171
  108OSM   C16F11179   4.476   3.677   8.863 -0.8986  0.2774  0.3824
  108OSM   H16F11180   4.399   3.625   8.803  0.9709 -1.7924 -0.3550
  108OSM   H16G11181   4.564   3.608   8.866  0.1659  1.5974  0.8188
  108OSM   C17F11182   4.525   3.800   8.794 -0.1760  0.7256 -0.3258
  108OSM   H17F11183   4.600   3.859   8.851  2.1040 -1.4804 -0.8519
  108OSM   H17G11184   4.439   3.865   8.768 -0.6078 -0.0481 -0.8644
  108OSM   C18F11185   4.603   3.763   8.665  0.6194  0.5385  0.1338
  108OSM   H18F11186   4.606   3.859   8.608  0.4238  2.3624  2.9623
  108OSM   H18G11187   4.540   3.689   8.611  0.8643 -1.1156  2.0259
  108OSM   H18H11188   4.704   3.722   8.684  0.0244 -0.2658  1.6806
  109OSM      N11189   4.619   4.938  10.816 -0.1118 -0.4262  0.4212
  109OSM    C1511190   4.562   4.921  10.952 -0.5539 -0.5387 -0.2602
  109OSM   H15A11191   4.528   5.016  10.991  2.3624 -0.3530  2.2912
  109OSM   H15B11192   4.639   4.893  11.023 -0.1669 -0.4385 -0.6403
  109OSM   H15C11193   4.487   4.844  10.948 -2.4816  1.2563 -0.8257
  109OSM    C1411194   4.507   4.954  10.721 -0.1875  0.3429  0.1305
  109OSM   H14A11195   4.453   4.863  10.700  2.2069 -0.9515 -0.8480
  109OSM   H14B11196   4.542   4.993  10.627 -1.1143  1.6546  0.3163
  109OSM   H14C11197   4.441   5.028  10.763  1.5080  2.3887 -0.6131
  109OSM    C1311198   4.718   5.046  10.812  0.5260 -0.1315 -0.9099
  109OSM   H13A11199   4.783   5.028  10.727 -0.3403  1.1336 -1.8949
  109OSM   H13B11200   4.780   5.034  10.899 -1.0593  0.1668  0.2893
  109OSM   H13C11201   4.679   5.147  10.806  0.7293 -0.0022 -0.1566
  109OSM    C1211202   4.687   4.810  10.776  0.0262 -0.4959 -0.2582
  109OSM   H12A11203   4.783   4.806  10.826  0.6021  1.1269 -1.1648
  109OSM   H12B11204   4.729   4.813  10.676  1.4410  0.6040  0.3255
  109OSM    C1111205   4.617   4.670  10.810  0.5544  0.0008 -0.0067
  109OSM   H11A11206   4.642   4.656  10.917 -1.4208  0.3404  0.5408
  109OSM   H11B11207   4.677   4.593  10.756  1.9926  1.0421  0.0303
  109OSM      P11208   4.422   4.572  10.675 -0.1363  0.4333 -0.5621
  109OSM    O1311209   4.419   4.428  10.726  0.0018 -0.1927  0.3360
  109OSM    O1411210   4.292   4.634  10.635  0.1216 -0.5688 -0.6808
  109OSM    O1111211   4.522   4.577  10.552 -0.7040 -0.2755 -0.0675
  109OSM    O1211212   4.476   4.667  10.798  0.1794  0.6527 -0.4352
  109OSM    C1S11213   4.591   4.467  10.501  0.2023 -0.0654  0.1093
  109OSM    H1S11214   4.525   4.379  10.484  1.5144 -1.0254 -0.2075
  109OSM    H1T11215   4.667   4.426  10.572 -0.9140 -0.7402  0.9459
  109OSM     NF11216   4.710   4.393  10.305 -0.1213  0.2599 -0.7015
  109OSM    HNF11217   4.796   4.351  10.332  0.0722  1.5006  0.7622
  109OSM    C2S11218   4.672   4.505  10.378 -0.1152 -0.6653 -0.4247
  109OSM    H2S11219   4.608   4.571  10.315 -1.7666 -0.2497  1.5985
  109OSM    C3S11220   4.785   4.603  10.424 -0.3042  0.3201 -0.8019
  109OSM    H3S11221   4.868   4.555  10.481 -0.2691  2.4040  1.0419
  109OSM     O311222   4.757   4.718  10.503  0.4947 -0.2886 -0.4073
  109OSM    HO311223   4.664   4.722  10.527  0.5050  2.2234 -0.5185
  109OSM    C4S11224   4.857   4.633  10.290  0.3801 -0.8539  0.0119
  109OSM    H4S11225   4.939   4.566  10.260 -0.8037 -1.2084 -2.7407
  109OSM    C5S11226   4.816   4.734  10.201 -0.1399 -0.6133 -0.2339
  109OSM    H5S11227   4.737   4.805  10.229 -1.4014 -1.7212 -0.8272
  109OSM    C6S11228   4.882   4.744  10.065  0.3344  0.4930  0.1588
  109OSM    H6S11229   4.985   4.704  10.054  0.1314 -0.5167  1.5304
  109OSM    H6T11230   4.885   4.853  10.047  0.1786  0.4027 -0.4391
  109OSM    C7S11231   4.810   4.675   9.946  0.7324 -1.0365  0.1716
  109OSM    H7S11232   4.702   4.699   9.953  0.3044 -2.3954 -1.4147
  109OSM    H7T11233   4.803   4.565   9.955 -1.2236 -1.1160 -1.6753
  109OSM    C8S11234   4.858   4.710   9.807 -0.4745  1.2305  0.3728
  109OSM    H8S11235   4.967   4.686   9.805 -1.0018 -1.6962  1.7161
  109OSM    H8T11236   4.833   4.814   9.777 -2.4526  0.1328 -2.1478
  109OSM    C9S11237   4.806   4.619   9.693 -0.3529  0.6859  0.5278
  109OSM    H9S11238   4.696   4.637   9.700 -0.3832  0.2034  1.4493
  109OSM    H9T11239   4.813   4.512   9.723 -0.5147  1.0048  1.7703
  109OSM   C10S11240   4.844   4.655   9.549  0.8429  0.3478  0.4220
  109OSM   H10S11241   4.954   4.642   9.545  0.8203  0.3374 -1.5020
  109OSM   H10T11242   4.819   4.761   9.528 -0.3684 -0.3120 -1.8235
  109OSM   C11S11243   4.775   4.565   9.446  0.1657  0.6683 -0.4719
  109OSM   H11S11244   4.666   4.588   9.442 -0.0612 -0.3776 -4.3690
  109OSM   H11T11245   4.790   4.459   9.475 -2.6850 -0.0791 -1.3490
  109OSM   C12S11246   4.826   4.582   9.301  0.3872 -0.0023 -0.1512
  109OSM   H12S11247   4.889   4.492   9.285 -0.7144 -1.0643  1.2048
  109OSM   H12T11248   4.881   4.676   9.280 -1.7724  1.7341  1.3742
  109OSM   C13S11249   4.708   4.574   9.200 -0.5263 -1.0102  0.6865
  109OSM   H13S11250   4.623   4.640   9.228 -0.5977 -0.2750 -1.1223
  109OSM   H13T11251   4.673   4.469   9.205  3.1502 -2.5439 -1.3819
  109OSM   C14S11252   4.741   4.614   9.056 -0.4793  0.6291 -0.7833
  109OSM   H14S11253   4.644   4.603   9.003 -1.6012 -0.4921  1.3995
  109OSM   H14T11254   4.822   4.563   9.000 -1.7947 -2.4893 -0.0305
  109OSM   C15S11255   4.775   4.770   9.045  0.6856 -0.4590 -0.0008
  109OSM   H15S11256   4.873   4.789   9.093  1.7805  0.7495 -2.5092
  109OSM   H15T11257   4.695   4.837   9.084  0.4131  1.2377 -3.1247
  109OSM   C16S11258   4.799   4.802   8.901 -0.0183 -0.1934 -0.0444
  109OSM   H16S11259   4.713   4.767   8.840 -1.7034 -1.3135  2.8161
  109OSM   H16T11260   4.886   4.748   8.858  1.0164  0.4364  1.2058
  109OSM   C17S11261   4.802   4.951   8.882 -0.3919  0.3197 -0.7853
  109OSM   H17S11262   4.873   4.994   8.956  2.5969 -3.0142 -1.4277
  109OSM   H17T11263   4.705   5.000   8.905  0.1112  0.8371  0.3218
  109OSM   C18S11264   4.842   4.990   8.736 -0.9727  0.1207 -0.3002
  109OSM   H18S11265   4.769   4.938   8.671  0.4022  0.2892 -2.0542
  109OSM   H18T11266   4.943   4.948   8.724 -0.7402  0.3861  0.6003
  109OSM   H18U11267   4.845   5.097   8.707 -1.0233 -0.1400 -1.2890
  109OSM    C1F11268   4.622   4.323  10.229 -0.5416  0.1963  0.0780
  109OSM     OF11269   4.507   4.359  10.227  0.0996 -0.0613  0.1726
  109OSM    C2F11270   4.665   4.199  10.178 -0.2057  0.2812  0.0595
  109OSM    H2F11271   4.640   4.118  10.249  0.2939 -0.1577 -0.2583
  109OSM    H2G11272   4.775   4.207  10.166 -0.2057  0.6109  0.2485
  109OSM    C3F11273   4.599   4.156  10.045 -0.0256 -0.4085 -0.1490
  109OSM    H3F11274   4.488   4.163  10.054  0.2094  1.3036  2.5540
  109OSM    H3G11275   4.618   4.048  10.035 -1.8235 -0.8904  1.0426
  109OSM    C4F11276   4.629   4.241   9.917  0.3832 -0.0791 -0.3439
  109OSM    H4F11277   4.734   4.215   9.895  0.0224 -1.7809 -0.2253
  109OSM    H4G11278   4.633   4.346   9.952 -1.0677 -0.5297  1.3134
  109OSM    C5F11279   4.524   4.202   9.804 -0.4197  0.1641  0.1222
  109OSM    H5F11280   4.421   4.227   9.840  0.5858  0.7411  2.8537
  109OSM    H5G11281   4.535   4.092   9.802  0.6134  0.2604  0.1009
  109OSM    C6F11282   4.566   4.254   9.666  0.4838  0.5239 -0.3567
  109OSM    H6F11283   4.668   4.217   9.642 -0.9637 -2.3789 -2.6337
  109OSM    H6G11284   4.572   4.365   9.669  0.4616  0.5011  1.3549
  109OSM    C7F11285   4.479   4.207   9.538 -0.0612  0.4210 -0.0232
  109OSM    H7F11286   4.370   4.230   9.546 -0.2079  1.5665 -3.4201
  109OSM    H7G11287   4.493   4.098   9.530 -3.9070 -0.1231 -1.5961
  109OSM    C8F11288   4.527   4.271   9.409  0.2497 -0.4302 -0.3069
  109OSM    H8F11289   4.635   4.262   9.383 -0.0440 -0.9482 -1.3988
  109OSM    H8G11290   4.507   4.379   9.421  2.6079  0.3626 -2.4915
  109OSM    C9F11291   4.429   4.219   9.300 -0.6565  0.1341 -0.2578
  109OSM    H9F11292   4.323   4.217   9.331 -0.3745  2.4166  1.0911
  109OSM   C10F11293   4.463   4.177   9.178  0.1373 -0.0960 -0.1039
  109OSM   H10F11294   4.390   4.138   9.106 -1.1971  1.3095  0.4512
  109OSM   C11F11295   4.599   4.182   9.111  0.8754 -0.4484 -0.5923
  109OSM   H11F11296   4.626   4.080   9.077 -1.0703 -2.2601  2.7650
  109OSM   H11G11297   4.680   4.221   9.177  0.4906 -1.2453  0.3734
  109OSM   C12F11298   4.594   4.257   8.982 -0.6355  0.2255 -0.3206
  109OSM   H12F11299   4.690   4.297   8.944 -0.9301  0.4358 -0.8655
  109OSM   H12G11300   4.529   4.346   8.998 -1.0989  0.0622 -1.2550
  109OSM   C13F11301   4.542   4.170   8.862  0.2090 -0.9266  0.6217
  109OSM   H13F11302   4.462   4.101   8.898  0.5333 -1.0218  1.1801
  109OSM   H13G11303   4.629   4.103   8.842  3.0810  1.8572  2.7577
  109OSM   C14F11304   4.508   4.244   8.734  0.3498  0.3694 -0.6206
  109OSM   H14F11305   4.591   4.305   8.692  1.5487  0.2413  1.4036
  109OSM   H14G11306   4.420   4.310   8.749 -1.4177 -1.9285 -0.3845
  109OSM   C15F11307   4.442   4.141   8.638  0.3196 -0.2733 -0.0860
  109OSM   H15F11308   4.357   4.090   8.689  0.7652 -1.8046 -0.7876
  109OSM   H15G11309   4.505   4.050   8.622  1.5206  0.0165  2.4907
  109OSM   C16F11310   4.394   4.217   8.510  0.2775 -0.2019 -0.8525
  109OSM   H16F11311   4.472   4.279   8.461  1.7634 -1.2537  0.0691
  109OSM   H16G11312   4.316   4.290   8.541  2.5898  1.0657  2.6440
  109OSM   C17F11313   4.331   4.121   8.411 -0.5814 -0.0702 -0.2300
  109OSM   H17F11314   4.242   4.071   8.454 -1.0899  0.7977 -0.2614
  109OSM   H17G11315   4.398   4.038   8.381 -0.5533  0.4825 -1.8003
  109OSM   C18F11316   4.292   4.184   8.279 -0.2588  0.1382  0.2663
  109OSM   H18F11317   4.202   4.249   8.281  0.3814  1.0469 -0.0165
  109OSM   H18G11318   4.271   4.103   8.205 -2.0443  0.0338  0.8307
  109OSM   H18H11319   4.381   4.241   8.244 -1.2305  0.3398 -2.0139
  110OSM      N11320   0.868   4.146  11.167  0.0782  0.3983 -0.0156
  110OSM    C1511321   0.969   4.034  11.176  0.1713  0.1630 -0.2941
  110OSM   H15A11322   0.926   3.944  11.135  0.1322 -0.9245  1.9939
  110OSM   H15B11323   0.985   4.025  11.282 -0.4857 -2.1198 -0.3504
  110OSM   H15C11324   1.056   4.060  11.117 -1.6175  2.2637 -2.1888
  110OSM    C1411325   0.747   4.113  11.254  0.7195  0.7653  0.9973
  110OSM   H14A11326   0.773   4.109  11.359 -0.1157 -0.6712  1.1703
  110OSM   H14B11327   0.698   4.019  11.234  0.3052  0.7954  1.8211
  110OSM   H14C11328   0.664   4.182  11.240  0.2700  0.4073  1.8062
  110OSM    C1311329   0.918   4.275  11.215  0.0398  0.1457 -0.0361
  110OSM   H13A11330   0.987   4.325  11.150 -2.5230 -0.1162 -3.2427
  110OSM   H13B11331   0.951   4.265  11.318  0.9822 -0.9443 -0.4163
  110OSM   H13C11332   0.839   4.349  11.218 -0.9676 -0.8843  2.3095
  110OSM    C1211333   0.830   4.149  11.027  0.7795 -0.1831  0.4152
  110OSM   H12A11334   0.920   4.152  10.968 -0.6447  0.4183 -1.8652
  110OSM   H12B11335   0.780   4.241  10.999  2.0942  0.1996 -0.7786
  110OSM    C1111336   0.743   4.031  10.973 -0.5016 -0.6196  0.7800
  110OSM   H11A11337   0.753   4.033  10.863  1.6855  1.4031  0.9383
  110OSM   H11B11338   0.635   4.052  10.984 -0.7645  0.5471 -2.8441
  110OSM      P11339   0.693   3.782  11.051 -0.0962  0.1158  0.3283
  110OSM    O1311340   0.771   3.657  11.060  0.0706 -0.6558  0.2199
  110OSM    O1411341   0.621   3.833  11.170  0.3052 -0.9609  0.2575
  110OSM    O1111342   0.609   3.776  10.923  0.7001 -0.0835 -0.0477
  110OSM    O1211343   0.796   3.901  11.011  0.2570  0.6642  0.3725
  110OSM    C1S11344   0.675   3.736  10.796  0.2858  0.4401 -0.0847
  110OSM    H1S11345   0.687   3.626  10.808  0.3003  0.2429 -1.7261
  110OSM    H1T11346   0.768   3.794  10.780 -0.3709  1.5893  0.1133
  110OSM     NF11347   0.643   3.718  10.555 -0.2475 -0.2434 -0.0017
  110OSM    HNF11348   0.680   3.793  10.501 -0.0598  0.2256  0.7523
  110OSM    C2S11349   0.581   3.757  10.682  0.2562 -0.4029  0.2958
  110OSM    H2S11350   0.491   3.695  10.700  0.9115 -1.4861 -0.0889
  110OSM    C3S11351   0.523   3.907  10.685  0.2735 -0.7134  0.1656
  110OSM    H3S11352   0.606   3.980  10.675 -0.5213  0.2328  0.3104
  110OSM     O311353   0.460   3.949  10.808 -0.5724  0.7170  0.1410
  110OSM    HO311354   0.503   3.887  10.867 -1.3832 -0.0381 -0.0425
  110OSM    C4S11355   0.428   3.925  10.560 -0.1098  0.8584  0.4962
  110OSM    H4S11356   0.477   3.993  10.489 -1.3386  0.6096 -0.6271
  110OSM    C5S11357   0.302   3.880  10.552 -0.9197 -0.1087  0.3355
  110OSM    H5S11358   0.260   3.810  10.627  1.2601 -0.2177  1.5153
  110OSM    C6S11359   0.220   3.908  10.433  0.4784  0.0228  0.3485
  110OSM    H6S11360   0.130   3.959  10.474 -1.4472 -1.8671 -1.2671
  110OSM    H6T11361   0.190   3.811  10.388  0.4767 -0.0530  0.5131
  110OSM    C7S11362   0.284   3.983  10.313 -0.0258 -0.1797 -0.4173
  110OSM    H7S11363   0.383   3.941  10.284  0.8043  2.2611 -1.3383
  110OSM    H7T11364   0.303   4.088  10.343 -0.1006  0.0568 -1.2008
  110OSM    C8S11365   0.190   3.983  10.186  0.1274 -0.1696 -0.3229
  110OSM    H8S11366   0.111   4.060  10.197  0.4416  0.3473 -1.4730
  110OSM    H8T11367   0.127   3.893  10.186 -1.5089  0.9383 -0.1351
  110OSM    C9S11368   0.269   4.022  10.054 -0.6072 -0.1521 -0.3332
  110OSM    H9S11369   0.342   3.942  10.033  0.5268  0.0752  2.3797
  110OSM    H9T11370   0.321   4.116  10.082  1.8376 -1.6099  0.2766
  110OSM   C10S11371   0.179   4.021   9.929 -0.1052  0.0890 -0.4648
  110OSM   H10S11372   0.084   4.071   9.958  0.4551  0.4307  0.8547
  110OSM   H10T11373   0.149   3.915   9.916  0.4496 -0.2439  0.7334
  110OSM   C11S11374   0.239   4.080   9.795 -0.0340 -0.4785 -0.3764
  110OSM   H11S11375   0.293   3.995   9.748 -2.2807 -2.6273  0.6949
  110OSM   H11T11376   0.297   4.172   9.818  0.0930 -0.4405 -0.8500
  110OSM   C12S11377   0.123   4.111   9.703  0.6710  0.1904 -0.2331
  110OSM   H12S11378   0.079   4.202   9.747  2.1244  0.3062  1.0577
  110OSM   H12T11379   0.043   4.033   9.702 -0.9152  1.5995 -4.0123
  110OSM   C13S11380   0.172   4.129   9.559 -0.2265 -0.1806 -0.0825
  110OSM   H13S11381   0.226   4.037   9.528  1.0108 -0.5483  2.8578
  110OSM   H13T11382   0.246   4.211   9.573  1.1626 -1.6311  1.5366
  110OSM   C14S11383   0.064   4.173   9.463  0.3447 -0.5202  0.1867
  110OSM   H14S11384   0.005   4.258   9.504  1.1007 -0.2981  0.8345
  110OSM   H14T11385  -0.006   4.089   9.444  0.3433 -0.3369 -0.6480
  110OSM   C15S11386   0.127   4.214   9.338 -0.1499  0.6518  0.3188
  110OSM   H15S11387   0.196   4.135   9.304  2.1821  1.9959  1.6606
  110OSM   H15T11388   0.182   4.309   9.357  2.1566 -0.7201  0.7923
  110OSM   C16S11389   0.022   4.237   9.219  0.2915  0.1931  0.0935
  110OSM   H16S11390   0.064   4.298   9.136 -0.4519  0.5711 -0.0185
  110OSM   H16T11391  -0.059   4.293   9.271  1.0393  0.3095  1.1704
  110OSM   C17S11392  -0.033   4.110   9.147 -0.0207 -0.6130 -0.3757
  110OSM   H17S11393  -0.116   4.141   9.080 -0.6323  0.1973  0.7226
  110OSM   H17T11394  -0.066   4.041   9.228 -0.0865 -1.8430 -1.4309
  110OSM   C18S11395   0.063   4.023   9.065  0.3347  0.4769  0.5092
  110OSM   H18S11396   0.099   4.078   8.976 -0.3160  0.2906  0.1218
  110OSM   H18T11397   0.004   3.932   9.038  0.6960 -0.0580  1.4576
  110OSM   H18U11398   0.155   3.999   9.122  1.3776 -1.1616 -1.7172
  110OSM    C1F11399   0.677   3.592  10.527 -0.0592 -0.5139 -0.2797
  110OSM     OF11400   0.650   3.498  10.605  0.2963  0.1220  0.3905
  110OSM    C2F11401   0.754   3.583  10.403 -0.4372 -0.3328 -0.5208
  110OSM    H2F11402   0.850   3.636  10.423 -0.4599 -0.3709 -0.3110
  110OSM    H2G11403   0.701   3.650  10.332 -1.1779 -0.3708 -0.0126
  110OSM    C3F11404   0.785   3.437  10.364 -0.1639 -0.2253 -0.3167
  110OSM    H3F11405   0.690   3.381  10.351  0.5876 -1.0481 -3.0985
  110OSM    H3G11406   0.847   3.381  10.436 -0.4701 -2.1461 -1.4768
  110OSM    C4F11407   0.863   3.424  10.237 -0.4435 -0.8772 -0.2025
  110OSM    H4F11408   0.887   3.318  10.211  1.3158 -0.7919  0.9585
  110OSM    H4G11409   0.963   3.469  10.253 -1.1623  0.5091  0.5757
  110OSM    C5F11410   0.806   3.499  10.119 -0.9375  0.7721 -0.0697
  110OSM    H5F11411   0.814   3.608  10.136  2.8069  0.4244  1.2304
  110OSM    H5G11412   0.699   3.468  10.119  0.0640 -3.4902 -2.2860
  110OSM    C6F11413   0.864   3.465   9.984  0.3682  0.2561 -0.1442
  110OSM    H6F11414   0.876   3.355   9.979  0.7004  0.2764  0.1726
  110OSM    H6G11415   0.966   3.510   9.980 -0.9271  3.9318  2.4506
  110OSM    C7F11416   0.786   3.512   9.856  0.0717  0.8041 -0.9077
  110OSM    H7F11417   0.785   3.623   9.850  3.3897  0.8901 -1.5462
  110OSM    H7G11418   0.686   3.463   9.849  0.5048  0.0091 -1.6696
  110OSM    C8F11419   0.857   3.467   9.728  0.4358 -1.4048  0.4823
  110OSM    H8F11420   0.852   3.357   9.715  1.9243 -1.1953 -3.2307
  110OSM    H8G11421   0.963   3.500   9.730  0.2456 -0.5735 -1.1369
  110OSM    C9F11422   0.790   3.528   9.610  0.5148  0.2121 -0.6018
  110OSM    H9F11423   0.757   3.628   9.641 -1.4892 -0.6225  0.1326
  110OSM   C10F11424   0.780   3.482   9.482 -0.0620 -0.4962  0.0138
  110OSM   H10F11425   0.737   3.549   9.405  1.7403  0.5329 -0.1629
  110OSM   C11F11426   0.831   3.345   9.430  0.1042 -0.4850 -0.7646
  110OSM   H11F11427   0.920   3.320   9.492  0.2370 -0.5360 -0.9752
  110OSM   H11G11428   0.862   3.353   9.324 -1.2378 -0.3016 -1.1633
  110OSM   C12F11429   0.735   3.224   9.440  0.2636  0.0632 -0.2252
  110OSM   H12F11430   0.703   3.185   9.539 -0.7684  1.0588 -0.1465
  110OSM   H12G11431   0.779   3.133   9.394  0.3162  0.6749 -1.4076
  110OSM   C13F11432   0.609   3.245   9.359  0.0290  0.0927 -0.0601
  110OSM   H13F11433   0.629   3.279   9.256  0.4906 -1.5893 -0.5664
  110OSM   H13G11434   0.552   3.328   9.405 -0.6803 -0.2345 -0.3464
  110OSM   C14F11435   0.525   3.113   9.349  0.0638  0.6825  0.8846
  110OSM   H14F11436   0.601   3.038   9.321  0.5452  0.3645  2.9549
  110OSM   H14G11437   0.449   3.112   9.267  0.1308 -0.4022  0.8286
  110OSM   C15F11438   0.455   3.073   9.479 -0.1440  0.3076  0.7888
  110OSM   H15F11439   0.385   3.157   9.496 -1.3235 -0.7659  1.3244
  110OSM   H15G11440   0.526   3.067   9.564 -0.4101 -0.5726  0.9573
  110OSM   C16F11441   0.385   2.936   9.469 -0.3330 -0.4121 -0.3534
  110OSM   H16F11442   0.459   2.855   9.453  0.3784  0.5214 -2.1059
  110OSM   H16G11443   0.331   2.942   9.373  1.2117  0.2141 -1.2294
  110OSM   C17F11444   0.298   2.916   9.588  1.2076  0.4246 -0.5786
  110OSM   H17F11445   0.234   3.007   9.599  0.8431  0.3659 -2.0148
  110OSM   H17G11446   0.359   2.912   9.680  1.6875 -1.4137 -0.9379
  110OSM   C18F11447   0.206   2.788   9.577 -0.0112  0.0767  0.3369
  110OSM   H18F11448   0.128   2.772   9.654 -1.1660  2.2021 -0.2996
  110OSM   H18G11449   0.281   2.708   9.560  0.5573  0.4929  0.8273
  110OSM   H18H11450   0.141   2.798   9.487 -1.4707 -0.9113  1.2490
  111OSM      N11451   6.615   2.204  10.949 -0.1440 -0.4852  0.1668
  111OSM    C1511452   6.616   2.262  11.082 -0.1297  0.1658  0.6333
  111OSM   H15A11453   6.537   2.227  11.146 -1.1806  3.4983  1.3390
  111OSM   H15B11454   6.599   2.368  11.074 -0.4746  0.1581  1.2227
  111OSM   H15C11455   6.706   2.232  11.133 -1.0307 -0.6624  1.7611
  111OSM    C1411456   6.745   2.235  10.871 -0.1739 -0.1735  0.1375
  111OSM   H14A11457   6.740   2.193  10.772 -0.3552  0.0163  0.0635
  111OSM   H14B11458   6.825   2.181  10.920 -0.0510  1.0691  1.3699
  111OSM   H14C11459   6.760   2.342  10.861 -2.8350  0.1142 -1.5513
  111OSM    C1311460   6.625   2.057  10.968 -0.5084 -0.1987 -0.2217
  111OSM   H13A11461   6.707   2.021  11.029 -1.8085 -0.9023  1.1717
  111OSM   H13B11462   6.610   2.002  10.876 -0.7069  0.8928 -0.8560
  111OSM   H13C11463   6.543   2.019  11.027  1.3610 -1.4995  1.6686
  111OSM    C1211464   6.498   2.248  10.862 -0.0876  0.0441  0.1080
  111OSM   H12A11465   6.415   2.211  10.921 -0.7747 -1.1699 -1.5351
  111OSM   H12B11466   6.511   2.203  10.765  0.6412  2.4525 -1.0013
  111OSM    C1111467   6.481   2.397  10.845 -0.3343 -0.4144  0.1783
  111OSM   H11A11468   6.409   2.409  10.761  0.5874  0.3449 -0.5125
  111OSM   H11B11469   6.573   2.444  10.806  0.3652 -0.6748  1.4552
  111OSM      P11470   6.284   2.497  10.994 -0.6113  0.0368  0.0949
  111OSM    O1311471   6.226   2.377  11.057  0.0949  0.3948 -0.0657
  111OSM    O1411472   6.277   2.620  11.072 -0.2111 -0.0126 -0.1349
  111OSM    O1111473   6.217   2.509  10.857 -0.1108 -0.5510 -0.2471
  111OSM    O1211474   6.433   2.468  10.958 -0.3147  0.3032 -0.4490
  111OSM    C1S11475   6.253   2.605  10.758 -0.7719  0.0776 -0.0776
  111OSM    H1S11476   6.362   2.629  10.761 -1.1162  1.8073 -0.3604
  111OSM    H1T11477   6.194   2.698  10.770 -1.7799 -0.4180 -1.0561
  111OSM     NF11478   6.282   2.634  10.515 -0.5035  0.1127 -0.2096
  111OSM    HNF11479   6.250   2.717  10.471  5.1951  2.5583 -0.6022
  111OSM    C2S11480   6.209   2.559  10.615  0.8381 -0.2223  0.0176
  111OSM    H2S11481   6.240   2.454  10.603 -0.2656 -0.5965  0.3083
  111OSM    C3S11482   6.054   2.573  10.603  0.9867  0.5368  0.4590
  111OSM    H3S11483   6.029   2.676  10.636 -2.2538 -0.2475  0.7287
  111OSM     O311484   5.973   2.483  10.682  0.0377 -0.4555 -0.7228
  111OSM    HO311485   6.044   2.436  10.726  0.7356  1.5517  0.3901
  111OSM    C4S11486   6.014   2.554  10.460 -0.6494  0.1786 -0.3743
  111OSM    H4S11487   5.977   2.644  10.410 -3.1590  0.2922  1.5208
  111OSM    C5S11488   6.024   2.437  10.398 -0.4682  0.2619 -0.6758
  111OSM    H5S11489   6.053   2.343  10.447 -0.2056 -0.2914 -1.8562
  111OSM    C6S11490   5.972   2.414  10.263  0.9956  0.1361 -0.3215
  111OSM    H6S11491   5.876   2.466  10.242  0.5704  0.4073  2.0330
  111OSM    H6T11492   5.963   2.305  10.247 -1.2032 -0.0864  1.8933
  111OSM    C7S11493   6.074   2.457  10.149 -0.2860  0.3091  0.3417
  111OSM    H7S11494   6.157   2.384  10.140 -1.9760 -1.5074 -1.6712
  111OSM    H7T11495   6.111   2.558  10.177 -0.4194  0.4847 -0.1051
  111OSM    C8S11496   6.002   2.453  10.016  0.9664  0.5868 -0.2584
  111OSM    H8S11497   5.909   2.513  10.016  0.0970 -0.7377  0.3106
  111OSM    H8T11498   5.958   2.352  10.009 -0.2515  1.1413 -0.9654
  111OSM    C9S11499   6.094   2.482   9.904 -0.6158  0.3534 -0.0604
  111OSM    H9S11500   6.166   2.398   9.896 -1.6231 -0.6189  0.8434
  111OSM    H9T11501   6.143   2.582   9.909  3.8080 -1.6186  0.3080
  111OSM   C10S11502   6.019   2.481   9.774 -0.8653  0.1526  0.6620
  111OSM   H10S11503   5.943   2.561   9.789  1.4445  2.1104  2.8032
  111OSM   H10T11504   5.956   2.390   9.772 -0.8349  0.1160 -1.2393
  111OSM   C11S11505   6.113   2.505   9.654 -0.5708  0.1762  0.3484
  111OSM   H11S11506   6.203   2.440   9.662  0.1670  1.3846  4.4056
  111OSM   H11T11507   6.135   2.614   9.647  1.0130 -0.2593 -2.6272
  111OSM   C12S11508   6.042   2.473   9.518  0.5341 -0.2909 -0.6149
  111OSM   H12S11509   5.969   2.553   9.494 -0.1289  0.0685  2.2325
  111OSM   H12T11510   5.970   2.390   9.535 -0.2951  0.6422  0.5494
  111OSM   C13S11511   6.128   2.435   9.392 -0.4427 -0.5671 -0.0322
  111OSM   H13S11512   6.191   2.351   9.427 -0.4228 -0.3280  0.5109
  111OSM   H13T11513   6.195   2.520   9.366  0.0182 -0.6679  0.7960
  111OSM   C14S11514   6.034   2.389   9.274 -0.8716 -0.2958  0.4494
  111OSM   H14S11515   6.007   2.479   9.215 -0.8154 -0.1118  0.7050
  111OSM   H14T11516   5.949   2.336   9.324  0.2652 -1.5549  1.1046
  111OSM   C15S11517   6.108   2.296   9.190 -0.9711  0.5714  0.5751
  111OSM   H15S11518   6.146   2.203   9.238 -0.4411  1.5856  2.1817
  111OSM   H15T11519   6.203   2.334   9.148 -1.7452  1.7273 -0.2088
  111OSM   C16S11520   6.020   2.249   9.064  0.2784 -0.7060 -0.1807
  111OSM   H16S11521   6.029   2.339   8.999  1.3163  0.4823  1.5054
  111OSM   H16T11522   5.913   2.229   9.088  0.3547 -0.3437  0.4766
  111OSM   C17S11523   6.081   2.133   8.986  0.6280 -0.4074  0.0559
  111OSM   H17S11524   6.056   2.039   9.040 -0.2076 -0.7360 -0.8628
  111OSM   H17T11525   6.191   2.149   8.983  0.3512  1.6036 -1.1912
  111OSM   C18S11526   6.029   2.123   8.848  0.4252 -0.3294 -0.0991
  111OSM   H18S11527   5.920   2.144   8.855  0.3534 -0.5922 -0.4478
  111OSM   H18T11528   6.044   2.019   8.812  0.0310 -0.3473 -0.2184
  111OSM   H18U11529   6.074   2.205   8.787 -1.5150 -0.8469 -2.3759
  111OSM    C1F11530   6.413   2.616  10.486  0.1069  0.9493 -0.2647
  111OSM     OF11531   6.489   2.542  10.547 -0.0885  0.0721  0.7185
  111OSM    C2F11532   6.461   2.694  10.368  0.3632 -0.4429 -0.1251
  111OSM    H2F11533   6.558   2.745  10.385  0.6971 -1.7538  2.2346
  111OSM    H2G11534   6.389   2.778  10.371  2.4720  1.5524 -1.5732
  111OSM    C3F11535   6.447   2.622  10.231 -0.1119  0.5922  0.3840
  111OSM    H3F11536   6.483   2.688  10.149  0.3314  1.8013  1.5153
  111OSM    H3G11537   6.339   2.599  10.219  0.2645 -2.6291  2.0130
  111OSM    C4F11538   6.531   2.496  10.213 -0.8287 -1.1076 -0.4932
  111OSM    H4F11539   6.506   2.437  10.304  0.2144  1.1273  1.3404
  111OSM    H4G11540   6.635   2.534  10.213 -1.2109  0.0340  1.0942
  111OSM    C5F11541   6.507   2.418  10.081 -0.6130  0.0077  0.1864
  111OSM    H5F11542   6.410   2.365  10.093 -0.8361  0.2622 -0.4658
  111OSM    H5G11543   6.590   2.347  10.060  0.8137  1.2586  1.3752
  111OSM    C6F11544   6.500   2.513   9.966 -0.0954  0.8813  0.0832
  111OSM    H6F11545   6.598   2.566   9.973 -0.5285  1.8675 -1.1523
  111OSM    H6G11546   6.416   2.585   9.973  0.8134  1.7951  3.5353
  111OSM    C7F11547   6.503   2.440   9.833 -0.2817 -0.3283 -0.0948
  111OSM    H7F11548   6.426   2.360   9.844 -0.9388  0.0955 -1.3876
  111OSM    H7G11549   6.600   2.387   9.828  0.7326  1.1398  2.1666
  111OSM    C8F11550   6.482   2.521   9.704 -0.0225 -0.0990  0.4798
  111OSM    H8F11551   6.380   2.564   9.711  0.4503  1.2029 -0.3426
  111OSM    H8G11552   6.492   2.450   9.619  3.4215  1.7874 -0.8794
  111OSM    C9F11553   6.562   2.647   9.692 -0.9748  0.0574  0.1475
  111OSM    H9F11554   6.560   2.721   9.773 -0.5215  1.2160 -0.8583
  111OSM   C10F11555   6.620   2.693   9.575  0.7765  0.6276 -0.5317
  111OSM   H10F11556   6.676   2.787   9.567  1.2339  0.4099  0.0805
  111OSM   C11F11557   6.617   2.617   9.441  0.6848 -0.4205 -0.7660
  111OSM   H11F11558   6.648   2.510   9.449  0.3568 -0.4957 -0.4673
  111OSM   H11G11559   6.694   2.670   9.380  1.1939  1.3687  1.2982
  111OSM   C12F11560   6.484   2.616   9.359 -0.2467 -0.5110 -0.0133
  111OSM   H12F11561   6.449   2.721   9.357  0.4181 -0.2596  0.8204
  111OSM   H12G11562   6.422   2.535   9.402  0.5837 -2.0390 -1.5587
  111OSM   C13F11563   6.505   2.573   9.217 -0.8831  0.5112 -0.0570
  111OSM   H13F11564   6.561   2.479   9.202 -0.7331  0.7471 -1.0600
  111OSM   H13G11565   6.565   2.654   9.169  0.1843  0.3376  0.9487
  111OSM   C14F11566   6.378   2.562   9.133  0.1856 -0.1462 -0.1197
  111OSM   H14F11567   6.325   2.659   9.140 -1.0182 -0.8356  0.7964
  111OSM   H14G11568   6.304   2.498   9.187 -0.2421  1.9157  1.9078
  111OSM   C15F11569   6.405   2.526   8.987  0.5905  0.2193  0.4454
  111OSM   H15F11570   6.444   2.423   8.971  1.8835  0.4620  1.8625
  111OSM   H15G11571   6.481   2.597   8.947 -0.0236  1.6714  1.7740
  111OSM   C16F11572   6.281   2.540   8.895 -0.1891  0.5124  0.2382
  111OSM   H16F11573   6.231   2.638   8.910 -0.0423  0.5221  0.6981
  111OSM   H16G11574   6.210   2.466   8.938  1.6254 -1.8666 -0.6245
  111OSM   C17F11575   6.301   2.510   8.747 -0.3408  0.0872  0.5125
  111OSM   H17F11576   6.207   2.490   8.691  1.0664  0.2877 -2.0842
  111OSM   H17G11577   6.364   2.419   8.744 -0.9144 -0.2981 -0.6957
  111OSM   C18F11578   6.371   2.629   8.664 -0.5775 -0.1769 -0.1260
  111OSM   H18F11579   6.380   2.606   8.556 -0.5839  0.3124 -0.2343
  111OSM   H18G11580   6.473   2.656   8.699 -1.5522  0.1980  2.6604
  111OSM   H18H11581   6.302   2.716   8.675  1.6992  1.4899  2.0470
  112OSM      N11582   3.906   6.219  10.919 -0.2887  0.4851 -0.0610
  112OSM    C1511583   4.028   6.182  11.001 -0.0966  0.5861  0.0073
  112OSM   H15A11584   4.116   6.182  10.938  2.4455 -1.4858  3.2223
  112OSM   H15B11585   4.018   6.078  11.029  1.4602  0.8815  1.8583
  112OSM   H15C11586   4.050   6.244  11.086  0.7167  0.6519 -0.2444
  112OSM    C1411587   3.906   6.121  10.805 -1.1818  0.2110  0.5955
  112OSM   H14A11588   3.995   6.130  10.745 -0.5442 -0.4335  1.4006
  112OSM   H14B11589   3.823   6.136  10.738  0.3867  0.3115 -1.4145
  112OSM   H14C11590   3.907   6.019  10.842 -1.1414  0.8170  2.3938
  112OSM    C1311591   3.788   6.197  11.008 -0.0204  0.6007 -0.1810
  112OSM   H13A11592   3.695   6.212  10.957 -0.4977 -0.7621  0.2533
  112OSM   H13B11593   3.792   6.267  11.090 -0.1762 -0.7376  1.0101
  112OSM   H13C11594   3.800   6.099  11.052  0.1221  0.4477 -0.5532
  112OSM    C1211595   3.914   6.361  10.868 -0.9633 -0.3144 -0.5725
  112OSM   H12A11596   3.932   6.416  10.960 -2.1147  0.9819 -1.0926
  112OSM   H12B11597   3.825   6.398  10.819 -2.1941 -2.2322  0.0909
  112OSM    C1111598   4.040   6.408  10.779 -0.5633 -0.2936  0.0096
  112OSM   H11A11599   4.028   6.508  10.732 -0.4355 -0.2029  0.1690
  112OSM   H11B11600   4.048   6.333  10.698 -1.2936 -0.0474 -0.2960
  112OSM      P11601   4.196   6.531  10.954 -0.0439 -0.2141 -0.2586
  112OSM    O1311602   4.077   6.604  10.990  0.6597  0.6581 -0.1445
  112OSM    O1411603   4.288   6.483  11.063  0.2978  0.4757 -0.0888
  112OSM    O1111604   4.288   6.622  10.859  0.1587  0.1381  0.6608
  112OSM    O1211605   4.158   6.406  10.859  0.3664 -0.5131 -0.2354
  112OSM    C1S11606   4.405   6.560  10.803 -0.2923 -1.2148 -0.0705
  112OSM    H1S11607   4.434   6.465  10.853  1.9472  0.1349  1.4216
  112OSM    H1T11608   4.491   6.627  10.825 -0.6428 -0.9918  0.6590
  112OSM     NF11609   4.517   6.499  10.608  0.3172 -0.3674 -0.2009
  112OSM    HNF11610   4.582   6.573  10.594  0.3924 -0.4114 -0.0892
  112OSM    C2S11611   4.384   6.541  10.652  0.2570 -0.4235  0.7123
  112OSM    H2S11612   4.306   6.466  10.628  1.7725 -1.5360 -1.0251
  112OSM    C3S11613   4.332   6.671  10.578  0.0161 -0.1051 -0.5784
  112OSM    H3S11614   4.405   6.752  10.596 -0.1404 -0.4008  1.5897
  112OSM     O311615   4.203   6.709  10.622 -0.0349 -0.1052  0.0941
  112OSM    HO311616   4.199   6.661  10.705  0.0888  0.4581  0.4340
  112OSM    C4S11617   4.320   6.633  10.432 -0.4285  0.4671 -0.3780
  112OSM    H4S11618   4.236   6.571  10.399  1.5503 -2.8458  0.3084
  112OSM    C5S11619   4.411   6.669  10.337 -0.1423 -0.6778  0.8462
  112OSM    H5S11620   4.498   6.729  10.367 -0.8809  0.7859  0.1523
  112OSM    C6S11621   4.400   6.645  10.189 -0.4360 -0.6940 -0.3637
  112OSM    H6S11622   4.480   6.569  10.171  0.7324  0.4831 -0.2792
  112OSM    H6T11623   4.408   6.740  10.133 -0.2995  0.1617  1.0612
  112OSM    C7S11624   4.273   6.572  10.135  0.3019 -0.3836 -0.1391
  112OSM    H7S11625   4.201   6.653  10.110  1.4599  0.5256 -0.5686
  112OSM    H7T11626   4.237   6.498  10.211  0.4015  0.1048  0.3939
  112OSM    C8S11627   4.295   6.498  10.004  0.4286 -0.6375  0.2495
  112OSM    H8S11628   4.384   6.431  10.007  1.6542  0.8257 -1.3901
  112OSM    H8T11629   4.313   6.555   9.910 -0.5756 -0.1022  0.3613
  112OSM    C9S11630   4.176   6.409   9.961  0.4397  0.0313 -0.6525
  112OSM    H9S11631   4.089   6.478   9.957 -0.1065 -0.6366 -0.4471
  112OSM    H9T11632   4.158   6.319  10.024  1.9512 -1.7959 -2.7197
  112OSM   C10S11633   4.187   6.331   9.832 -0.9565 -0.6912 -0.4152
  112OSM   H10S11634   4.267   6.255   9.849 -1.2769 -0.8664  0.3478
  112OSM   H10T11635   4.207   6.385   9.738 -3.5487 -3.2474 -2.6356
  112OSM   C11S11636   4.053   6.281   9.789  0.1196  0.4023  0.3671
  112OSM   H11S11637   3.972   6.330   9.846 -0.5664 -1.0597  0.6966
  112OSM   H11T11638   4.052   6.172   9.813 -2.0842  0.6326  1.5766
  112OSM   C12S11639   4.016   6.298   9.642 -0.2366 -0.2596  0.0301
  112OSM   H12S11640   3.972   6.399   9.631 -0.2152 -0.1550  0.8247
  112OSM   H12T11641   3.936   6.227   9.613 -0.2141 -0.1827 -0.2190
  112OSM   C13S11642   4.124   6.290   9.532  0.7456 -0.5951 -0.6248
  112OSM   H13S11643   4.137   6.181   9.511 -0.3612 -0.5654 -1.5903
  112OSM   H13T11644   4.226   6.328   9.554  0.7770 -1.2531  0.4394
  112OSM   C14S11645   4.077   6.349   9.398  0.8375  0.7424  0.4236
  112OSM   H14S11646   4.058   6.457   9.415 -1.6392  0.6306 -1.2382
  112OSM   H14T11647   3.978   6.302   9.383  1.3582 -0.0971 -0.5804
  112OSM   C15S11648   4.178   6.332   9.287  0.3384  0.8510  0.7958
  112OSM   H15S11649   4.213   6.230   9.264  2.1521  0.7611  3.5137
  112OSM   H15T11650   4.275   6.373   9.322  0.3192  1.0019  0.6740
  112OSM   C16S11651   4.131   6.407   9.161  0.5946 -0.0582  0.1150
  112OSM   H16S11652   4.213   6.396   9.087  1.6348  0.1498  1.1891
  112OSM   H16T11653   4.112   6.515   9.178  0.0283 -0.5610  3.5223
  112OSM   C17S11654   4.007   6.344   9.101 -0.6450  0.3564  0.1701
  112OSM   H17S11655   3.926   6.343   9.178 -1.7953  0.1268 -1.0038
  112OSM   H17T11656   4.035   6.237   9.088 -1.3041  0.4296 -2.3436
  112OSM   C18S11657   3.965   6.413   8.974  0.3192  0.0339 -0.6401
  112OSM   H18S11658   4.048   6.453   8.912  1.1346 -0.6106 -0.0030
  112OSM   H18T11659   3.897   6.496   9.002 -1.1661 -1.2764 -0.2033
  112OSM   H18U11660   3.888   6.355   8.918 -1.5277  1.3763  0.4030
  112OSM    C1F11661   4.558   6.378  10.630  0.0317  1.0094  0.5813
  112OSM     OF11662   4.489   6.286  10.677  0.5357  0.3338 -0.1488
  112OSM    C2F11663   4.698   6.349  10.591 -0.1423  0.4804 -0.3491
  112OSM    H2F11664   4.753   6.325  10.685 -0.3733  0.8252 -0.1220
  112OSM    H2G11665   4.754   6.432  10.542  0.4763  0.4895  0.3572
  112OSM    C3F11666   4.712   6.229  10.491  0.1302 -0.0132 -0.5824
  112OSM    H3F11667   4.680   6.134  10.541 -0.0006 -0.0576 -0.7512
  112OSM    H3G11668   4.820   6.206  10.477  0.5729  1.7146 -0.2639
  112OSM    C4F11669   4.647   6.241  10.357  0.0787 -0.0366 -0.2741
  112OSM    H4F11670   4.559   6.309  10.364  0.8968  1.1935 -1.3958
  112OSM    H4G11671   4.619   6.139  10.323  0.5362  0.5343 -2.4982
  112OSM    C5F11672   4.734   6.295  10.244 -0.0317 -0.4256 -0.3625
  112OSM    H5F11673   4.838   6.256  10.256  0.1261 -0.2433 -1.0752
  112OSM    H5G11674   4.735   6.406  10.258 -1.2020 -0.4935  0.4375
  112OSM    C6F11675   4.676   6.253  10.108  0.3455  1.0131  0.1171
  112OSM    H6F11676   4.566   6.270  10.104  0.3950  1.1541 -3.8060
  112OSM    H6G11677   4.681   6.144  10.090 -0.2831  1.6132 -4.8904
  112OSM    C7F11678   4.755   6.306   9.988 -0.8447 -0.3841 -0.0102
  112OSM    H7F11679   4.861   6.285  10.010 -0.4479  1.6990  0.3042
  112OSM    H7G11680   4.767   6.414   9.966  1.2757 -0.7136 -0.6262
  112OSM    C8F11681   4.736   6.231   9.857 -0.5091 -0.2882  0.0101
  112OSM    H8F11682   4.748   6.123   9.878 -1.8051 -0.4349  0.0740
  112OSM    H8G11683   4.805   6.268   9.778  1.6543  0.0114  1.9278
  112OSM    C9F11684   4.592   6.260   9.817 -0.2487  0.0903 -0.6645
  112OSM    H9F11685   4.524   6.234   9.899 -0.9604  0.9145 -0.9730
  112OSM   C10F11686   4.542   6.290   9.692 -0.4318  0.3655 -0.6880
  112OSM   H10F11687   4.437   6.320   9.681 -0.8709 -1.5663 -2.5089
  112OSM   C11F11688   4.622   6.310   9.561 -0.0918  0.0564  0.7334
  112OSM   H11F11689   4.732   6.297   9.574  0.0945  1.0980  0.3386
  112OSM   H11G11690   4.616   6.414   9.523  0.7560 -0.3873 -0.6965
  112OSM   C12F11691   4.571   6.214   9.453  0.2642  0.5449  0.2003
  112OSM   H12F11692   4.462   6.197   9.459  0.0255  2.0380  0.2882
  112OSM   H12G11693   4.608   6.110   9.467 -0.7690  0.0108 -0.8135
  112OSM   C13F11694   4.619   6.265   9.314  0.3342 -0.9477  0.3490
  112OSM   H13F11695   4.730   6.269   9.311  0.4783 -3.0865  1.0422
  112OSM   H13G11696   4.575   6.366   9.301  4.4125  0.8753 -0.7289
  112OSM   C14F11697   4.571   6.188   9.190  0.3775  0.4469 -0.7443
  112OSM   H14F11698   4.460   6.185   9.186  0.3013  0.1183  0.7439
  112OSM   H14G11699   4.614   6.087   9.207 -1.2390 -0.1609 -0.0811
  112OSM   C15F11700   4.623   6.243   9.063  0.3537  0.4297  0.5161
  112OSM   H15F11701   4.732   6.255   9.078  0.8107 -2.4056  0.1721
  112OSM   H15G11702   4.566   6.334   9.036 -0.1020 -0.0117 -0.0429
  112OSM   C16F11703   4.599   6.146   8.948  0.2742  0.3096  1.2219
  112OSM   H16F11704   4.489   6.132   8.949 -0.0237  2.3348  0.3020
  112OSM   H16G11705   4.640   6.044   8.963 -1.9556 -1.2808 -2.2172
  112OSM   C17F11706   4.647   6.202   8.810 -0.2530 -0.7128  0.0597
  112OSM   H17F11707   4.751   6.240   8.827 -0.1926 -0.9652  0.2613
  112OSM   H17G11708   4.580   6.277   8.764  1.7743 -0.5885 -3.0091
  112OSM   C18F11709   4.648   6.090   8.704  0.0195 -0.4092  0.2067
  112OSM   H18F11710   4.546   6.050   8.689  0.0699 -0.7798  0.8241
  112OSM   H18G11711   4.711   6.007   8.743  1.1912  0.4387  0.1692
  112OSM   H18H11712   4.693   6.120   8.607 -0.0093  1.7577  0.7987
  113OSM      N11713   3.393   2.826  11.125  0.2536  0.1670  0.2941
  113OSM    C1511714   3.305   2.762  11.017 -0.2920 -0.4292  0.1217
  113OSM   H15A11715   3.294   2.827  10.931  0.0293  0.9352  1.0896
  113OSM   H15B11716   3.208   2.741  11.058 -0.5705 -1.5871 -1.0654
  113OSM   H15C11717   3.351   2.671  10.981 -0.1394 -0.3190  0.0369
  113OSM    C1411718   3.383   2.743  11.248 -1.1185  0.3665  0.2231
  113OSM   H14A11719   3.459   2.763  11.323  0.5278  1.1434 -1.5803
  113OSM   H14B11720   3.404   2.640  11.223 -0.6762  0.2847  0.9046
  113OSM   H14C11721   3.283   2.751  11.288 -0.2319  1.5291  2.3615
  113OSM    C1311722   3.532   2.810  11.075  0.3328 -0.1066 -0.2238
  113OSM   H13A11723   3.548   2.712  11.033  1.8078  0.0644 -0.0919
  113OSM   H13B11724   3.610   2.839  11.143  1.1186  0.7925 -1.4699
  113OSM   H13C11725   3.543   2.888  11.001 -1.3449  0.6720  0.2879
  113OSM    C1211726   3.350   2.968  11.149 -0.0437  0.0539 -0.5773
  113OSM   H12A11727   3.417   3.009  11.224 -0.9823  1.1795 -0.3214
  113OSM   H12B11728   3.255   2.970  11.201  0.5869  3.4698  0.7316
  113OSM    C1111729   3.350   3.071  11.033 -0.2640 -0.3327  0.0542
  113OSM   H11A11730   3.282   3.041  10.952  1.0887 -0.2626 -1.1500
  113OSM   H11B11731   3.448   3.096  10.986 -0.2943  0.4023  0.3559
  113OSM      P11732   3.158   3.222  11.118  0.0730  0.0141 -0.3346
  113OSM    O1311733   3.093   3.098  11.182 -0.2451  0.2721  0.5579
  113OSM    O1411734   3.139   3.345  11.191  0.2711 -0.1223 -0.0600
  113OSM    O1111735   3.095   3.238  10.974 -0.1062 -0.3338 -0.0439
  113OSM    O1211736   3.306   3.195  11.090 -0.0346 -0.3136 -0.2620
  113OSM    C1S11737   3.163   3.318  10.871 -0.3432  0.4818 -0.1916
  113OSM    H1S11738   3.273   3.302  10.873 -0.5927 -1.4490  0.3603
  113OSM    H1T11739   3.147   3.426  10.887 -1.2838  0.4587 -0.8682
  113OSM     NF11740   3.182   3.334  10.633  0.0462  0.1986  0.3786
  113OSM    HNF11741   3.154   3.426  10.606 -1.7083 -1.3034 -3.5074
  113OSM    C2S11742   3.097   3.288  10.739 -0.3630 -0.3097  0.7245
  113OSM    H2S11743   3.088   3.179  10.721  1.7318 -0.2407 -0.9834
  113OSM    C3S11744   2.953   3.345  10.732 -0.1318 -0.3243 -0.3743
  113OSM    H3S11745   2.958   3.456  10.741  3.4144 -0.4360  0.5628
  113OSM     O311746   2.870   3.308  10.841 -0.1231  0.0967  0.9629
  113OSM    HO311747   2.930   3.255  10.895 -2.7362 -2.1122  1.9034
  113OSM    C4S11748   2.872   3.298  10.620 -0.0677 -0.5429 -0.5617
  113OSM    H4S11749   2.843   3.191  10.623  2.2200 -1.4050 -3.7302
  113OSM    C5S11750   2.829   3.376  10.521  0.6811 -0.1807  0.2020
  113OSM    H5S11751   2.846   3.485  10.522  0.3095 -0.0445 -2.3057
  113OSM    C6S11752   2.742   3.322  10.409  0.1877 -0.2930 -0.5409
  113OSM    H6S11753   2.734   3.213  10.423  1.2267 -0.3785 -0.4992
  113OSM    H6T11754   2.794   3.353  10.316  0.1678 -1.7596 -1.0597
  113OSM    C7S11755   2.600   3.381  10.411  0.2721 -0.1188  0.3396
  113OSM    H7S11756   2.559   3.358  10.511  1.3915  0.8090  1.0349
  113OSM    H7T11757   2.538   3.320  10.341  3.1334 -1.9479 -0.8193
  113OSM    C8S11758   2.592   3.533  10.389  0.0616 -0.2966 -0.4057
  113OSM    H8S11759   2.672   3.581  10.449 -1.3623  0.4388  0.9831
  113OSM    H8T11760   2.498   3.573  10.433 -0.2272 -1.2159 -0.1665
  113OSM    C9S11761   2.599   3.584  10.243  0.5849  1.2003 -0.3611
  113OSM    H9S11762   2.691   3.530  10.211  1.2506 -0.4355  3.7270
  113OSM    H9T11763   2.605   3.694  10.233 -2.5579  1.2357 -3.5837
  113OSM   C10S11764   2.495   3.542  10.142  0.3830  0.4567  0.6401
  113OSM   H10S11765   2.402   3.601  10.158 -0.4044 -0.7951  0.8243
  113OSM   H10T11766   2.459   3.439  10.164  1.7895 -0.1208  0.3564
  113OSM   C11S11767   2.540   3.549   9.997  0.3256 -0.2242 -0.3649
  113OSM   H11S11768   2.633   3.488   9.990  1.2988  1.3619 -2.1608
  113OSM   H11T11769   2.569   3.651   9.964 -1.8132  0.0573 -1.5141
  113OSM   C12S11770   2.443   3.502   9.893 -0.2814  0.1877  0.4084
  113OSM   H12S11771   2.355   3.571   9.898 -0.6316  0.1658 -2.9822
  113OSM   H12T11772   2.403   3.402   9.920  2.9300 -0.6682  2.4967
  113OSM   C13S11773   2.499   3.484   9.753 -0.3208  0.2394  0.1029
  113OSM   H13S11774   2.589   3.418   9.751  1.2624  2.2854 -1.6761
  113OSM   H13T11775   2.545   3.583   9.728 -0.7161  0.9753  2.0886
  113OSM   C14S11776   2.393   3.446   9.645  0.1939  0.1992  0.3621
  113OSM   H14S11777   2.318   3.527   9.642 -0.5769 -0.4506  1.5832
  113OSM   H14T11778   2.339   3.355   9.679  1.2333  0.1010  1.8198
  113OSM   C15S11779   2.451   3.446   9.500 -0.1558 -0.7047 -0.3807
  113OSM   H15S11780   2.547   3.389   9.505  0.6101  0.4891 -0.8444
  113OSM   H15T11781   2.492   3.548   9.480 -0.2973 -0.4940  0.3749
  113OSM   C16S11782   2.361   3.393   9.389  0.2324 -0.2428  0.3066
  113OSM   H16S11783   2.262   3.443   9.400  0.1051 -0.3902 -0.1387
  113OSM   H16T11784   2.348   3.283   9.393  0.5783 -0.2896  0.1959
  113OSM   C17S11785   2.424   3.423   9.250 -0.4613 -0.8394 -0.3431
  113OSM   H17S11786   2.528   3.385   9.260 -1.0886 -2.0766  2.3392
  113OSM   H17T11787   2.408   3.529   9.221 -0.3562 -1.3936 -2.5604
  113OSM   C18S11788   2.353   3.342   9.143  0.1080  0.0245  0.3143
  113OSM   H18S11789   2.393   3.353   9.040 -1.6471  0.5253 -0.3601
  113OSM   H18T11790   2.243   3.360   9.142 -0.1974 -1.7406 -0.4576
  113OSM   H18U11791   2.368   3.234   9.160  1.1814  0.0342 -0.4754
  113OSM    C1F11792   3.296   3.273  10.607 -0.7245 -0.4781  0.3118
  113OSM     OF11793   3.312   3.157  10.635  0.3591 -0.3719 -1.2690
  113OSM    C2F11794   3.411   3.356  10.557  0.2729  0.0506 -0.1777
  113OSM    H2F11795   3.478   3.385  10.642 -1.3326  2.4654  0.3635
  113OSM    H2G11796   3.365   3.450  10.520 -0.6061 -0.5640 -0.6777
  113OSM    C3F11797   3.486   3.282  10.444 -0.1441  0.0559  0.0716
  113OSM    H3F11798   3.535   3.196  10.493 -0.9880 -0.6162 -0.2319
  113OSM    H3G11799   3.568   3.350  10.412 -1.8481  2.3372  0.2440
  113OSM    C4F11800   3.407   3.236  10.322  0.7019 -0.6159  0.1646
  113OSM    H4F11801   3.346   3.320  10.284  0.9555 -0.3457  0.3535
  113OSM    H4G11802   3.327   3.162  10.345 -0.7795  1.3071  1.5490
  113OSM    C5F11803   3.514   3.168  10.236 -0.1286 -0.3775  0.1683
  113OSM    H5F11804   3.582   3.095  10.284 -1.8115 -2.1777 -0.0626
  113OSM    H5G11805   3.580   3.242  10.186 -1.9370  0.7841 -0.6087
  113OSM    C6F11806   3.442   3.079  10.132 -0.8694 -0.3873  0.4911
  113OSM    H6F11807   3.370   3.019  10.191 -1.8627  0.0986 -0.2065
  113OSM    H6G11808   3.509   2.997  10.096 -0.6181 -0.3671  0.9078
  113OSM    C7F11809   3.353   3.144  10.021 -0.2490  0.5099 -0.0550
  113OSM    H7F11810   3.270   3.205  10.063 -0.1686 -0.3539  1.4099
  113OSM    H7G11811   3.309   3.061   9.962 -1.8935 -1.5840  3.7193
  113OSM    C8F11812   3.431   3.237   9.921  0.4449  0.6179  0.2288
  113OSM    H8F11813   3.484   3.315   9.979  2.5304  0.0695 -0.8115
  113OSM    H8G11814   3.367   3.286   9.845  0.1387 -0.0799  0.0238
  113OSM    C9F11815   3.519   3.155   9.838 -0.2378  0.2214  0.2759
  113OSM    H9F11816   3.615   3.131   9.886 -0.4179  0.4840  0.7776
  113OSM   C10F11817   3.496   3.101   9.716 -0.6357  0.0320 -0.5885
  113OSM   H10F11818   3.580   3.052   9.666 -0.1025  0.3872 -0.0621
  113OSM   C11F11819   3.374   3.122   9.631 -0.1194  0.4763  0.0133
  113OSM   H11F11820   3.298   3.185   9.682 -1.6008  1.0469 -2.6923
  113OSM   H11G11821   3.325   3.029   9.594 -1.2324  0.4124  1.5316
  113OSM   C12F11822   3.396   3.206   9.499 -0.1978  0.4723  0.8825
  113OSM   H12F11823   3.424   3.306   9.537  0.3052  0.1884  1.2651
  113OSM   H12G11824   3.301   3.211   9.442  0.3250 -0.5949 -0.1424
  113OSM   C13F11825   3.508   3.143   9.409  0.0113  0.3452 -0.0333
  113OSM   H13F11826   3.481   3.036   9.400 -0.4774  0.5696 -1.6391
  113OSM   H13G11827   3.610   3.140   9.452  0.1139 -0.4624 -0.3079
  113OSM   C14F11828   3.514   3.216   9.276  0.8398  0.0272 -0.0446
  113OSM   H14F11829   3.569   3.308   9.307  0.2052  0.2998  0.2857
  113OSM   H14G11830   3.410   3.238   9.244  1.6010  1.9035 -1.4167
  113OSM   C15F11831   3.592   3.146   9.167  0.0668 -0.3894  0.8560
  113OSM   H15F11832   3.554   3.042   9.165 -0.9992 -0.0467  1.9061
  113OSM   H15G11833   3.699   3.140   9.197  0.1352 -2.1715  0.3877
  113OSM   C16F11834   3.572   3.211   9.030  0.8273 -0.0498 -0.0319
  113OSM   H16F11835   3.582   3.321   9.020  0.1140  0.3984  2.9978
  113OSM   H16G11836   3.462   3.199   9.019  0.9397 -1.0387 -0.1430
  113OSM   C17F11837   3.630   3.150   8.903  0.8627  0.0916  0.3646
  113OSM   H17F11838   3.589   3.049   8.881  0.4147  0.7733 -2.4305
  113OSM   H17G11839   3.739   3.144   8.924  1.2367  0.0843 -1.4094
  113OSM   C18F11840   3.596   3.247   8.785  0.8594 -0.0290 -0.7399
  113OSM   H18F11841   3.620   3.206   8.684  1.8621  0.9414 -0.9212
  113OSM   H18G11842   3.645   3.346   8.800  1.7762 -0.2663 -1.9632
  113OSM   H18H11843   3.486   3.261   8.794  0.8386 -0.9355  0.6414
  114OSM      N11844   4.798   6.231  11.083 -0.1981 -0.4582  0.2101
  114OSM    C1511845   4.868   6.110  11.129  1.0276 -0.0544 -0.4668
  114OSM   H15A11846   4.954   6.145  11.185 -1.3861  3.3911  1.4787
  114OSM   H15B11847   4.899   6.048  11.047 -1.9072 -0.7971 -1.1164
  114OSM   H15C11848   4.801   6.046  11.184 -0.9380  1.2663 -1.1767
  114OSM    C1411849   4.670   6.194  11.015 -0.1891  0.3372 -0.4846
  114OSM   H14A11850   4.599   6.131  11.066 -0.0295  0.6241  0.0930
  114OSM   H14B11851   4.699   6.130  10.932 -1.1558  0.0283 -0.5987
  114OSM   H14C11852   4.610   6.278  10.984  0.2322  0.7981 -0.0675
  114OSM    C1311853   4.770   6.324  11.199 -0.0896  0.2631  0.9374
  114OSM   H13A11854   4.804   6.424  11.176  0.0228  0.7025  2.8637
  114OSM   H13B11855   4.818   6.299  11.293  1.6687  0.0086  0.0207
  114OSM   H13C11856   4.665   6.314  11.220 -0.6359 -1.9353 -2.2310
  114OSM    C1211857   4.891   6.292  10.977 -0.7733  0.2284  0.4886
  114OSM   H12A11858   4.917   6.227  10.895  2.3118  3.1810 -1.1377
  114OSM   H12B11859   4.987   6.309  11.024  0.4797 -3.2060 -0.4609
  114OSM    C1111860   4.845   6.430  10.920  0.4452  0.1914 -0.1822
  114OSM   H11A11861   4.739   6.435  10.888  0.4251  2.8185  0.0480
  114OSM   H11B11862   4.903   6.454  10.828  2.1725  1.3417  1.1243
  114OSM      P11863   5.019   6.611  11.015 -0.3434 -0.2998 -0.0738
  114OSM    O1311864   5.004   6.758  11.010 -0.1377  0.2829 -0.4363
  114OSM    O1411865   5.090   6.563  11.141 -0.1644  0.2454 -0.5214
  114OSM    O1111866   5.096   6.558  10.888 -0.2879  0.0347  0.1061
  114OSM    O1211867   4.883   6.542  11.008 -0.0011  0.0487 -0.0091
  114OSM    C1S11868   5.120   6.656  10.783  0.1725  0.0919 -0.5871
  114OSM    H1S11869   5.180   6.739  10.826  0.4166 -0.1693 -0.4249
  114OSM    H1T11870   5.022   6.700  10.753  0.0066 -0.1381 -0.3864
  114OSM     NF11871   5.210   6.715  10.563 -0.0643  0.5247  0.0522
  114OSM    HNF11872   5.144   6.730  10.489 -0.5801  0.9306  0.5901
  114OSM    C2S11873   5.191   6.600  10.655 -0.2037  0.5320 -0.3944
  114OSM    H2S11874   5.287   6.554  10.686 -0.6977  0.2805  0.8142
  114OSM    C3S11875   5.106   6.498  10.589  0.3991  0.0854  0.6332
  114OSM    H3S11876   5.007   6.541  10.566  0.7970  0.4842 -0.3953
  114OSM     O311877   5.092   6.376  10.666  0.0040 -0.6502  0.5973
  114OSM    HO311878   5.121   6.407  10.752 -0.5629  0.8890  0.2760
  114OSM    C4S11879   5.151   6.469  10.442  0.3485  0.7977 -0.1533
  114OSM    H4S11880   5.100   6.537  10.372 -3.0773 -2.3785 -1.0401
  114OSM    C5S11881   5.241   6.375  10.395  0.0098  0.4407  0.0894
  114OSM    H5S11882   5.280   6.301  10.467 -0.9458  1.3912  1.6336
  114OSM    C6S11883   5.272   6.356  10.255 -0.1992 -0.3431  0.4955
  114OSM    H6S11884   5.281   6.248  10.233 -0.3141  0.1000 -2.0617
  114OSM    H6T11885   5.373   6.401  10.239  0.0361 -1.2306 -0.6705
  114OSM    C7S11886   5.177   6.422  10.155 -0.6891 -0.2032 -0.2186
  114OSM    H7S11887   5.184   6.533  10.152  0.5397 -0.2190  1.1870
  114OSM    H7T11888   5.072   6.401  10.184 -0.8335  0.2613 -0.3922
  114OSM    C8S11889   5.201   6.371  10.010 -0.3401 -0.5786  0.0316
  114OSM    H8S11890   5.163   6.267  10.002 -1.5405 -0.1218 -0.4317
  114OSM    H8T11891   5.312   6.369   9.998 -0.2407 -0.4743  0.8713
  114OSM    C9S11892   5.131   6.464   9.906  0.0625  0.7261 -0.7441
  114OSM    H9S11893   5.175   6.566   9.910 -1.3702  1.4724 -2.7376
  114OSM    H9T11894   5.023   6.464   9.931 -0.2818  0.2656 -2.1827
  114OSM   C10S11895   5.145   6.412   9.764  0.9941  0.0460  0.1504
  114OSM   H10S11896   5.116   6.306   9.754 -0.7453  0.5672 -0.7187
  114OSM   H10T11897   5.245   6.437   9.721  0.8672  1.9295  0.8686
  114OSM   C11S11898   5.058   6.479   9.654 -0.3882  0.0401 -0.3197
  114OSM   H11S11899   5.104   6.578   9.637  1.1376 -0.7900 -1.2607
  114OSM   H11T11900   4.952   6.486   9.688 -0.5819 -0.2302 -0.8523
  114OSM   C12S11901   5.062   6.403   9.525  0.5003 -0.4506  0.7374
  114OSM   H12S11902   5.003   6.309   9.529 -0.3972 -0.0468 -1.5456
  114OSM   H12T11903   5.169   6.375   9.512  0.2740 -1.2858  0.5750
  114OSM   C13S11904   5.025   6.494   9.411  0.9344 -0.2050 -0.0157
  114OSM   H13S11905   5.100   6.576   9.403 -0.7188  1.3856  0.0162
  114OSM   H13T11906   4.927   6.542   9.431  2.3704  1.4712  3.9377
  114OSM   C14S11907   5.011   6.424   9.270 -0.1587  0.2233  0.0363
  114OSM   H14S11908   5.018   6.500   9.190  0.0469 -0.6370 -0.7787
  114OSM   H14T11909   4.909   6.383   9.259 -0.0064  0.3541 -2.3587
  114OSM   C15S11910   5.115   6.315   9.227 -0.7436  0.0817 -0.3540
  114OSM   H15S11911   5.127   6.225   9.292  1.4190  1.0005  0.6376
  114OSM   H15T11912   5.215   6.362   9.241  0.5772 -2.4073 -0.7063
  114OSM   C16S11913   5.102   6.260   9.084  0.1586 -0.1686 -0.2338
  114OSM   H16S11914   4.994   6.238   9.071 -0.5087 -0.0890  3.8994
  114OSM   H16T11915   5.158   6.164   9.082  0.3769 -0.0426 -2.3865
  114OSM   C17S11916   5.150   6.356   8.986 -0.2791 -0.3770  0.9905
  114OSM   H17S11917   5.251   6.390   9.015 -0.3050 -0.1364  0.8019
  114OSM   H17T11918   5.085   6.446   8.980  1.9112  1.2006 -1.7203
  114OSM   C18S11919   5.152   6.300   8.846  0.1466 -0.1564 -0.0950
  114OSM   H18S11920   5.187   6.374   8.771 -2.1638  2.2763  1.0275
  114OSM   H18T11921   5.059   6.252   8.809 -0.5638  1.1867 -0.1198
  114OSM   H18U11922   5.231   6.223   8.834  0.2919 -0.3566  1.8346
  114OSM    C1F11923   5.306   6.798  10.581 -0.0057  0.5189 -0.0461
  114OSM     OF11924   5.392   6.782  10.665 -0.0537  0.5764 -0.4953
  114OSM    C2F11925   5.300   6.912  10.485 -0.6030 -0.2535  0.1603
  114OSM    H2F11926   5.322   7.005  10.542 -1.2785 -1.4276  2.4711
  114OSM    H2G11927   5.199   6.930  10.442 -1.2152 -0.9298  1.2479
  114OSM    C3F11928   5.409   6.898  10.382  0.1976  0.2424 -0.1672
  114OSM    H3F11929   5.509   6.885  10.428  0.0055 -1.7181 -0.2091
  114OSM    H3G11930   5.397   6.985  10.314 -1.3961 -0.4145 -0.7730
  114OSM    C4F11931   5.380   6.787  10.286  0.6568 -0.1996 -0.2687
  114OSM    H4F11932   5.286   6.822  10.237  1.4596 -1.0835 -2.5700
  114OSM    H4G11933   5.358   6.688  10.330 -1.7070 -0.0148 -0.8542
  114OSM    C5F11934   5.483   6.776  10.176  0.8246  0.3622  0.0787
  114OSM    H5F11935   5.579   6.731  10.208  1.8610  3.1771  1.3159
  114OSM    H5G11936   5.507   6.879  10.142  1.7184  0.2354  0.3037
  114OSM    C6F11937   5.435   6.681  10.062 -0.9025  0.2799  0.0821
  114OSM    H6F11938   5.362   6.721   9.988 -0.7296 -1.6151 -1.1693
  114OSM    H6G11939   5.397   6.588  10.109 -0.1834 -1.2942 -2.2523
  114OSM    C7F11940   5.553   6.626   9.990 -0.0446 -0.0901 -0.5150
  114OSM    H7F11941   5.575   6.536  10.052 -1.6636  1.1756  2.0804
  114OSM    H7G11942   5.641   6.694   9.983 -0.1216  0.2418  1.2472
  114OSM    C8F11943   5.523   6.585   9.844 -0.9466 -0.5437 -0.1596
  114OSM    H8F11944   5.430   6.524   9.831 -0.5766 -1.0190 -0.6354
  114OSM    H8G11945   5.604   6.518   9.808  0.1878  1.0625 -0.7254
  114OSM    C9F11946   5.517   6.697   9.738  0.2319 -0.1622  0.7127
  114OSM    H9F11947   5.478   6.793   9.772 -0.5910  1.0308 -3.0948
  114OSM   C10F11948   5.531   6.675   9.605  0.6728 -0.0201  0.2919
  114OSM   H10F11949   5.517   6.766   9.544 -1.7626 -0.5711 -0.0832
  114OSM   C11F11950   5.560   6.547   9.525  0.5214  0.3529 -0.5097
  114OSM   H11F11951   5.590   6.463   9.590  0.5835  0.7694  0.0080
  114OSM   H11G11952   5.656   6.571   9.474 -0.1814  1.3160 -1.4528
  114OSM   C12F11953   5.450   6.519   9.421  0.2688 -0.2592 -0.2271
  114OSM   H12F11954   5.349   6.518   9.467  0.1294  0.0639 -0.5182
  114OSM   H12G11955   5.461   6.417   9.377 -2.3047 -0.1489 -1.3376
  114OSM   C13F11956   5.448   6.619   9.310  0.0308  0.7359  0.9685
  114OSM   H13F11957   5.547   6.643   9.265 -0.0012  1.6673  1.3681
  114OSM   H13G11958   5.409   6.711   9.359 -1.8545  0.7850 -0.4954
  114OSM   C14F11959   5.355   6.587   9.194  0.2960 -0.1073 -0.0381
  114OSM   H14F11960   5.252   6.585   9.236 -0.6586 -1.1638 -2.2640
  114OSM   H14G11961   5.387   6.486   9.160 -2.9901 -1.9716  1.8083
  114OSM   C15F11962   5.358   6.700   9.089 -0.9421  0.4926  0.4783
  114OSM   H15F11963   5.382   6.797   9.137  0.8786 -0.0771  0.8049
  114OSM   H15G11964   5.254   6.706   9.052 -0.5834 -0.5495 -0.7847
  114OSM   C16F11965   5.441   6.670   8.965 -0.4605 -0.5265 -0.3764
  114OSM   H16F11966   5.382   6.727   8.890 -2.3360 -0.2070  1.2368
  114OSM   H16G11967   5.437   6.564   8.932 -0.1903 -0.9777  0.9493
  114OSM   C17F11968   5.586   6.715   8.972  0.0469  0.0164 -0.3106
  114OSM   H17F11969   5.635   6.645   9.042 -0.0434 -1.0338 -1.2778
  114OSM   H17G11970   5.594   6.815   9.021 -2.1218  0.6904 -1.1891
  114OSM   C18F11971   5.655   6.712   8.834 -0.2741  0.2337  0.1958
  114OSM   H18F11972   5.764   6.734   8.835 -0.1594 -0.3378  0.4421
  114OSM   H18G11973   5.605   6.780   8.762  1.1687  2.1823  0.9275
  114OSM   H18H11974   5.640   6.611   8.791  1.6420  1.4340 -3.8887
  115OSM      N11975   3.576   4.359  10.774 -0.2032 -0.7321  0.0193
  115OSM    C1511976   3.660   4.476  10.822  0.2696  0.2065  0.2823
  115OSM   H15A11977   3.623   4.514  10.916  0.1378 -2.7822  1.5578
  115OSM   H15B11978   3.689   4.543  10.743 -0.5707 -1.6490 -1.6954
  115OSM   H15C11979   3.754   4.431  10.849  1.5604  2.2627 -0.6242
  115OSM    C1411980   3.452   4.421  10.720 -0.6667 -0.1007 -0.1168
  115OSM   H14A11981   3.387   4.461  10.797 -1.4268  0.6599 -1.1322
  115OSM   H14B11982   3.383   4.351  10.675  0.3849 -1.3871  0.1770
  115OSM   H14C11983   3.479   4.485  10.638 -2.7924 -0.9211 -1.5564
  115OSM    C1311984   3.646   4.282  10.669  0.3960  0.3594  0.0649
  115OSM   H13A11985   3.743   4.251  10.705 -1.0517  0.0135  4.1899
  115OSM   H13B11986   3.663   4.345  10.583  0.3467  0.4054  0.0900
  115OSM   H13C11987   3.595   4.192  10.638 -1.3290  0.8055  1.4791
  115OSM    C1211988   3.539   4.265  10.888 -0.2684  0.1757  0.5535
  115OSM   H12A11989   3.629   4.216  10.922 -0.2819 -0.4487 -0.2741
  115OSM   H12B11990   3.491   4.180  10.841 -0.5724 -1.0534  2.9214
  115OSM    C1111991   3.446   4.304  11.007 -0.2956 -0.4305  0.1948
  115OSM   H11A11992   3.489   4.395  11.054 -0.3657 -0.7882  0.9741
  115OSM   H11B11993   3.453   4.227  11.087  0.0194 -0.9361 -0.3103
  115OSM      P11994   3.211   4.207  10.946 -0.2700  0.3116  0.3052
  115OSM    O1311995   3.262   4.116  10.840 -0.3126 -0.6419  0.3068
  115OSM    O1411996   3.192   4.144  11.079 -0.0925  0.3209  0.4300
  115OSM    O1111997   3.077   4.276  10.910 -0.1812  0.0724 -0.0114
  115OSM    O1211998   3.309   4.336  10.956 -0.1003 -0.1584  0.0148
  115OSM    C1S11999   3.062   4.363  10.804  0.0723 -0.3726  0.0132
  115OSM    H1S12000   3.164   4.401  10.782 -0.2066  0.6211  0.3866
  115OSM    H1T12001   2.995   4.448  10.829  2.1497  2.0272 -1.9901
  115OSM     NF12002   3.010   4.408  10.572 -0.1303  0.5151  0.0435
  115OSM    HNF12003   2.925   4.458  10.561  0.0896  0.5345 -1.8729
  115OSM    C2S12004   3.011   4.304  10.668  0.5839 -0.1392  0.1078
  115OSM    H2S12005   3.085   4.227  10.636  0.4552  0.0137 -0.5854
  115OSM    C3S12006   2.874   4.239  10.693  0.2575  0.8476 -0.4793
  115OSM    H3S12007   2.791   4.307  10.724 -0.3098 -0.8845  2.0696
  115OSM     O312008   2.883   4.148  10.798  0.3976  0.3477  0.2085
  115OSM    HO312009   2.957   4.181  10.849  0.3349 -0.4724  0.8516
  115OSM    C4S12010   2.831   4.164  10.566  0.0661  0.1856 -0.4729
  115OSM    H4S12011   2.870   4.061  10.567 -3.6321 -1.3693  1.4666
  115OSM    C5S12012   2.760   4.206  10.462 -0.5064 -0.3032  0.1046
  115OSM    H5S12013   2.704   4.300  10.474 -0.4352 -0.0723 -1.2113
  115OSM    C6S12014   2.724   4.116  10.343  0.0814  0.4242 -0.0506
  115OSM    H6S12015   2.647   4.044  10.378  1.0979  0.5030  2.5298
  115OSM    H6T12016   2.812   4.052  10.320  1.2275  1.2693  1.7954
  115OSM    C7S12017   2.676   4.192  10.216  0.4844  0.0009 -0.4808
  115OSM    H7S12018   2.575   4.231  10.244 -0.5853 -2.8028 -0.0935
  115OSM    H7T12019   2.663   4.128  10.126  1.8862 -1.1406  0.1066
  115OSM    C8S12020   2.763   4.314  10.179 -0.0204  0.4290  0.3407
  115OSM    H8S12021   2.871   4.290  10.187 -0.3212 -1.9051 -1.7462
  115OSM    H8T12022   2.743   4.394  10.254  0.0981  1.3448 -0.5868
  115OSM    C9S12023   2.716   4.385  10.044 -0.1491  0.7642 -0.7253
  115OSM    H9S12024   2.786   4.472  10.045  0.1577  0.6666  2.9374
  115OSM    H9T12025   2.617   4.434  10.051  0.2917  1.4764  1.0073
  115OSM   C10S12026   2.726   4.285   9.927 -0.1583  1.0171 -0.4623
  115OSM   H10S12027   2.627   4.234   9.932  0.2052  0.3930  0.6603
  115OSM   H10T12028   2.796   4.200   9.930  0.4085  1.4344 -1.3546
  115OSM   C11S12029   2.733   4.363   9.792  0.6598  0.4443 -0.1105
  115OSM   H11S12030   2.837   4.401   9.784  0.8907  0.1633  1.2831
  115OSM   H11T12031   2.673   4.454   9.813  0.6586  0.2089  0.9344
  115OSM   C12S12032   2.692   4.276   9.674  0.2617 -0.5724  0.3782
  115OSM   H12S12033   2.601   4.218   9.699 -0.6928  0.3808 -0.7084
  115OSM   H12T12034   2.778   4.207   9.660  1.4728  1.0290 -0.4337
  115OSM   C13S12035   2.658   4.352   9.546  0.1977  0.3760 -0.3253
  115OSM   H13S12036   2.725   4.438   9.525 -1.6552  1.5402 -1.8850
  115OSM   H13T12037   2.560   4.403   9.552  0.2811  0.3873  1.5118
  115OSM   C14S12038   2.678   4.246   9.436 -0.3939 -0.1836  0.1946
  115OSM   H14S12039   2.608   4.163   9.463 -0.0679 -0.0547  1.5165
  115OSM   H14T12040   2.780   4.204   9.441  0.6347  2.2950  1.8014
  115OSM   C15S12041   2.662   4.292   9.292 -0.3047  0.0734  0.8072
  115OSM   H15S12042   2.666   4.218   9.209 -1.5714  3.0094 -2.1062
  115OSM   H15T12043   2.750   4.359   9.279  0.3921 -0.9030  0.4265
  115OSM   C16S12044   2.529   4.361   9.265 -0.5358  0.3800  0.3586
  115OSM   H16S12045   2.522   4.455   9.325  0.0285 -0.2053  1.3808
  115OSM   H16T12046   2.452   4.286   9.293  0.9066 -1.4468 -0.3633
  115OSM   C17S12047   2.501   4.398   9.117  0.0282 -0.5169 -0.4847
  115OSM   H17S12048   2.569   4.478   9.079  0.2823 -0.8745 -0.8032
  115OSM   H17T12049   2.405   4.454   9.112 -0.2204 -0.7830  0.9491
  115OSM   C18S12050   2.491   4.289   9.009 -0.1220  0.1955 -0.5959
  115OSM   H18S12051   2.591   4.241   9.011  2.2852  4.4954  3.5314
  115OSM   H18T12052   2.473   4.322   8.904 -2.4299  1.5727  0.1690
  115OSM   H18U12053   2.420   4.214   9.051 -1.4064  3.1911  3.1002
  115OSM    C1F12054   3.121   4.452  10.508  0.0571 -0.2143  0.0582
  115OSM     OF12055   3.226   4.386  10.525 -0.1616 -0.4640 -0.2171
  115OSM    C2F12056   3.112   4.567  10.416 -0.2555  0.5251  0.1139
  115OSM    H2F12057   3.053   4.643  10.473 -0.1030 -0.0394  1.0322
  115OSM    H2G12058   3.036   4.528  10.345 -1.4027  1.4598  0.7817
  115OSM    C3F12059   3.244   4.632  10.362  0.3496  0.2010 -0.5617
  115OSM    H3F12060   3.309   4.559  10.309  0.3523  1.5725 -2.5386
  115OSM    H3G12061   3.293   4.672  10.453 -0.3114 -1.4437  0.5743
  115OSM    C4F12062   3.219   4.746  10.262  0.1201 -0.0318 -0.0400
  115OSM    H4F12063   3.315   4.786  10.225 -0.5848 -0.0839 -1.9975
  115OSM    H4G12064   3.178   4.831  10.321 -1.9403 -0.5726 -0.6352
  115OSM    C5F12065   3.121   4.712  10.156  0.5626 -0.1732 -0.7703
  115OSM    H5F12066   3.019   4.706  10.201  0.1486 -0.8295 -1.7765
  115OSM    H5G12067   3.142   4.608  10.122  0.3354 -1.3598  2.3660
  115OSM    C6F12068   3.112   4.799  10.034  0.2934  0.3304 -0.4513
  115OSM    H6F12069   3.217   4.813   9.998  1.1580 -2.9198  0.4999
  115OSM    H6G12070   3.084   4.903  10.061 -0.5400  0.1454 -0.5710
  115OSM    C7F12071   3.006   4.752   9.929  0.8082  0.7986  0.7770
  115OSM    H7F12072   2.978   4.836   9.862  2.4305  0.5710 -0.2428
  115OSM    H7G12073   2.924   4.703   9.985  2.5839 -1.5114  1.5631
  115OSM    C8F12074   3.052   4.635   9.835  0.1853 -0.0581  0.2358
  115OSM    H8F12075   2.965   4.591   9.782  0.3505 -0.7388  0.5175
  115OSM    H8G12076   3.082   4.554   9.905  2.9312  0.7867  0.1476
  115OSM    C9F12077   3.166   4.667   9.742  0.3940 -0.1011 -0.3355
  115OSM    H9F12078   3.256   4.695   9.799  0.7376  0.7998 -1.2921
  115OSM   C10F12079   3.163   4.674   9.607  0.8386 -0.6624 -0.1046
  115OSM   H10F12080   3.246   4.719   9.551 -0.3448  1.9391  0.0753
  115OSM   C11F12081   3.043   4.650   9.519 -0.3196 -0.0340 -0.3188
  115OSM   H11F12082   2.987   4.560   9.554 -0.0898  0.0174  0.1845
  115OSM   H11G12083   3.069   4.621   9.414  0.0299 -1.4709  0.1337
  115OSM   C12F12084   2.959   4.774   9.530  0.6446  0.4835  0.2998
  115OSM   H12F12085   3.012   4.866   9.499  1.4361  0.4812  1.5829
  115OSM   H12G12086   2.929   4.789   9.636 -1.5752  0.0210 -0.2028
  115OSM   C13F12087   2.824   4.755   9.456  0.1746 -0.0902  0.5305
  115OSM   H13F12088   2.756   4.830   9.503 -0.3111 -0.7371  0.8788
  115OSM   H13G12089   2.790   4.651   9.474  1.3529 -0.3957  1.0834
  115OSM   C14F12090   2.831   4.787   9.302  0.0386  0.5182 -0.2836
  115OSM   H14F12091   2.919   4.740   9.254  0.9886  1.6892  0.2503
  115OSM   H14G12092   2.847   4.896   9.292 -1.2856  0.6511 -1.0555
  115OSM   C15F12093   2.710   4.745   9.215 -0.5756  0.2081 -0.2203
  115OSM   H15F12094   2.699   4.635   9.208  1.0110  0.0998 -1.9496
  115OSM   H15G12095   2.716   4.768   9.106  0.8123  0.9821 -0.0020
  115OSM   C16F12096   2.573   4.804   9.270 -0.1646  0.0970 -0.4728
  115OSM   H16F12097   2.579   4.915   9.269  1.1152  0.1642  2.5340
  115OSM   H16G12098   2.562   4.782   9.379  0.5491  2.7763  0.2129
  115OSM   C17F12099   2.439   4.765   9.194 -0.6965 -0.7194  0.2144
  115OSM   H17F12100   2.347   4.784   9.254 -0.4498  0.0082  0.3833
  115OSM   H17G12101   2.437   4.655   9.185  0.5814 -0.8110  0.9146
  115OSM   C18F12102   2.427   4.831   9.052  0.2269  0.0393  0.0580
  115OSM   H18F12103   2.350   4.772   8.998  0.1408  0.0064  0.2159
  115OSM   H18G12104   2.519   4.821   8.990  0.3868 -0.0266  0.3032
  115OSM   H18H12105   2.386   4.934   9.057 -1.9388 -0.3405 -4.7764
  116OSM      N12106   5.258   1.729  10.998  0.2342 -0.4392  0.4094
  116OSM    C1512107   5.344   1.710  11.120 -0.2320 -0.5382 -0.4414
  116OSM   H15A12108   5.369   1.605  11.131 -1.1004 -0.5300  2.6659
  116OSM   H15B12109   5.285   1.741  11.205  0.7119  1.7924 -0.5865
  116OSM   H15C12110   5.432   1.771  11.112 -0.4587 -0.4262 -5.2480
  116OSM    C1412111   5.139   1.643  11.011  0.1516  0.1910  0.0499
  116OSM   H14A12112   5.163   1.538  11.008 -1.1168 -0.0861 -1.2329
  116OSM   H14B12113   5.065   1.664  10.936  1.4937  0.3237 -1.2937
  116OSM   H14C12114   5.097   1.654  11.110  1.3734  2.1193  0.4194
  116OSM    C1312115   5.208   1.867  11.003  0.1740 -0.0798 -0.2055
  116OSM   H13A12116   5.288   1.938  11.020  1.5797 -1.2172 -1.6461
  116OSM   H13B12117   5.134   1.875  11.081  0.1929 -2.0248  0.0690
  116OSM   H13C12118   5.152   1.895  10.915  0.9597 -0.0467 -0.7106
  116OSM    C1212119   5.319   1.701  10.865 -0.4697  0.1276  0.3497
  116OSM   H12A12120   5.413   1.754  10.853 -0.2157 -0.6434 -1.3142
  116OSM   H12B12121   5.256   1.750  10.792  0.7918 -3.4847 -3.5941
  116OSM    C1112122   5.350   1.560  10.819  0.2917 -0.2429 -0.0563
  116OSM   H11A12123   5.342   1.561  10.708 -2.4411  0.3158  0.0595
  116OSM   H11B12124   5.270   1.495  10.860 -0.6242  1.6634  1.3519
  116OSM      P12125   5.539   1.377  10.831 -0.0803  0.4482  0.0569
  116OSM    O1312126   5.662   1.351  10.914  0.5248  0.4131  0.3530
  116OSM    O1412127   5.437   1.272  10.833 -0.6072 -0.1093  0.0129
  116OSM    O1112128   5.592   1.396  10.691 -0.1303 -0.1211  0.5184
  116OSM    O1212129   5.473   1.514  10.870 -0.7168  0.2792 -0.3498
  116OSM    C1S12130   5.669   1.510  10.644  0.0835  0.8644 -0.7154
  116OSM    H1S12131   5.769   1.507  10.692 -0.1594 -3.2618 -0.1281
  116OSM    H1T12132   5.626   1.606  10.679 -0.3242  0.2031  0.6986
  116OSM     NF12133   5.767   1.626  10.448  0.6497 -0.5096  0.4967
  116OSM    HNF12134   5.716   1.711  10.435  1.7495  0.0339 -0.4487
  116OSM    C2S12135   5.679   1.513  10.491  1.0006 -0.5777  0.1875
  116OSM    H2S12136   5.731   1.427  10.442  1.1814 -0.2468 -0.2032
  116OSM    C3S12137   5.532   1.524  10.439 -0.1833  0.2762 -0.2871
  116OSM    H3S12138   5.505   1.629  10.461 -0.0133  0.3817 -0.5795
  116OSM     O312139   5.440   1.429  10.499  0.0912 -0.0612  0.3353
  116OSM    HO312140   5.501   1.397  10.565  1.8355  0.0482 -1.1295
  116OSM    C4S12141   5.523   1.510  10.290  0.6085  0.3138 -0.7337
  116OSM    H4S12142   5.536   1.407  10.253  2.0527 -0.1504  0.9370
  116OSM    C5S12143   5.509   1.607  10.196 -0.0477 -0.0622 -0.1800
  116OSM    H5S12144   5.515   1.711  10.233 -1.9485  0.4214 -1.1000
  116OSM    C6S12145   5.496   1.597  10.049 -0.4567  0.8607  0.0410
  116OSM    H6S12146   5.397   1.636  10.017 -0.8529  0.6280  0.9529
  116OSM    H6T12147   5.510   1.493  10.013 -1.1877  0.7165  0.1580
  116OSM    C7S12148   5.602   1.675   9.974  0.4924  0.4948  0.0539
  116OSM    H7S12149   5.696   1.637  10.019 -0.0936 -1.6697 -0.4040
  116OSM    H7T12150   5.578   1.783   9.979  1.8582  0.8380 -0.2874
  116OSM    C8S12151   5.616   1.628   9.827  0.3701 -0.1398  0.2436
  116OSM    H8S12152   5.621   1.517   9.817  0.3501 -0.0507 -0.8946
  116OSM    H8T12153   5.705   1.680   9.786  1.0898 -1.1910  0.4245
  116OSM    C9S12154   5.501   1.666   9.739 -0.1194  0.0440 -0.5484
  116OSM    H9S12155   5.509   1.774   9.715 -0.6406 -0.3782 -2.7793
  116OSM    H9T12156   5.403   1.638   9.785 -0.5808 -0.9761 -2.1016
  116OSM   C10S12157   5.527   1.593   9.607 -0.0290  0.4340  0.1082
  116OSM   H10S12158   5.517   1.484   9.625  3.0441 -0.0678 -0.7486
  116OSM   H10T12159   5.631   1.605   9.570 -0.0007 -0.2008 -0.0328
  116OSM   C11S12160   5.427   1.641   9.504  0.2611 -0.1203 -0.1423
  116OSM   H11S12161   5.434   1.751   9.490 -3.3984  0.1932 -0.4205
  116OSM   H11T12162   5.322   1.620   9.535  0.4419 -2.6212 -0.9789
  116OSM   C12S12163   5.460   1.589   9.362  0.1620  0.2619  0.2853
  116OSM   H12S12164   5.436   1.481   9.362  2.6323 -0.3479  0.1514
  116OSM   H12T12165   5.569   1.601   9.343  0.2530 -0.1851  0.5072
  116OSM   C13S12166   5.365   1.658   9.267  0.2688  0.2080 -0.3495
  116OSM   H13S12167   5.374   1.768   9.281  0.3233 -0.1649  3.5188
  116OSM   H13T12168   5.263   1.634   9.305  1.1433 -2.0158  0.7244
  116OSM   C14S12169   5.363   1.614   9.119  0.2861  0.3470 -0.1283
  116OSM   H14S12170   5.334   1.507   9.115 -1.9699  0.8827  0.5037
  116OSM   H14T12171   5.470   1.625   9.091  0.3635  0.6284  0.2735
  116OSM   C15S12172   5.257   1.679   9.022 -0.0869 -0.1717 -0.2564
  116OSM   H15S12173   5.287   1.782   8.992 -0.6468  0.5432  1.5070
  116OSM   H15T12174   5.154   1.692   9.063 -0.7710 -0.2045 -1.8816
  116OSM   C16S12175   5.233   1.600   8.890  0.9188  0.5943  0.3012
  116OSM   H16S12176   5.214   1.493   8.913 -2.3091  1.1392  0.6302
  116OSM   H16T12177   5.323   1.597   8.825 -0.8252  2.2636 -2.4069
  116OSM   C17S12178   5.122   1.655   8.800 -0.3118 -0.4709 -0.0555
  116OSM   H17S12179   5.127   1.599   8.704  0.4472 -0.3086 -0.1139
  116OSM   H17T12180   5.156   1.757   8.772 -0.6804 -0.4439 -0.4140
  116OSM   C18S12181   4.982   1.663   8.864 -0.2018  0.7574  0.0496
  116OSM   H18S12182   4.990   1.725   8.957  2.9478  1.5537 -0.6143
  116OSM   H18T12183   4.933   1.566   8.885  3.1197 -0.8394  1.0433
  116OSM   H18U12184   4.918   1.710   8.787 -0.4441  1.7717  0.8357
  116OSM    C1F12185   5.897   1.628  10.457  0.2993  0.1490 -0.2332
  116OSM     OF12186   5.952   1.525  10.498  0.1099  0.6247 -0.0645
  116OSM    C2F12187   5.969   1.756  10.427  0.4235 -0.4890  0.6502
  116OSM    H2F12188   6.000   1.803  10.523 -0.4274  1.3239  0.0984
  116OSM    H2G12189   5.897   1.829  10.383 -0.3462 -1.8498 -0.4307
  116OSM    C3F12190   6.094   1.746  10.336 -0.0519  0.9362 -0.2825
  116OSM    H3F12191   6.155   1.663  10.377 -0.6153  0.6869  0.0655
  116OSM    H3G12192   6.148   1.843  10.331 -1.6644  1.7962 -3.1494
  116OSM    C4F12193   6.055   1.699  10.189  0.2074 -0.0211  0.5712
  116OSM    H4F12194   6.015   1.785  10.131  0.9192  1.1390  1.7456
  116OSM    H4G12195   5.981   1.617  10.188  0.9124 -0.6703  0.2776
  116OSM    C5F12196   6.184   1.646  10.110 -1.0681  0.5566 -0.1063
  116OSM    H5F12197   6.221   1.557  10.164  1.0053  0.9399 -0.7842
  116OSM    H5G12198   6.265   1.720  10.125  0.9171 -1.5458  0.0981
  116OSM    C6F12199   6.152   1.616   9.963 -0.6733  0.0785 -0.4558
  116OSM    H6F12200   6.168   1.708   9.903  1.9666 -0.0586 -0.0996
  116OSM    H6G12201   6.048   1.578   9.958 -1.4591  2.1230 -0.5767
  116OSM    C7F12202   6.246   1.502   9.914 -1.0739 -0.7737  0.5270
  116OSM    H7F12203   6.240   1.406   9.969  1.5691 -1.1400  0.3419
  116OSM    H7G12204   6.349   1.540   9.932 -0.4055 -2.1953 -0.1227
  116OSM    C8F12205   6.229   1.474   9.762 -0.2409  0.2127  0.3128
  116OSM    H8F12206   6.305   1.394   9.749 -2.1310 -1.2002 -3.7617
  116OSM    H8G12207   6.257   1.562   9.701  3.2958 -1.2567 -0.4481
  116OSM    C9F12208   6.106   1.399   9.737  0.2112  0.4646  0.4951
  116OSM    H9F12209   6.102   1.293   9.764 -0.6199  0.5705  0.8255
  116OSM   C10F12210   5.994   1.458   9.688  0.2662  0.1705  0.0122
  116OSM   H10F12211   5.904   1.401   9.664  1.0417 -0.8176 -0.6513
  116OSM   C11F12212   5.973   1.610   9.665  0.1445 -0.2474  0.4742
  116OSM   H11F12213   6.071   1.661   9.679  0.5658 -0.0474 -2.5512
  116OSM   H11G12214   5.897   1.642   9.739  0.3054 -0.6772  0.8384
  116OSM   C12F12215   5.933   1.655   9.521 -0.2431  0.0473 -0.2099
  116OSM   H12F12216   5.916   1.764   9.530  1.3398  0.5866 -2.6069
  116OSM   H12G12217   5.839   1.600   9.499 -1.4361  2.3642 -1.2790
  116OSM   C13F12218   6.044   1.618   9.423 -0.2546  0.2216  0.5971
  116OSM   H13F12219   6.031   1.508   9.417  3.8952 -0.3262 -1.5243
  116OSM   H13G12220   6.147   1.640   9.457  0.7719  1.7036 -3.0082
  116OSM   C14F12221   6.028   1.684   9.281  0.9590 -0.2823  0.2787
  116OSM   H14F12222   6.098   1.632   9.213 -0.1487 -1.3776 -0.0735
  116OSM   H14G12223   6.047   1.793   9.285  0.9418 -0.2297 -0.9129
  116OSM   C15F12224   5.887   1.674   9.221  0.3955  0.0082  0.0856
  116OSM   H15F12225   5.823   1.742   9.280 -0.4941 -1.7059  1.1819
  116OSM   H15G12226   5.869   1.566   9.239  1.2798 -0.2834 -0.6743
  116OSM   C16F12227   5.886   1.705   9.074  0.2605 -0.0043 -0.4406
  116OSM   H16F12228   5.962   1.636   9.032  0.3406  0.1883 -0.6140
  116OSM   H16G12229   5.910   1.809   9.043 -0.8331  0.0381 -1.2191
  116OSM   C17F12230   5.754   1.648   9.013 -0.7179  0.2181 -0.0530
  116OSM   H17F12231   5.671   1.716   9.045  1.0763  0.5504  4.5785
  116OSM   H17G12232   5.741   1.542   9.043 -1.7219  0.3182 -0.0908
  116OSM   C18F12233   5.775   1.639   8.860 -0.1305  0.1717  0.8214
  116OSM   H18F12234   5.681   1.637   8.801  0.8833 -1.7370 -0.8982
  116OSM   H18G12235   5.826   1.545   8.828 -1.8168 -0.4413 -0.2230
  116OSM   H18H12236   5.839   1.721   8.820  1.5612 -0.6490  1.7071
  117OSM      N12237   4.173   1.992  11.201 -0.1998  0.7660  0.8765
  117OSM    C1512238   4.208   1.864  11.266 -0.7663 -0.4585 -0.5286
  117OSM   H15A12239   4.250   1.885  11.363  2.4730  1.2774 -2.1306
  117OSM   H15B12240   4.276   1.797  11.216 -0.1181 -0.2827  0.1060
  117OSM   H15C12241   4.118   1.804  11.264 -1.1931  0.1506 -2.3090
  117OSM    C1412242   4.126   2.100  11.300  0.0525 -0.0508 -0.4838
  117OSM   H14A12243   4.035   2.067  11.348 -0.1668 -1.8128 -1.9980
  117OSM   H14B12244   4.105   2.194  11.251 -2.4308 -0.7372 -0.8477
  117OSM   H14C12245   4.208   2.116  11.369  0.1104  2.7092 -1.0888
  117OSM    C1312246   4.303   2.044  11.139 -0.6733  0.1531  0.4611
  117OSM   H13A12247   4.278   2.125  11.072 -1.3208  0.5609  1.1876
  117OSM   H13B12248   4.350   1.973  11.072 -0.9494  2.4945 -2.3821
  117OSM   H13C12249   4.364   2.095  11.212  0.3560  1.2125 -1.0655
  117OSM    C1212250   4.080   1.968  11.083 -0.1962 -0.1799  0.0270
  117OSM   H12A12251   4.121   1.894  11.016  0.6830  2.7832 -2.9085
  117OSM   H12B12252   4.073   2.058  11.024 -1.1223 -0.9412 -1.0776
  117OSM    C1112253   3.937   1.932  11.125  0.2443  0.3695 -0.3262
  117OSM   H11A12254   3.878   1.936  11.031  1.1589  3.1592 -0.8831
  117OSM   H11B12255   3.899   2.015  11.188 -0.1733  0.6830 -0.9792
  117OSM      P12256   3.926   1.673  11.100 -0.1126  0.2372  0.0467
  117OSM    O1312257   4.020   1.576  11.166  0.6308 -0.2513  0.3040
  117OSM    O1412258   3.788   1.625  11.083  0.2985 -0.0362  0.1441
  117OSM    O1112259   3.993   1.721  10.961  0.1521  0.1051  0.4116
  117OSM    O1212260   3.926   1.800  11.193 -0.0154  0.4048 -0.1893
  117OSM    C1S12261   4.032   1.609  10.878 -0.8059  0.5230 -0.0027
  117OSM    H1S12262   3.962   1.522  10.880  1.7832 -1.7209 -1.2959
  117OSM    H1T12263   4.128   1.566  10.915 -0.4850  2.0028  0.9782
  117OSM     NF12264   4.078   1.530  10.651 -0.3587  0.1534  0.2313
  117OSM    HNF12265   4.164   1.549  10.606 -1.2777 -0.5659 -1.9591
  117OSM    C2S12266   4.040   1.647  10.733  0.8107 -0.1158  0.3126
  117OSM    H2S12267   3.938   1.680  10.706  0.7820 -1.7733 -1.8905
  117OSM    C3S12268   4.131   1.771  10.705  0.4266 -0.4865 -0.0508
  117OSM    H3S12269   4.232   1.730  10.723 -0.1235 -2.4995 -1.2598
  117OSM     O312270   4.113   1.889  10.786  0.6179 -0.3339 -0.3483
  117OSM    HO312271   4.043   1.852  10.841 -1.0707 -1.4715 -3.0992
  117OSM    C4S12272   4.124   1.815  10.555  0.3251  0.4619 -0.3714
  117OSM    H4S12273   4.175   1.749  10.484  1.7661  2.0516 -0.8496
  117OSM    C5S12274   4.066   1.928  10.502  0.2498 -0.2603 -0.7355
  117OSM    H5S12275   4.012   1.992  10.573  1.6805 -1.3826  1.4855
  117OSM    C6S12276   4.071   1.971  10.362  0.8077 -0.2098 -0.4103
  117OSM    H6S12277   4.093   2.079  10.352  0.9072 -0.0686  1.1161
  117OSM    H6T12278   3.968   1.962  10.320  0.6872 -0.5530 -0.0478
  117OSM    C7S12279   4.146   1.883  10.255  0.0682  0.4063  0.2515
  117OSM    H7S12280   4.100   1.783  10.265  0.2355  0.0356 -2.1164
  117OSM    H7T12281   4.254   1.874  10.280  0.5485  1.3860 -1.2565
  117OSM    C8S12282   4.125   1.950  10.123  0.0641 -0.1484 -0.2520
  117OSM    H8S12283   4.154   2.056  10.137  3.8357 -1.1360  0.4040
  117OSM    H8T12284   4.017   1.944  10.095 -0.8335  1.0701  2.5725
  117OSM    C9S12285   4.194   1.881  10.013 -0.0545  0.7709 -0.2600
  117OSM    H9S12286   4.154   1.778  10.009  0.0602  0.7582 -1.7239
  117OSM    H9T12287   4.301   1.864  10.037 -0.3199 -1.9950 -0.7663
  117OSM   C10S12288   4.178   1.952   9.879 -0.3934  0.6975  0.4423
  117OSM   H10S12289   4.193   2.059   9.908 -2.0078  1.7776 -2.2880
  117OSM   H10T12290   4.076   1.942   9.838  0.3291  2.2484 -1.9772
  117OSM   C11S12291   4.287   1.916   9.775 -0.2166 -0.0048  0.3321
  117OSM   H11S12292   4.262   1.814   9.739 -2.3036  0.4839  0.2703
  117OSM   H11T12293   4.383   1.915   9.830 -1.1430 -1.0036  2.0410
  117OSM   C12S12294   4.290   2.009   9.653  0.0346 -0.3471  0.2284
  117OSM   H12S12295   4.300   2.109   9.698  0.2994 -0.4418  0.3855
  117OSM   H12T12296   4.200   2.019   9.589  1.0953  3.0096 -0.9761
  117OSM   C13S12297   4.414   1.966   9.570 -0.4103 -0.1859 -0.7415
  117OSM   H13S12298   4.429   1.857   9.555  2.1921 -0.1675  1.1408
  117OSM   H13T12299   4.494   1.984   9.645 -0.5566  0.5762 -0.7563
  117OSM   C14S12300   4.443   2.033   9.445  0.6597  0.2936  0.1541
  117OSM   H14S12301   4.437   2.143   9.465  2.4053  0.3506  0.4875
  117OSM   H14T12302   4.366   1.999   9.373  0.8674 -1.6191  0.7725
  117OSM   C15S12303   4.573   1.994   9.383  0.6315 -0.2820  0.2886
  117OSM   H15S12304   4.570   1.886   9.357 -1.3896  0.1276 -1.4824
  117OSM   H15T12305   4.650   2.006   9.462  1.2765  1.8159 -0.5677
  117OSM   C16S12306   4.606   2.077   9.258 -0.3016  0.2050  0.3123
  117OSM   H16S12307   4.713   2.058   9.238 -0.2711 -0.5272  1.1176
  117OSM   H16T12308   4.588   2.186   9.266  2.2384  0.9131 -2.0665
  117OSM   C17S12309   4.527   2.026   9.132  0.0490  0.2272  0.7885
  117OSM   H17S12310   4.570   2.068   9.039 -2.0384  0.5115 -0.0900
  117OSM   H17T12311   4.420   2.054   9.141  0.0583 -0.0596  1.9253
  117OSM   C18S12312   4.542   1.869   9.108 -0.5928 -0.9948 -0.4881
  117OSM   H18S12313   4.514   1.854   9.002 -1.9059 -0.6213 -0.2118
  117OSM   H18T12314   4.461   1.816   9.162 -1.2333  0.1220 -0.3048
  117OSM   H18U12315   4.637   1.819   9.136 -1.6229 -2.4430  0.5285
  117OSM    C1F12316   4.008   1.417  10.629 -0.2272  0.0148  0.4182
  117OSM     OF12317   3.889   1.412  10.666  0.2753  0.5059  0.2333
  117OSM    C2F12318   4.078   1.298  10.571 -0.0110  0.9836 -0.0683
  117OSM    H2F12319   4.139   1.254  10.652 -1.2165 -3.0432 -1.1218
  117OSM    H2G12320   4.153   1.331  10.496 -0.7737  2.0143 -0.3996
  117OSM    C3F12321   3.979   1.189  10.515  0.7190 -0.6884  0.5410
  117OSM    H3F12322   3.908   1.247  10.452  0.0554 -0.7463  1.2148
  117OSM    H3G12323   3.924   1.138  10.597  0.6884 -1.5174  0.0135
  117OSM    C4F12324   4.044   1.077  10.433 -0.6880  0.2406  0.1734
  117OSM    H4F12325   3.966   0.999  10.418  0.0225 -0.4709  0.1461
  117OSM    H4G12326   4.128   1.026  10.484 -1.7859 -1.4920  0.3051
  117OSM    C5F12327   4.118   1.126  10.309  0.3384 -0.0567  0.4111
  117OSM    H5F12328   4.210   1.178  10.342  0.9862 -0.7631 -0.2499
  117OSM    H5G12329   4.041   1.190  10.261 -1.0010  0.1838  2.7000
  117OSM    C6F12330   4.166   0.997  10.226  0.0871  0.1906 -1.0706
  117OSM    H6F12331   4.080   0.934  10.195 -0.2153  0.8122 -1.5455
  117OSM    H6G12332   4.223   0.931  10.294  0.7564 -0.0177 -1.8205
  117OSM    C7F12333   4.252   1.033  10.104 -0.0410  0.1133 -0.4732
  117OSM    H7F12334   4.343   1.067  10.158  0.3864 -1.7011  0.0029
  117OSM    H7G12335   4.216   1.114  10.036  0.1720  1.2295  0.6906
  117OSM    C8F12336   4.273   0.906  10.022 -0.9152 -0.1077  0.2450
  117OSM    H8F12337   4.312   0.820  10.081  1.1815  1.2799  0.9791
  117OSM    H8G12338   4.364   0.918   9.959  1.4406 -1.2068  3.2068
  117OSM    C9F12339   4.147   0.864   9.949 -0.2014  0.2655 -0.0664
  117OSM    H9F12340   4.074   0.800  10.002 -0.2173 -0.2715 -0.7223
  117OSM   C10F12341   4.115   0.906   9.823 -0.2220 -0.1918 -0.2633
  117OSM   H10F12342   4.013   0.889   9.786 -0.6835  2.9810 -0.6754
  117OSM   C11F12343   4.202   0.982   9.725  0.4746  0.5105  0.0478
  117OSM   H11F12344   4.285   1.034   9.778  0.9631  0.7305 -0.9192
  117OSM   H11G12345   4.151   1.064   9.671  2.8503  2.5040  0.6597
  117OSM   C12F12346   4.265   0.901   9.617  0.0314  0.0865 -0.5437
  117OSM   H12F12347   4.193   0.850   9.549 -1.1404  2.3395 -1.1048
  117OSM   H12G12348   4.326   0.821   9.665 -0.4633 -1.2849 -2.0976
  117OSM   C13F12349   4.352   0.977   9.517  0.0471 -0.4616 -0.1810
  117OSM   H13F12350   4.435   1.024   9.574 -0.0454 -1.3415  0.7214
  117OSM   H13G12351   4.297   1.059   9.467  1.8528  0.1367 -1.2769
  117OSM   C14F12352   4.426   0.891   9.404 -0.0303  0.0000 -0.8726
  117OSM   H14F12353   4.351   0.836   9.343 -2.1255  2.0095 -0.2525
  117OSM   H14G12354   4.481   0.814   9.462 -1.0810  0.3611  0.6878
  117OSM   C15F12355   4.520   0.976   9.317  0.7964 -0.2863 -0.1254
  117OSM   H15F12356   4.597   1.025   9.380 -0.1335  0.1940  0.6579
  117OSM   H15G12357   4.458   1.056   9.272  1.4997  1.5476  2.0059
  117OSM   C16F12358   4.581   0.905   9.194 -0.3240 -0.1301  0.0315
  117OSM   H16F12359   4.501   0.893   9.118 -0.3426  1.7828 -0.3059
  117OSM   H16G12360   4.619   0.807   9.232  0.1132  0.1958  0.4521
  117OSM   C17F12361   4.704   0.986   9.142  0.4492 -0.1637  0.0817
  117OSM   H17F12362   4.669   1.088   9.117 -1.6598 -1.1478 -1.1809
  117OSM   H17G12363   4.730   0.947   9.041 -1.9336  2.0212 -1.5037
  117OSM   C18F12364   4.821   0.990   9.247 -0.0143 -0.5447 -0.0965
  117OSM   H18F12365   4.829   0.888   9.291  1.3930 -1.4093 -2.2257
  117OSM   H18G12366   4.801   1.064   9.328 -1.8058  1.7388 -2.4624
  117OSM   H18H12367   4.918   1.023   9.204  0.5678 -1.0397  0.8059
  118OSM      N12368   3.889   2.787  11.608  0.9268 -0.2988  0.5406
  118OSM    C1512369   3.830   2.677  11.690  0.1898 -0.3666 -0.7296
  118OSM   H15A12370   3.811   2.584  11.637  0.7102 -0.9413  0.0643
  118OSM   H15B12371   3.732   2.711  11.719  2.0429  3.3085  2.0516
  118OSM   H15C12372   3.876   2.659  11.786  0.1994 -0.4912 -0.7573
  118OSM    C1412373   3.775   2.845  11.520  0.2913 -0.1563 -0.3384
  118OSM   H14A12374   3.703   2.880  11.592  0.1084  0.5807 -0.8780
  118OSM   H14B12375   3.721   2.772  11.462 -1.4824  1.5404 -0.9043
  118OSM   H14C12376   3.805   2.922  11.451 -0.9598  1.1770  0.5664
  118OSM    C1312377   3.950   2.890  11.696 -0.4100  0.3551  0.0405
  118OSM   H13A12378   3.875   2.951  11.742 -1.4032 -0.6283 -0.2230
  118OSM   H13B12379   4.015   2.951  11.635 -0.9172  1.9592  1.0709
  118OSM   H13C12380   4.012   2.847  11.773  2.1567 -1.3623 -2.7332
  118OSM    C1212381   3.994   2.720  11.512  0.1495 -0.5079 -0.4857
  118OSM   H12A12382   3.955   2.648  11.441 -1.1124 -0.6255  0.2899
  118OSM   H12B12383   4.066   2.665  11.572  1.2697 -0.9664 -2.1826
  118OSM    C1112384   4.076   2.818  11.420 -0.4146  0.5425  0.5547
  118OSM   H11A12385   4.131   2.749  11.353  0.7367 -0.7194  2.7102
  118OSM   H11B12386   4.152   2.876  11.477  0.6808  0.5765 -0.8912
  118OSM      P12387   3.937   2.869  11.206  0.2467 -0.4132  0.1555
  118OSM    O1312388   3.996   2.742  11.151 -0.3129  0.4353 -0.5589
  118OSM    O1412389   3.793   2.861  11.232 -0.0748  0.6739  0.0489
  118OSM    O1112390   3.967   2.992  11.111 -0.1921  0.3259 -0.5888
  118OSM    O1212391   3.999   2.912  11.342  0.0564 -0.2583 -0.3892
  118OSM    C1S12392   4.094   2.980  11.049 -0.1560 -0.0925 -0.0538
  118OSM    H1S12393   4.119   2.877  11.015 -1.8178 -0.4045 -0.4116
  118OSM    H1T12394   4.168   3.010  11.126 -0.0902 -1.5186  0.4700
  118OSM     NF12395   4.217   3.030  10.841 -0.7422 -0.6691 -0.7411
  118OSM    HNF12396   4.292   3.093  10.858 -1.2175 -0.6711  1.6897
  118OSM    C2S12397   4.100   3.071  10.920 -0.0808  0.6569 -0.2620
  118OSM    H2S12398   4.006   3.050  10.864  0.6281  0.0597 -1.2798
  118OSM    C3S12399   4.096   3.221  10.950 -0.6960 -0.4068 -0.5244
  118OSM    H3S12400   4.185   3.250  11.010 -0.0278 -0.7520 -1.3415
  118OSM     O312401   3.991   3.263  11.034  0.3588 -0.4385  0.5886
  118OSM    HO312402   3.970   3.183  11.083  2.6151  0.2552  2.9116
  118OSM    C4S12403   4.103   3.299  10.820  0.6921  0.4128 -0.3630
  118OSM    H4S12404   4.198   3.324  10.770  0.9881  1.6655  0.7657
  118OSM    C5S12405   3.989   3.332  10.750 -0.7383  0.3497  0.0516
  118OSM    H5S12406   3.887   3.315  10.785 -1.7568 -3.2677 -3.8872
  118OSM    C6S12407   3.998   3.402  10.611 -0.1004 -0.5228  0.4549
  118OSM    H6S12408   4.101   3.401  10.571  0.0529  0.2557  0.8200
  118OSM    H6T12409   3.975   3.509  10.629  0.8717 -0.4986  1.6935
  118OSM    C7S12410   3.897   3.333  10.509 -0.4870  0.0186  0.4332
  118OSM    H7S12411   3.793   3.333  10.549 -2.0396  2.2743 -3.1400
  118OSM    H7T12412   3.921   3.225  10.493 -2.0556 -0.3075  0.0901
  118OSM    C8S12413   3.902   3.412  10.386  0.3527 -0.3167 -0.3792
  118OSM    H8S12414   4.001   3.462  10.384  0.3262 -0.2413  0.0997
  118OSM    H8T12415   3.839   3.502  10.399 -0.8875 -1.1240 -0.6711
  118OSM    C9S12416   3.865   3.336  10.265 -0.2158  0.2188 -0.4012
  118OSM    H9S12417   3.764   3.295  10.285  0.7295 -1.5583  1.1133
  118OSM    H9T12418   3.926   3.244  10.250 -1.4281 -0.5524 -0.7458
  118OSM   C10S12419   3.862   3.417  10.140  0.3323  0.0090  0.4674
  118OSM   H10S12420   3.965   3.456  10.125 -0.3249  1.4050 -0.5401
  118OSM   H10T12421   3.800   3.507  10.154 -0.9829 -0.8826  0.5392
  118OSM   C11S12422   3.816   3.341  10.020  0.2400 -0.4878 -0.0288
  118OSM   H11S12423   3.713   3.299  10.024 -0.1291  0.0529 -2.4752
  118OSM   H11T12424   3.886   3.256  10.011  2.3455  1.1907 -0.4247
  118OSM   C12S12425   3.822   3.423   9.890  0.6403  0.1401  0.3705
  118OSM   H12S12426   3.747   3.505   9.887  0.0319 -0.3909 -2.9664
  118OSM   H12T12427   3.782   3.355   9.812 -2.2246 -0.2579  2.0479
  118OSM   C13S12428   3.964   3.462   9.862 -0.4412 -0.7302  0.3453
  118OSM   H13S12429   4.031   3.375   9.845  2.9519  1.9884 -1.5859
  118OSM   H13T12430   4.013   3.522   9.942  0.9865 -0.8002 -0.4318
  118OSM   C14S12431   3.976   3.545   9.734 -0.0972 -0.2572 -0.7689
  118OSM   H14S12432   4.082   3.577   9.724  0.3073 -1.1053  0.6041
  118OSM   H14T12433   3.915   3.638   9.733  1.8544  1.0797 -0.8330
  118OSM   C15S12434   3.928   3.469   9.610  0.3987 -0.2397  1.0184
  118OSM   H15S12435   3.817   3.473   9.622  0.4207 -0.1728  1.2034
  118OSM   H15T12436   3.969   3.367   9.626  1.8630  0.2853  0.7041
  118OSM   C16S12437   3.958   3.528   9.468  0.0541 -0.5921 -0.2448
  118OSM   H16S12438   4.066   3.509   9.449  0.0908 -0.1071 -0.5270
  118OSM   H16T12439   3.934   3.636   9.463  0.1006 -0.6305 -1.5881
  118OSM   C17S12440   3.877   3.446   9.362 -1.2391 -0.2757  0.5676
  118OSM   H17S12441   3.768   3.456   9.384 -1.0624 -1.4099  2.1414
  118OSM   H17T12442   3.902   3.338   9.373  1.1176  0.1905  0.2253
  118OSM   C18S12443   3.904   3.498   9.219  0.3869 -0.1632 -0.0544
  118OSM   H18S12444   3.889   3.606   9.242 -0.1854  0.0529 -1.3191
  118OSM   H18T12445   3.829   3.464   9.144  0.6477 -0.9355  0.0283
  118OSM   H18U12446   4.006   3.480   9.180  1.0885  3.0423  0.0146
  118OSM    C1F12447   4.231   2.913  10.776 -0.5596  0.1234 -0.3675
  118OSM     OF12448   4.137   2.840  10.768  0.1573 -0.0707 -0.0225
  118OSM    C2F12449   4.371   2.869  10.721  0.3589  0.2019  0.2077
  118OSM    H2F12450   4.399   2.795  10.799 -0.4935 -2.8408 -2.1871
  118OSM    H2G12451   4.422   2.968  10.711  0.3353  0.0976 -1.0935
  118OSM    C3F12452   4.381   2.813  10.578  0.8215  0.4111 -0.1939
  118OSM    H3F12453   4.347   2.893  10.509 -0.6649  0.1901  0.2331
  118OSM    H3G12454   4.317   2.723  10.567  0.7562  0.3573  0.5685
  118OSM    C4F12455   4.524   2.772  10.542 -0.6018  0.8799 -0.1496
  118OSM    H4F12456   4.556   2.700  10.620  1.5809  0.6685 -1.1851
  118OSM    H4G12457   4.596   2.854  10.561 -0.7904  0.8249  0.8877
  118OSM    C5F12458   4.532   2.703  10.410 -0.3818 -0.3766  0.6083
  118OSM    H5F12459   4.458   2.621  10.408  0.2776 -1.0048 -2.4009
  118OSM    H5G12460   4.634   2.660  10.405 -0.4069 -0.5923  1.7107
  118OSM    C6F12461   4.525   2.805  10.292  0.1658  0.6307 -0.6476
  118OSM    H6F12462   4.598   2.885  10.320 -0.6649  0.6458  1.6881
  118OSM    H6G12463   4.424   2.850  10.299  0.2694  0.8960 -0.8009
  118OSM    C7F12464   4.553   2.749  10.151 -0.0035  0.6096 -0.7485
  118OSM    H7F12465   4.499   2.652  10.142  0.6417 -0.2094  2.8849
  118OSM    H7G12466   4.659   2.719  10.158 -0.4443 -0.7564  0.6959
  118OSM    C8F12467   4.499   2.829  10.030  0.2619  0.4090  0.2852
  118OSM    H8F12468   4.394   2.861  10.048 -0.2968  0.2968 -2.3358
  118OSM    H8G12469   4.494   2.755   9.946  1.6940 -0.4608  0.9328
  118OSM    C9F12470   4.583   2.946  10.002 -0.5676  0.2776  0.1485
  118OSM    H9F12471   4.560   3.034  10.063  0.4835  1.4601 -1.1180
  118OSM   C10F12472   4.679   2.971   9.905 -0.6137  0.7043  0.1262
  118OSM   H10F12473   4.718   3.073   9.892  0.6665  0.0608 -1.3173
  118OSM   C11F12474   4.720   2.870   9.797 -0.2284 -0.1842  0.7687
  118OSM   H11F12475   4.667   2.776   9.822 -1.2386 -0.0999 -0.8853
  118OSM   H11G12476   4.830   2.855   9.789 -0.2071 -0.0534  0.8038
  118OSM   C12F12477   4.669   2.906   9.664 -0.1385 -0.1249 -0.3039
  118OSM   H12F12478   4.689   3.012   9.637  1.5158 -0.8765 -2.2182
  118OSM   H12G12479   4.558   2.898   9.668 -0.2547  1.1354 -0.4591
  118OSM   C13F12480   4.719   2.802   9.556 -0.4036  0.1568 -0.0324
  118OSM   H13F12481   4.670   2.703   9.570 -3.0381  1.1084 -1.8853
  118OSM   H13G12482   4.828   2.788   9.573 -0.7248 -2.5503  0.3649
  118OSM   C14F12483   4.705   2.850   9.409  0.5291 -0.1729  0.4966
  118OSM   H14F12484   4.765   2.780   9.348 -0.5019 -1.2913  0.7269
  118OSM   H14G12485   4.742   2.952   9.384  0.7278 -0.3076  0.2381
  118OSM   C15F12486   4.556   2.840   9.356 -0.4057 -0.7452 -0.1046
  118OSM   H15F12487   4.491   2.898   9.425 -0.6018 -0.7882 -0.2514
  118OSM   H15G12488   4.539   2.731   9.368 -0.8400 -0.6143  0.5251
  118OSM   C16F12489   4.529   2.886   9.218 -0.3350 -0.2503  0.4102
  118OSM   H16F12490   4.597   2.839   9.144  0.3826 -1.7441  1.9573
  118OSM   H16G12491   4.531   2.997   9.212  1.2663 -0.2287  0.8877
  118OSM   C17F12492   4.390   2.841   9.172  0.0338 -0.4977 -0.4463
  118OSM   H17F12493   4.318   2.913   9.217  0.9610  1.2504 -1.6563
  118OSM   H17G12494   4.366   2.741   9.215 -1.2410  0.0666  0.2056
  118OSM   C18F12495   4.376   2.838   9.020 -0.5834 -0.3807  0.9519
  118OSM   H18F12496   4.467   2.791   8.977  1.4865  1.7861  2.6605
  118OSM   H18G12497   4.374   2.939   8.975 -0.3096 -0.4791  0.7141
  118OSM   H18H12498   4.282   2.787   8.991  0.0371 -1.1942  0.3453
  119OSM      N12499   3.389   2.029  11.285 -0.0910  0.1893 -0.2348
  119OSM    C1512500   3.469   2.073  11.402 -0.7530 -0.3189 -0.3043
  119OSM   H15A12501   3.408   2.096  11.489 -0.5120 -3.2839  0.7374
  119OSM   H15B12502   3.533   2.155  11.372 -1.2514  0.7265  1.3304
  119OSM   H15C12503   3.524   1.984  11.427 -4.3971 -2.0088  2.8464
  119OSM    C1412504   3.278   1.931  11.326  0.8258 -0.5423  0.5889
  119OSM   H14A12505   3.221   1.903  11.239  3.2519 -0.4640 -1.1237
  119OSM   H14B12506   3.215   1.987  11.393  1.5584  0.3176  0.5762
  119OSM   H14C12507   3.310   1.841  11.377  3.4542  0.4848  0.8976
  119OSM    C1312508   3.314   2.147  11.227 -0.4703  0.8220  0.9757
  119OSM   H13A12509   3.378   2.222  11.185  1.9013 -0.9299  1.2743
  119OSM   H13B12510   3.263   2.203  11.305  0.7726  0.1995  2.2712
  119OSM   H13C12511   3.232   2.123  11.161 -0.9730  2.4054  0.9804
  119OSM    C1212512   3.479   1.971  11.179 -0.1373  0.0113 -0.4412
  119OSM   H12A12513   3.415   1.978  11.092 -1.6991  3.2055  0.8237
  119OSM   H12B12514   3.512   1.869  11.195  1.3716  0.3301 -1.2968
  119OSM    C1112515   3.614   2.048  11.155 -0.7472  0.0075 -0.0018
  119OSM   H11A12516   3.674   1.991  11.081 -0.4778 -0.5574  0.6371
  119OSM   H11B12517   3.666   2.049  11.253 -2.0258 -1.5977  0.7511
  119OSM      P12518   3.679   2.297  11.113 -0.0470  0.0337  0.2703
  119OSM    O1312519   3.603   2.425  11.138 -0.2415  0.4194  0.1520
  119OSM    O1412520   3.784   2.260  11.205  0.3995 -0.5543 -0.8602
  119OSM    O1112521   3.754   2.310  10.974  0.3524  0.1357 -0.2749
  119OSM    O1212522   3.583   2.174  11.096 -0.0276 -0.2321 -0.2356
  119OSM    C1S12523   3.692   2.262  10.853 -0.2435 -0.4135 -0.0220
  119OSM    H1S12524   3.584   2.290  10.849 -0.4309 -1.0093  0.6183
  119OSM    H1T12525   3.691   2.151  10.840 -1.6635 -0.1978 -2.4027
  119OSM     NF12526   3.669   2.321  10.606 -0.2400 -0.1198 -0.5799
  119OSM    HNF12527   3.653   2.239  10.551 -0.6582  0.2259 -0.9808
  119OSM    C2S12528   3.762   2.308  10.715 -0.1355  0.6520  0.1122
  119OSM    H2S12529   3.806   2.410  10.726  0.1881  0.5749 -0.4439
  119OSM    C3S12530   3.880   2.217  10.683 -0.6388  0.5246 -0.0694
  119OSM    H3S12531   3.837   2.120  10.652 -1.2926  0.8187 -0.1146
  119OSM     O312532   3.959   2.188  10.802 -0.1644 -0.1624  0.0986
  119OSM    HO312533   3.909   2.230  10.872 -4.5564  0.3804 -3.0079
  119OSM    C4S12534   3.964   2.280  10.568  0.2240 -0.9309 -0.0919
  119OSM    H4S12535   3.917   2.258  10.471 -1.8041  0.5433  0.4976
  119OSM    C5S12536   4.083   2.346  10.577 -0.2577  1.3004  0.7949
  119OSM    H5S12537   4.130   2.358  10.676  1.0456  2.9798  0.0205
  119OSM    C6S12538   4.172   2.404  10.473 -0.3489 -0.9167  0.5178
  119OSM    H6S12539   4.278   2.371  10.481  0.2210  0.3543 -1.1841
  119OSM    H6T12540   4.179   2.513  10.491  0.7957 -0.6708 -1.1712
  119OSM    C7S12541   4.132   2.387  10.327 -0.2263 -0.0264 -0.4753
  119OSM    H7S12542   4.029   2.422  10.302  0.1738 -0.5306 -3.0622
  119OSM    H7T12543   4.142   2.279  10.300 -2.1902 -0.4968  0.4253
  119OSM    C8S12544   4.231   2.465  10.231 -0.3951 -0.5193  0.1994
  119OSM    H8S12545   4.333   2.422  10.236  0.7687  2.1517  1.5407
  119OSM    H8T12546   4.225   2.574  10.251 -0.0852 -0.9126  2.8041
  119OSM    C9S12547   4.199   2.437  10.088 -0.0628 -0.4275 -0.2583
  119OSM    H9S12548   4.095   2.464  10.062  0.5426  0.8266 -1.4731
  119OSM    H9T12549   4.202   2.331  10.055  2.5532  0.3420 -2.9398
  119OSM   C10S12550   4.303   2.498   9.991  0.6871  0.1219  0.0775
  119OSM   H10S12551   4.406   2.461  10.012  1.3222  1.7354 -0.0470
  119OSM   H10T12552   4.303   2.609   9.998  0.3617  0.0219  2.3847
  119OSM   C11S12553   4.274   2.465   9.840 -0.3959  0.3852 -0.1305
  119OSM   H11S12554   4.164   2.480   9.829 -0.6887 -1.6028 -0.3419
  119OSM   H11T12555   4.293   2.358   9.816 -0.4279  0.6154 -1.1869
  119OSM   C12S12556   4.350   2.558   9.750 -0.6385 -0.2925 -0.1246
  119OSM   H12S12557   4.452   2.573   9.792 -0.9314 -1.1558  0.9213
  119OSM   H12T12558   4.309   2.661   9.752 -2.5015 -1.0128  1.5121
  119OSM   C13S12559   4.344   2.523   9.602 -0.1539  0.4412 -0.2589
  119OSM   H13S12560   4.385   2.422   9.579  0.8205  1.4368 -3.5430
  119OSM   H13T12561   4.410   2.592   9.544  0.2269  0.1797 -0.1402
  119OSM   C14S12562   4.211   2.522   9.526 -0.1900  0.5570  0.1297
  119OSM   H14S12563   4.168   2.624   9.516  0.3445  0.6603 -1.2522
  119OSM   H14T12564   4.145   2.447   9.574  0.4884  0.9673  1.7968
  119OSM   C15S12565   4.239   2.480   9.376  0.0882  0.1179 -1.3925
  119OSM   H15S12566   4.280   2.378   9.394 -1.7027 -0.6295 -1.2798
  119OSM   H15T12567   4.313   2.550   9.333  0.4246  0.6777  0.0178
  119OSM   C16S12568   4.107   2.468   9.295  0.3353 -0.5708 -0.4916
  119OSM   H16S12569   4.032   2.544   9.327  0.8940 -1.4921  3.4942
  119OSM   H16T12570   4.061   2.373   9.331 -0.7717  0.2143  0.2474
  119OSM   C17S12571   4.133   2.482   9.147 -0.1179 -0.2961  0.7354
  119OSM   H17S12572   4.227   2.426   9.125 -1.9385 -3.0398 -0.6122
  119OSM   H17T12573   4.173   2.585   9.141  1.4561 -0.8805  0.4631
  119OSM   C18S12574   4.021   2.446   9.056 -0.3991  0.0650 -0.5777
  119OSM   H18S12575   4.045   2.476   8.952  3.4086  0.3442  0.2364
  119OSM   H18T12576   3.926   2.496   9.083 -0.7355 -0.1799 -1.2732
  119OSM   H18U12577   3.991   2.339   9.053 -0.3995  0.0325  0.2428
  119OSM    C1F12578   3.576   2.410  10.608 -0.4566  0.0453 -1.0032
  119OSM     OF12579   3.577   2.502  10.688  0.3473  0.0570  0.0844
  119OSM    C2F12580   3.467   2.394  10.513  0.1596  0.4175  0.0931
  119OSM    H2F12581   3.366   2.409  10.556 -1.2947  0.9684 -3.2266
  119OSM    H2G12582   3.484   2.292  10.473  2.5365  0.6902  0.2463
  119OSM    C3F12583   3.496   2.493  10.403 -0.4303  0.1132  0.2391
  119OSM    H3F12584   3.593   2.494  10.349 -0.9288  0.5566 -0.6639
  119OSM    H3G12585   3.498   2.589  10.460  1.3446  0.0432  0.3343
  119OSM    C4F12586   3.378   2.500  10.308  0.6314 -0.0777  0.5883
  119OSM    H4F12587   3.277   2.517  10.352 -0.3172  3.1244 -2.4265
  119OSM    H4G12588   3.381   2.406  10.248 -0.8031 -0.1517  0.5999
  119OSM    C5F12589   3.405   2.618  10.217 -0.0803 -0.1811 -0.8312
  119OSM    H5F12590   3.509   2.606  10.180 -0.5081 -1.5114 -1.6692
  119OSM    H5G12591   3.409   2.714  10.273  1.3702  0.1098 -1.3882
  119OSM    C6F12592   3.305   2.627  10.099  0.3456  0.1407 -0.3495
  119OSM    H6F12593   3.206   2.659  10.139  0.3518  0.5513 -0.6515
  119OSM    H6G12594   3.294   2.524  10.059 -1.4310  0.4922 -0.8762
  119OSM    C7F12595   3.350   2.706   9.976 -0.1303 -0.3623  0.4553
  119OSM    H7F12596   3.442   2.662   9.932 -0.3176 -0.0293 -0.2740
  119OSM    H7G12597   3.380   2.806  10.013 -1.8710  0.5193 -0.4294
  119OSM    C8F12598   3.241   2.731   9.876  0.4735 -0.2496  0.2351
  119OSM    H8F12599   3.267   2.822   9.818  1.4034 -0.2625  0.6062
  119OSM    H8G12600   3.148   2.761   9.928 -0.7631 -1.4531 -1.2057
  119OSM    C9F12601   3.226   2.620   9.770 -0.0058  0.2635 -0.0902
  119OSM    H9F12602   3.177   2.528   9.805  0.3445  0.4717  0.9653
  119OSM   C10F12603   3.278   2.626   9.642  0.3001 -0.5529 -0.0616
  119OSM   H10F12604   3.263   2.541   9.574  1.4749  0.4577 -1.6521
  119OSM   C11F12605   3.359   2.737   9.588 -0.8968 -0.3457  0.0531
  119OSM   H11F12606   3.445   2.745   9.658 -1.7309 -0.4258  1.1171
  119OSM   H11G12607   3.307   2.835   9.593  2.3217  1.4180  2.0073
  119OSM   C12F12608   3.422   2.717   9.452 -0.3068  0.2626 -0.4782
  119OSM   H12F12609   3.453   2.613   9.431  1.0752  0.8605 -1.5574
  119OSM   H12G12610   3.514   2.778   9.448  1.8413 -2.2656  3.5663
  119OSM   C13F12611   3.315   2.766   9.344 -0.2840  0.0423  0.4481
  119OSM   H13F12612   3.275   2.866   9.371  0.3841  0.9575 -1.7083
  119OSM   H13G12613   3.234   2.691   9.349  0.7441 -1.2869 -1.6152
  119OSM   C14F12614   3.350   2.767   9.199 -0.6296  0.2446  0.3439
  119OSM   H14F12615   3.410   2.678   9.170 -0.1733 -0.1953  2.4033
  119OSM   H14G12616   3.408   2.860   9.183  1.4465 -0.4410  3.0823
  119OSM   C15F12617   3.233   2.789   9.108 -0.0066 -0.5730 -0.6274
  119OSM   H15F12618   3.192   2.885   9.148 -1.1805 -1.8674  1.4236
  119OSM   H15G12619   3.150   2.717   9.120  1.3022 -2.1882 -0.9255
  119OSM   C16F12620   3.261   2.798   8.958 -0.9208  0.5569  0.2678
  119OSM   H16F12621   3.171   2.770   8.900  0.0876 -0.1971 -0.9778
  119OSM   H16G12622   3.343   2.730   8.927  0.5757  0.4046  4.0095
  119OSM   C17F12623   3.316   2.934   8.917 -0.1194 -0.4203  0.8387
  119OSM   H17F12624   3.345   2.934   8.809 -2.7977  1.5779  0.0151
  119OSM   H17G12625   3.409   2.960   8.971  1.9423 -1.7654 -1.7796
  119OSM   C18F12626   3.214   3.049   8.920 -0.0206  0.1965  0.2384
  119OSM   H18F12627   3.184   3.072   9.025  0.2637 -0.3420  0.4439
  119OSM   H18G12628   3.116   3.032   8.871  1.4863 -1.3004 -2.4888
  119OSM   H18H12629   3.252   3.145   8.879 -0.8744 -0.3132 -1.8776
  120OSM      N12630   4.776   5.473  10.931  0.9687 -0.6338  0.0522
  120OSM    C1512631   4.668   5.395  11.000 -0.4595  0.1323 -0.9864
  120OSM   H15A12632   4.700   5.374  11.101  2.5481 -0.3958 -1.9716
  120OSM   H15B12633   4.640   5.308  10.943  1.5894  0.5322 -2.7100
  120OSM   H15C12634   4.577   5.451  11.015 -1.4536 -1.1722 -1.8780
  120OSM    C1412635   4.792   5.607  11.006  0.5033 -0.3260 -0.4412
  120OSM   H14A12636   4.844   5.685  10.954  3.2585 -1.2394  0.7689
  120OSM   H14B12637   4.859   5.585  11.088 -2.5338 -0.6751  2.1425
  120OSM   H14C12638   4.698   5.652  11.037  0.8633  0.0938  0.0465
  120OSM    C1312639   4.900   5.402  10.924  0.2085 -0.7142 -0.5227
  120OSM   H13A12640   4.983   5.457  10.883  0.0993 -0.5931 -0.5809
  120OSM   H13B12641   4.898   5.306  10.874  0.2376 -0.9267 -0.1207
  120OSM   H13C12642   4.928   5.381  11.026  0.8961  0.8710 -0.3513
  120OSM    C1212643   4.725   5.498  10.790 -0.1037  0.1940 -0.6137
  120OSM   H12A12644   4.792   5.564  10.737  0.5045 -0.7113 -0.9840
  120OSM   H12B12645   4.635   5.557  10.801 -0.9743 -1.3862  1.2322
  120OSM    C1112646   4.688   5.375  10.699 -0.1457  0.5896  0.3289
  120OSM   H11A12647   4.775   5.306  10.702 -1.6905 -1.5385 -1.4413
  120OSM   H11B12648   4.680   5.412  10.595 -3.0114  2.9037  1.2310
  120OSM      P12649   4.421   5.346  10.692  0.0710 -0.1172 -0.4529
  120OSM    O1312650   4.347   5.217  10.702  0.0878 -0.5521  0.1053
  120OSM    O1412651   4.368   5.459  10.773 -0.3631 -0.5039  0.4816
  120OSM    O1112652   4.434   5.391  10.539  0.4583 -0.5334  0.0869
  120OSM    O1212653   4.568   5.317  10.740  0.3396  0.5377 -0.4200
  120OSM    C1S12654   4.392   5.510  10.479  0.3274  0.2027  0.2226
  120OSM    H1S12655   4.431   5.598  10.535 -0.9373  1.0518 -0.1889
  120OSM    H1T12656   4.283   5.525  10.493  0.4275 -0.7699  2.3917
  120OSM     NF12657   4.385   5.640  10.281  0.0479 -0.1972  0.2411
  120OSM    HNF12658   4.294   5.682  10.275  0.2189  0.1928  0.3090
  120OSM    C2S12659   4.396   5.506  10.324 -0.6599  0.1941 -0.1976
  120OSM    H2S12660   4.498   5.467  10.306 -0.4006  0.7874 -0.0407
  120OSM    C3S12661   4.296   5.417  10.260 -0.2518 -0.5297 -0.1099
  120OSM    H3S12662   4.192   5.453  10.278  0.2874  0.1369  1.8819
  120OSM     O312663   4.290   5.291  10.328  0.0145  0.4078 -0.0544
  120OSM    HO312664   4.335   5.307  10.411 -1.2420  1.8842  0.3858
  120OSM    C4S12665   4.316   5.408  10.110  0.4142 -0.0200 -0.5914
  120OSM    H4S12666   4.242   5.467  10.056 -0.5738 -0.7329 -0.0553
  120OSM    C5S12667   4.411   5.343  10.035 -0.3049  0.6058 -0.1703
  120OSM    H5S12668   4.479   5.280  10.094 -2.5067 -0.8565  0.9671
  120OSM    C6S12669   4.430   5.332   9.890 -0.4989 -0.4102  0.1632
  120OSM    H6S12670   4.442   5.231   9.846  1.7119 -0.5791  0.9974
  120OSM    H6T12671   4.531   5.366   9.857 -0.2279 -3.4194 -2.6441
  120OSM    C7S12672   4.329   5.410   9.810  0.3383 -0.6127 -0.2707
  120OSM    H7S12673   4.332   5.518   9.832  1.7329 -0.4200 -1.2849
  120OSM    H7T12674   4.231   5.363   9.837 -0.3232  0.0403 -1.4748
  120OSM    C8S12675   4.355   5.379   9.658 -0.0853 -0.3196  0.1182
  120OSM    H8S12676   4.373   5.272   9.638  0.1957 -0.2401 -0.0653
  120OSM    H8T12677   4.450   5.432   9.634  1.0291 -0.6461  3.3391
  120OSM    C9S12678   4.238   5.416   9.561 -0.5413  0.0528  0.4871
  120OSM    H9S12679   4.218   5.525   9.565 -1.4169 -0.1258  1.3550
  120OSM    H9T12680   4.148   5.363   9.599 -0.5412 -0.0238  0.3838
  120OSM   C10S12681   4.249   5.396   9.407 -0.5360  0.5005  0.2287
  120OSM   H10S12682   4.272   5.290   9.386 -2.2718  0.7880 -3.8981
  120OSM   H10T12683   4.339   5.453   9.374  0.3168 -1.5007 -1.1102
  120OSM   C11S12684   4.128   5.424   9.328  0.1885  0.4811 -0.4286
  120OSM   H11S12685   4.099   5.530   9.342 -0.5358  0.7167 -3.1373
  120OSM   H11T12686   4.047   5.355   9.361  0.0837  1.3559  1.1937
  120OSM   C12S12687   4.155   5.407   9.170 -0.0158 -0.5681  0.4313
  120OSM   H12S12688   4.058   5.383   9.123 -1.7403  2.2959  2.2163
  120OSM   H12T12689   4.227   5.326   9.148  0.5955  0.1853 -0.3997
  120OSM   C13S12690   4.218   5.535   9.104  0.0507  0.5273 -0.2482
  120OSM   H13S12691   4.318   5.551   9.150 -0.3328 -0.0904  0.8446
  120OSM   H13T12692   4.145   5.612   9.138 -0.3034  0.3172 -0.5262
  120OSM   C14S12693   4.229   5.514   8.955  0.0083  0.0519  0.0309
  120OSM   H14S12694   4.265   5.410   8.944 -0.3455 -0.0830  0.1368
  120OSM   H14T12695   4.296   5.585   8.902 -0.4931  0.0719 -0.5917
  120OSM   C15S12696   4.094   5.519   8.879  0.4042  0.0911 -0.0321
  120OSM   H15S12697   4.033   5.609   8.900 -1.7619 -1.4731  0.6960
  120OSM   H15T12698   4.040   5.425   8.901 -0.1045  0.5162  0.5627
  120OSM   C16S12699   4.115   5.509   8.726  0.1031  0.1445  0.6890
  120OSM   H16S12700   4.174   5.597   8.692 -0.6134  1.2294  2.1199
  120OSM   H16T12701   4.026   5.520   8.661  1.3312  0.6679 -0.9631
  120OSM   C17S12702   4.186   5.389   8.681  0.2149  0.2194  0.9093
  120OSM   H17S12703   4.145   5.293   8.718 -1.3138 -0.3138 -1.8300
  120OSM   H17T12704   4.290   5.398   8.719  0.6559  1.6379 -0.5270
  120OSM   C18S12705   4.195   5.383   8.523 -0.2765  0.9789 -0.3924
  120OSM   H18S12706   4.092   5.351   8.497 -1.1120  3.0240  0.1742
  120OSM   H18T12707   4.262   5.299   8.494 -0.9752  0.2423  0.1287
  120OSM   H18U12708   4.221   5.479   8.473 -2.7281  1.5398 -0.7177
  120OSM    C1F12709   4.485   5.726  10.292 -0.2816  0.2802  0.2381
  120OSM     OF12710   4.599   5.696  10.334  0.0391  0.1838 -0.1219
  120OSM    C2F12711   4.450   5.873  10.276 -0.2551  0.0296  0.2133
  120OSM    H2F12712   4.493   5.934  10.358 -1.7407  0.1374  0.9480
  120OSM    H2G12713   4.340   5.878  10.290 -0.8434 -2.6882 -2.3404
  120OSM    C3F12714   4.496   5.938  10.141 -0.0623  0.2888 -0.6389
  120OSM    H3F12715   4.606   5.925  10.145  0.0893  1.7728  0.9397
  120OSM    H3G12716   4.484   6.048  10.127  2.1119  1.1967  3.3442
  120OSM    C4F12717   4.443   5.863  10.022  0.5000  0.0052 -0.1994
  120OSM    H4F12718   4.334   5.846  10.029  0.5784  0.0399  1.6131
  120OSM    H4G12719   4.495   5.768   9.994 -0.3027  0.1828 -2.4779
  120OSM    C5F12720   4.488   5.938   9.895 -0.5081 -1.1324 -0.2111
  120OSM    H5F12721   4.599   5.933   9.901 -0.3601 -0.1642 -1.5821
  120OSM    H5G12722   4.455   6.044   9.906  2.1283  0.1784 -3.1090
  120OSM    C6F12723   4.436   5.889   9.763 -0.2811 -0.2419 -0.9380
  120OSM    H6F12724   4.447   5.779   9.766  0.7626 -0.1259 -0.0785
  120OSM    H6G12725   4.499   5.918   9.676 -0.6526  0.1905 -1.0690
  120OSM    C7F12726   4.291   5.930   9.720  0.3463 -0.7815 -0.7056
  120OSM    H7F12727   4.291   6.040   9.703  2.2711 -0.4137  1.2540
  120OSM    H7G12728   4.222   5.903   9.802  2.5161  0.8553  1.8129
  120OSM    C8F12729   4.240   5.862   9.593  0.0771 -0.5533  0.0292
  120OSM    H8F12730   4.129   5.868   9.586  0.0891 -0.5417 -0.1474
  120OSM    H8G12731   4.269   5.755   9.601  1.1952 -0.2016  1.1178
  120OSM    C9F12732   4.303   5.907   9.463 -0.1763 -0.0350 -0.3018
  120OSM    H9F12733   4.413   5.918   9.457 -0.0563 -1.6277 -2.0882
  120OSM   C10F12734   4.236   5.939   9.351  0.2386 -0.1136 -0.0156
  120OSM   H10F12735   4.281   5.976   9.258  0.8582  0.5732  0.5452
  120OSM   C11F12736   4.085   5.927   9.340  0.2479  0.8610  0.2598
  120OSM   H11F12737   4.032   5.996   9.410  0.6482  1.3964  0.0340
  120OSM   H11G12738   4.053   5.824   9.367 -1.8641  1.5734  0.7208
  120OSM   C12F12739   4.032   5.960   9.203 -0.0089  0.3286 -0.8451
  120OSM   H12F12740   4.075   6.056   9.168  0.1689  0.6235  0.1479
  120OSM   H12G12741   3.922   5.971   9.196 -0.0335  1.0847  0.3715
  120OSM   C13F12742   4.078   5.870   9.098 -0.2705  0.0838 -0.0343
  120OSM   H13F12743   4.028   5.772   9.111  0.0494  0.1454  2.0263
  120OSM   H13G12744   4.185   5.842   9.109 -0.9072 -3.0348 -0.9145
  120OSM   C14F12745   4.060   5.934   8.961 -0.0995  0.2651  0.5982
  120OSM   H14F12746   3.987   6.017   8.971  1.7857  2.2521 -1.1432
  120OSM   H14G12747   4.016   5.857   8.895 -1.7571  2.5814 -1.1469
  120OSM   C15F12748   4.200   5.984   8.909  0.2973  0.2429  0.5650
  120OSM   H15F12749   4.236   5.898   8.848 -0.9186 -0.2194  0.4812
  120OSM   H15G12750   4.264   6.000   8.998 -0.4432  1.4160  0.8945
  120OSM   C16F12751   4.205   6.111   8.820 -0.3282  0.5090  0.1183
  120OSM   H16F12752   4.305   6.127   8.775  0.4301  0.3211  1.6688
  120OSM   H16G12753   4.184   6.195   8.890  0.0668 -0.9562  2.0844
  120OSM   C17F12754   4.097   6.123   8.711 -0.1762  0.2021  0.0164
  120OSM   H17F12755   4.000   6.100   8.759  0.8334  0.5259  2.3332
  120OSM   H17G12756   4.124   6.046   8.635  1.5331  1.4825 -0.7420
  120OSM   C18F12757   4.091   6.254   8.644 -0.0131 -0.0288  0.0164
  120OSM   H18F12758   4.062   6.331   8.718 -0.3084 -1.5014  1.5045
  120OSM   H18G12759   4.014   6.248   8.563 -1.5236 -1.2521  1.4648
  120OSM   H18H12760   4.189   6.278   8.597  1.0277  1.8191  2.9190
  121OSM      N12761   3.867   0.616  10.882 -0.2119 -0.1071  0.0224
  121OSM    C1512762   3.878   0.760  10.854 -0.3626  0.2393  0.5301
  121OSM   H15A12763   3.895   0.820  10.942 -1.1140  2.1006 -0.5208
  121OSM   H15B12764   3.789   0.804  10.811 -0.1587  0.3441  0.2082
  121OSM   H15C12765   3.954   0.773  10.777 -1.1724  0.8724 -0.1853
  121OSM    C1412766   3.876   0.545  10.756  0.0626  1.1364  0.3700
  121OSM   H14A12767   3.788   0.555  10.695  0.9735 -0.6714 -1.3611
  121OSM   H14B12768   3.882   0.439  10.776 -2.3538  0.9594  0.4712
  121OSM   H14C12769   3.969   0.565  10.706  0.4228 -2.7206 -0.8643
  121OSM    C1312770   3.984   0.570  10.972 -0.3237 -0.3912  0.6787
  121OSM   H13A12771   3.958   0.596  11.073 -1.5953  1.8324 -0.1426
  121OSM   H13B12772   4.075   0.619  10.940 -0.8243  0.1014 -0.0178
  121OSM   H13C12773   3.991   0.465  10.950  0.7262 -0.0508 -0.7506
  121OSM    C1212774   3.737   0.573  10.954 -0.8520 -0.0980  0.6033
  121OSM   H12A12775   3.752   0.471  10.985  2.4113  0.6227  1.7190
  121OSM   H12B12776   3.655   0.573  10.883 -0.8796  0.4037  0.6302
  121OSM    C1112777   3.699   0.663  11.077 -0.2885  0.7644  0.7910
  121OSM   H11A12778   3.791   0.675  11.138 -0.0829  0.0852  0.6206
  121OSM   H11B12779   3.622   0.615  11.141 -1.2457  2.3444  0.8890
  121OSM      P12780   3.481   0.793  11.012  0.3874 -0.1679  0.1203
  121OSM    O1312781   3.410   0.746  11.131 -0.2242  0.4432  0.4164
  121OSM    O1412782   3.447   0.934  10.964 -0.4098  0.1412 -0.4853
  121OSM    O1112783   3.472   0.699  10.887 -0.2511  0.0025 -1.1592
  121OSM    O1212784   3.636   0.782  11.041 -0.0239  0.1788  0.2755
  121OSM    C1S12785   3.346   0.696  10.822  0.0905  0.0911 -0.3126
  121OSM    H1S12786   3.269   0.760  10.871 -0.8685 -2.5870  1.9460
  121OSM    H1T12787   3.306   0.594  10.837  1.1430 -0.6582 -2.3076
  121OSM     NF12788   3.205   0.700  10.615 -0.4655 -0.6478 -0.2720
  121OSM    HNF12789   3.180   0.617  10.565 -0.1458 -0.6383 -0.4467
  121OSM    C2S12790   3.342   0.704  10.669 -0.0131 -0.2202 -0.0009
  121OSM    H2S12791   3.390   0.802  10.650  1.6331 -1.4416 -2.7455
  121OSM    C3S12792   3.435   0.596  10.607  0.3078 -0.3633 -0.4883
  121OSM    H3S12793   3.383   0.502  10.635  1.6599 -1.0444 -0.1568
  121OSM     O312794   3.565   0.588  10.654  0.4018 -0.5856 -0.0119
  121OSM    HO312795   3.556   0.640  10.734 -1.1587 -0.2945 -0.3481
  121OSM    C4S12796   3.444   0.606  10.460 -0.1487 -0.3647 -0.5754
  121OSM    H4S12797   3.521   0.679  10.430  0.9333 -0.4483  1.7270
  121OSM    C5S12798   3.387   0.523  10.375 -0.1908 -0.6529 -0.2120
  121OSM    H5S12799   3.323   0.439  10.408  0.6892 -1.5648 -0.7878
  121OSM    C6S12800   3.417   0.540  10.232 -0.1491  0.2699 -0.1534
  121OSM    H6S12801   3.414   0.438  10.188  0.4333  0.1572  0.0493
  121OSM    H6T12802   3.522   0.570  10.210 -0.2949 -0.2577 -1.7537
  121OSM    C7S12803   3.320   0.627  10.141  0.0658  0.1756 -0.2537
  121OSM    H7S12804   3.305   0.724  10.194 -1.0180  0.9768 -1.9158
  121OSM    H7T12805   3.222   0.576  10.139 -0.2878  0.8048  0.5102
  121OSM    C8S12806   3.387   0.648  10.002  0.1475 -0.7652  0.0968
  121OSM    H8S12807   3.402   0.553   9.947  1.0222  0.1975 -1.4184
  121OSM    H8T12808   3.487   0.694  10.017 -0.1869 -0.4018  1.3352
  121OSM    C9S12809   3.302   0.737   9.905  0.1144  0.3311 -0.6757
  121OSM    H9S12810   3.291   0.840   9.946  0.9565  0.1816 -0.0704
  121OSM    H9T12811   3.202   0.687   9.911 -0.0766  0.9005  2.0774
  121OSM   C10S12812   3.349   0.722   9.759 -0.4174 -0.2237  0.2775
  121OSM   H10S12813   3.352   0.613   9.736  2.5489 -0.4422  1.2727
  121OSM   H10T12814   3.450   0.763   9.736 -1.0452  1.6922  0.6930
  121OSM   C11S12815   3.251   0.793   9.657 -0.5770  0.6948  0.1019
  121OSM   H11S12816   3.272   0.902   9.648  1.1220  0.2167 -2.8722
  121OSM   H11T12817   3.153   0.791   9.710 -0.7793  2.0185 -0.1717
  121OSM   C12S12818   3.246   0.716   9.524 -0.7400 -0.0804  0.2061
  121OSM   H12S12819   3.209   0.612   9.535 -1.2948  0.3233  3.1651
  121OSM   H12T12820   3.349   0.709   9.483 -0.5822 -1.9987  0.7970
  121OSM   C13S12821   3.169   0.792   9.409  0.6488  0.3641 -0.2733
  121OSM   H13S12822   3.189   0.901   9.408 -0.5974  0.6070 -0.9435
  121OSM   H13T12823   3.063   0.776   9.439  0.7889  0.7651  0.4443
  121OSM   C14S12824   3.198   0.736   9.269  0.3508 -0.0062  0.4967
  121OSM   H14S12825   3.175   0.628   9.255  4.1250 -0.6196 -2.7383
  121OSM   H14T12826   3.307   0.747   9.249  0.2335 -1.6451 -1.2539
  121OSM   C15S12827   3.115   0.813   9.162 -0.8353  0.2983 -0.1467
  121OSM   H15S12828   3.153   0.917   9.154  1.7126  0.0121  4.5801
  121OSM   H15T12829   3.012   0.801   9.202  0.4388 -1.6507  2.9102
  121OSM   C16S12830   3.121   0.749   9.026 -0.5033  0.5045  0.1178
  121OSM   H16S12831   3.115   0.638   9.031 -0.7393  0.4829 -0.6307
  121OSM   H16T12832   3.216   0.784   8.980 -0.3780 -0.1661 -0.1387
  121OSM   C17S12833   3.005   0.795   8.934  0.3789 -0.6360  0.5077
  121OSM   H17S12834   3.010   0.906   8.938  0.1657 -0.6709  2.9200
  121OSM   H17T12835   2.920   0.768   9.000 -3.3357  2.4209 -2.5251
  121OSM   C18S12836   3.011   0.735   8.792 -0.0953 -0.1861  0.6042
  121OSM   H18S12837   3.115   0.735   8.754  0.8985 -0.3178  3.1799
  121OSM   H18T12838   2.950   0.796   8.721  2.4972  1.1138 -0.6329
  121OSM   H18U12839   2.977   0.629   8.789 -0.5340 -0.0444  0.5082
  121OSM    C1F12840   3.123   0.801  10.646 -0.2325  0.1680  0.1667
  121OSM     OF12841   3.156   0.907  10.704  0.1888 -0.2001 -0.6268
  121OSM    C2F12842   2.985   0.778  10.602  0.7865 -1.1448  0.1010
  121OSM    H2F12843   2.923   0.741  10.686  1.3121 -0.2227  0.9188
  121OSM    H2G12844   2.983   0.707  10.517  2.3880 -0.8947 -0.1778
  121OSM    C3F12845   2.919   0.914  10.549  0.2456  0.2108  0.1682
  121OSM    H3F12846   2.927   0.990  10.630 -1.6377  0.0709  0.5461
  121OSM    H3G12847   2.810   0.901  10.532 -0.0604  1.6892  0.8161
  121OSM    C4F12848   2.977   0.961  10.409  0.8392 -0.0194 -0.1106
  121OSM    H4F12849   3.088   0.958  10.413  0.9357  0.5043 -1.7067
  121OSM    H4G12850   2.965   1.071  10.402  0.5765  0.0156  0.7273
  121OSM    C5F12851   2.910   0.890  10.293  0.8740 -0.2560 -0.3186
  121OSM    H5F12852   2.799   0.895  10.299  0.8031 -1.2787 -0.5980
  121OSM    H5G12853   2.937   0.783  10.302 -1.1028 -0.7159  0.9532
  121OSM    C6F12854   2.938   0.954  10.156  0.3673  0.1794  0.4190
  121OSM    H6F12855   3.048   0.960  10.146  0.2700  0.9440 -0.3287
  121OSM    H6G12856   2.902   1.059  10.161 -0.5188 -0.0560 -0.5830
  121OSM    C7F12857   2.883   0.865  10.051 -0.3348  0.0399  0.3950
  121OSM    H7F12858   2.773   0.880  10.041 -0.0517  0.8502 -2.0152
  121OSM    H7G12859   2.913   0.759  10.069  0.6207 -0.1395 -1.9656
  121OSM    C8F12860   2.935   0.902   9.910 -0.3639 -0.3013  0.8967
  121OSM    H8F12861   2.912   0.821   9.838  4.0937  0.8861 -2.2766
  121OSM    H8G12862   3.046   0.903   9.911 -0.2364  0.2978 -2.2952
  121OSM    C9F12863   2.873   1.030   9.856  0.3398  0.0167 -0.2905
  121OSM    H9F12864   2.764   1.039   9.868  0.4523  2.9016 -0.7269
  121OSM   C10F12865   2.926   1.127   9.775 -0.0916 -0.0463 -1.1992
  121OSM   H10F12866   2.863   1.205   9.729  1.3761  0.5628 -2.2425
  121OSM   C11F12867   3.058   1.133   9.710  0.0724 -0.2365 -0.1363
  121OSM   H11F12868   3.115   1.043   9.743  0.3934 -0.2503 -0.7279
  121OSM   H11G12869   3.119   1.225   9.725  0.0480 -0.1495 -0.5758
  121OSM   C12F12870   3.063   1.104   9.558 -0.2964 -0.0380 -0.0313
  121OSM   H12F12871   3.019   1.009   9.519 -0.6167  0.2021 -0.2639
  121OSM   H12G12872   3.173   1.107   9.543  0.3866 -2.0360  3.4968
  121OSM   C13F12873   3.000   1.214   9.469 -0.6068  0.7476  0.2500
  121OSM   H13F12874   3.054   1.307   9.499 -3.0064  1.7225  1.9146
  121OSM   H13G12875   2.893   1.221   9.499  0.2881  0.6244  4.1179
  121OSM   C14F12876   3.004   1.193   9.318 -0.2140 -0.4654  0.2313
  121OSM   H14F12877   2.932   1.262   9.269  0.6832  0.5130  0.2490
  121OSM   H14G12878   2.966   1.090   9.304 -0.9516 -0.3130  1.0228
  121OSM   C15F12879   3.139   1.213   9.255  0.1443 -0.2872  0.2066
  121OSM   H15F12880   3.204   1.125   9.274  0.7459 -0.5616 -2.6208
  121OSM   H15G12881   3.193   1.306   9.285  0.6157 -1.2206  2.4344
  121OSM   C16F12882   3.126   1.213   9.104  0.3847  0.2492  0.3736
  121OSM   H16F12883   3.074   1.307   9.076 -0.0015  0.4188  1.5859
  121OSM   H16G12884   3.064   1.123   9.087 -0.8142  1.5291 -2.4923
  121OSM   C17F12885   3.249   1.186   9.016 -0.9103 -0.6536 -0.1153
  121OSM   H17F12886   3.320   1.117   9.067  0.4360  0.3713 -0.5680
  121OSM   H17G12887   3.307   1.280   9.025 -1.9576 -0.0203  0.1422
  121OSM   C18F12888   3.229   1.137   8.868 -0.1765 -0.0164 -0.3087
  121OSM   H18F12889   3.316   1.077   8.833  0.8322  0.1056  1.8623
  121OSM   H18G12890   3.203   1.225   8.805  1.6363  2.0386  1.6401
  121OSM   H18H12891   3.151   1.057   8.872  0.4231 -0.6494 -0.8903
  122OSM      N12892   4.465   1.163  10.850 -1.1843 -0.0732  0.4719
  122OSM    C1512893   4.576   1.178  10.955  0.5518 -0.7566 -0.3990
  122OSM   H15A12894   4.552   1.115  11.040  1.9883 -0.0660  0.5704
  122OSM   H15B12895   4.596   1.280  10.984  0.8330 -0.0680 -2.8525
  122OSM   H15C12896   4.662   1.131  10.909  0.3354 -1.8852  0.3012
  122OSM    C1412897   4.515   1.235  10.726 -0.2002 -0.2843 -0.5447
  122OSM   H14A12898   4.523   1.341  10.744  0.1065 -0.2805 -0.7042
  122OSM   H14B12899   4.458   1.222  10.635  0.6010  0.1414 -1.1304
  122OSM   H14C12900   4.612   1.205  10.689  1.1855  0.6050  2.0879
  122OSM    C1312901   4.458   1.020  10.830 -0.3656 -0.0080 -0.7615
  122OSM   H13A12902   4.552   0.969  10.816 -0.0806 -0.7338  2.8107
  122OSM   H13B12903   4.395   0.987  10.749 -3.0837 -1.0907  1.6197
  122OSM   H13C12904   4.402   0.965  10.904 -1.0404  1.5571 -0.0522
  122OSM    C1212905   4.334   1.214  10.901  0.2775  0.2700 -0.2761
  122OSM   H12A12906   4.294   1.137  10.965  1.4702 -0.1264  0.0164
  122OSM   H12B12907   4.266   1.223  10.817  0.6428 -0.0844 -0.6141
  122OSM    C1112908   4.338   1.348  10.975  0.1227 -0.1260 -0.3881
  122OSM   H11A12909   4.389   1.328  11.072 -0.1444 -1.0552 -0.4329
  122OSM   H11B12910   4.233   1.375  10.999  0.3543 -0.7548  1.4858
  122OSM      P12911   4.482   1.570  10.945 -0.7717  0.2047 -0.0128
  122OSM    O1312912   4.412   1.645  11.049 -0.1491 -0.6911  0.2267
  122OSM    O1412913   4.626   1.532  10.973 -0.3345  0.9695  0.5156
  122OSM    O1112914   4.491   1.667  10.820  0.0550  0.3614 -0.3018
  122OSM    O1212915   4.397   1.448  10.895  0.6686  0.2481  0.1906
  122OSM    C1S12916   4.527   1.598  10.695  0.9001 -0.6123  0.2835
  122OSM    H1S12917   4.448   1.524  10.671 -0.8786  1.3254 -0.1476
  122OSM    H1T12918   4.623   1.544  10.707  1.4343  0.5914  1.6937
  122OSM     NF12919   4.515   1.639  10.455 -0.2436  0.6054 -0.1485
  122OSM    HNF12920   4.591   1.634  10.390  1.1752  0.9569  1.4143
  122OSM    C2S12921   4.537   1.705  10.583  0.0721  0.6010  0.1418
  122OSM    H2S12922   4.447   1.768  10.602 -0.2051  0.2978 -0.1488
  122OSM    C3S12923   4.659   1.794  10.596  0.4389 -0.3066  0.5763
  122OSM    H3S12924   4.749   1.729  10.587  0.3794 -1.0632  4.0666
  122OSM     O312925   4.661   1.852  10.725 -0.1670 -0.0240 -0.0797
  122OSM    HO312926   4.603   1.798  10.780  0.7835  0.1613  1.1448
  122OSM    C4S12927   4.668   1.892  10.489 -0.4483 -0.3537 -0.5388
  122OSM    H4S12928   4.568   1.929  10.461 -0.0304  0.3157 -1.1790
  122OSM    C5S12929   4.773   1.939  10.417  0.4253 -0.0978 -0.1489
  122OSM    H5S12930   4.873   1.910  10.452  0.7812 -1.7263 -2.3332
  122OSM    C6S12931   4.756   2.041  10.308  0.3539  0.2232  0.1821
  122OSM    H6S12932   4.813   2.002  10.221 -0.5618 -2.5158  0.6988
  122OSM    H6T12933   4.806   2.138  10.330 -2.4106  1.6094  0.7578
  122OSM    C7S12934   4.615   2.069  10.260 -0.2819  0.0390 -0.1347
  122OSM    H7S12935   4.551   2.117  10.337  0.8118  2.0994 -0.4266
  122OSM    H7T12936   4.573   1.967  10.244  0.5045  0.0085 -2.4008
  122OSM    C8S12937   4.608   2.151  10.122  0.0089  0.0416  0.4873
  122OSM    H8S12938   4.682   2.233  10.125  1.6620 -1.3814  0.1152
  122OSM    H8T12939   4.505   2.193  10.111  0.1892  0.8303  1.5768
  122OSM    C9S12940   4.649   2.074   9.994 -0.0340 -0.2916 -0.9138
  122OSM    H9S12941   4.582   1.986   9.981  1.0926 -1.2982 -0.1875
  122OSM    H9T12942   4.750   2.032  10.015  0.0435  0.4217  0.2311
  122OSM   C10S12943   4.654   2.156   9.864  0.9729  0.4419  0.0765
  122OSM   H10S12944   4.672   2.264   9.886  0.7735  1.1466 -2.7785
  122OSM   H10T12945   4.553   2.145   9.819  0.5686  1.0898  0.8040
  122OSM   C11S12946   4.760   2.128   9.761  0.4647  0.1770 -0.0969
  122OSM   H11S12947   4.767   2.021   9.733  0.4888 -0.1171  1.0181
  122OSM   H11T12948   4.863   2.152   9.796  0.3027  1.4235 -0.4236
  122OSM   C12S12949   4.721   2.212   9.634  0.4305  0.0048 -0.2376
  122OSM   H12S12950   4.611   2.203   9.624  0.3614  0.3351  0.2206
  122OSM   H12T12951   4.778   2.177   9.545  0.3651  1.5185 -0.9080
  122OSM   C13S12952   4.760   2.356   9.636  0.1838 -0.0657  0.1727
  122OSM   H13S12953   4.861   2.370   9.680  1.0074 -2.3957 -0.8244
  122OSM   H13T12954   4.683   2.418   9.686 -1.2568 -1.1420 -0.6169
  122OSM   C14S12955   4.775   2.423   9.500  0.1334  0.3940 -0.4639
  122OSM   H14S12956   4.854   2.372   9.441 -0.1607  1.7604 -2.1252
  122OSM   H14T12957   4.811   2.527   9.515  0.8452  0.1750 -0.5908
  122OSM   C15S12958   4.646   2.428   9.417  0.1575  0.4795 -0.6123
  122OSM   H15S12959   4.581   2.491   9.480  1.0797 -0.4296  1.3274
  122OSM   H15T12960   4.593   2.330   9.416 -1.4092  1.2775 -1.6513
  122OSM   C16S12961   4.656   2.488   9.276 -0.6610 -0.1856 -0.2151
  122OSM   H16S12962   4.681   2.596   9.271  1.4983 -0.5123  1.7408
  122OSM   H16T12963   4.563   2.463   9.221  1.8860 -1.9301 -4.2743
  122OSM   C17S12964   4.778   2.446   9.191 -0.4109  0.0928  0.4003
  122OSM   H17S12965   4.780   2.335   9.195 -1.4821  0.0979  2.0438
  122OSM   H17T12966   4.870   2.485   9.240 -0.5220  0.6683  0.1587
  122OSM   C18S12967   4.790   2.512   9.049 -0.4512 -0.6290 -0.4325
  122OSM   H18S12968   4.894   2.496   9.015 -0.2486 -1.2498  0.4763
  122OSM   H18T12969   4.780   2.620   9.076  2.2254 -0.1807 -0.9140
  122OSM   H18U12970   4.707   2.490   8.978 -1.8872  3.2088 -0.2014
  122OSM    C1F12971   4.406   1.585  10.407 -0.6872  0.0882  0.5571
  122OSM     OF12972   4.309   1.579  10.477 -0.6671 -0.0427  0.4321
  122OSM    C2F12973   4.410   1.521  10.274  0.5571 -0.0092  1.5727
  122OSM    H2F12974   4.463   1.424  10.280 -2.0473 -1.5981  0.5954
  122OSM    H2G12975   4.468   1.588  10.207 -0.3825 -0.6363  0.0741
  122OSM    C3F12976   4.260   1.491  10.236  0.8066  0.4454 -0.2325
  122OSM    H3F12977   4.206   1.588  10.232 -0.0495 -0.0524 -1.0449
  122OSM    H3G12978   4.193   1.441  10.310  0.3965  0.2420 -0.7353
  122OSM    C4F12979   4.252   1.413  10.103 -0.6113  0.0367  0.2821
  122OSM    H4F12980   4.152   1.400  10.057  0.3228 -1.7313 -1.4052
  122OSM    H4G12981   4.283   1.310  10.129 -1.5282  0.0978  1.6961
  122OSM    C5F12982   4.345   1.464   9.990 -0.2958 -0.0773 -0.2441
  122OSM    H5F12983   4.452   1.444  10.012  0.2683  1.4610 -1.3722
  122OSM    H5G12984   4.334   1.574   9.979  0.1661  0.1430  1.3689
  122OSM    C6F12985   4.301   1.402   9.859 -0.4230  0.9800  0.2554
  122OSM    H6F12986   4.190   1.409   9.857 -0.8674 -1.8700  3.8935
  122OSM    H6G12987   4.306   1.291   9.862  0.2491  0.8163 -3.2007
  122OSM    C7F12988   4.397   1.444   9.743 -0.2269  0.0862  0.7114
  122OSM    H7F12989   4.491   1.386   9.754 -0.8108 -0.7557  1.4502
  122OSM    H7G12990   4.419   1.552   9.733  0.6573 -0.0854  0.7188
  122OSM    C8F12991   4.340   1.393   9.612  0.9415  0.9508  0.5978
  122OSM    H8F12992   4.312   1.285   9.618 -1.8392  1.6163  1.2861
  122OSM    H8G12993   4.416   1.390   9.531  2.6343 -0.5895  2.1526
  122OSM    C9F12994   4.220   1.470   9.566 -0.0078  0.2220  0.2338
  122OSM    H9F12995   4.133   1.454   9.630 -2.2245 -0.0941 -2.6367
  122OSM   C10F12996   4.207   1.538   9.451  0.4605 -0.4049  0.9346
  122OSM   H10F12997   4.118   1.600   9.436 -0.0308 -1.4616 -0.9046
  122OSM   C11F12998   4.304   1.548   9.337 -0.5311  0.0623  0.0705
  122OSM   H11F12999   4.405   1.587   9.362  0.5904 -1.5814 -1.6123
  122OSM   H11G13000   4.257   1.624   9.270  1.7665  2.5120  1.0661
  122OSM   C12F13001   4.333   1.415   9.251 -0.2507 -0.4383 -0.2876
  122OSM   H12F13002   4.382   1.334   9.310  0.5717  0.2449 -0.0162
  122OSM   H12G13003   4.415   1.446   9.183  0.4916 -1.8004 -0.0587
  122OSM   C13F13004   4.216   1.347   9.178 -0.4287  0.0191  0.0669
  122OSM   H13F13005   4.181   1.412   9.095 -0.7953  1.3789  1.2421
  122OSM   H13G13006   4.127   1.339   9.244  0.5250  0.5995  1.4772
  122OSM   C14F13007   4.245   1.215   9.108  0.5945 -1.1295 -1.0389
  122OSM   H14F13008   4.149   1.193   9.056 -0.9293 -0.4607  1.3078
  122OSM   H14G13009   4.249   1.140   9.190 -1.8402  1.7174  1.9886
  122OSM   C15F13010   4.371   1.218   9.017  0.5236 -0.1148  0.0129
  122OSM   H15F13011   4.459   1.197   9.081  1.4112 -3.1702 -2.0199
  122OSM   H15G13012   4.372   1.318   8.967 -0.1567  0.2912  0.7750
  122OSM   C16F13013   4.357   1.114   8.907 -0.8703  0.2663 -0.0650
  122OSM   H16F13014   4.370   1.013   8.951 -0.6894  0.4912  0.4038
  122OSM   H16G13015   4.446   1.120   8.840 -0.1587  1.6317  0.9777
  122OSM   C17F13016   4.232   1.126   8.813 -0.5690 -0.1116  0.2508
  122OSM   H17F13017   4.218   1.230   8.777 -0.7291  1.1361  3.5797
  122OSM   H17G13018   4.137   1.112   8.869 -0.4233  0.2197  0.5945
  122OSM   C18F13019   4.223   1.030   8.690  0.0576 -0.1592 -0.2147
  122OSM   H18F13020   4.331   1.016   8.667 -0.0788  0.9770 -1.7749
  122OSM   H18G13021   4.181   1.079   8.599 -0.5963 -0.9000 -0.3242
  122OSM   H18H13022   4.175   0.932   8.709 -0.6230  0.5631  2.0621
  123OSM      N13023   1.263   5.112   5.882  0.2194  0.8119  0.0238
  123OSM    C1513024   1.353   5.007   5.814 -0.3613 -0.2778  0.1540
  123OSM   H15A13025   1.402   4.938   5.881  0.5725  0.1378 -0.0823
  123OSM   H15B13026   1.428   5.054   5.751 -0.9985  0.5752  0.0105
  123OSM   H15C13027   1.297   4.941   5.751 -0.9284  0.9054 -0.6233
  123OSM    C1413028   1.200   5.199   5.778  0.1413 -0.5948 -0.2189
  123OSM   H14A13029   1.135   5.278   5.814 -0.8698 -2.6209  2.7202
  123OSM   H14B13030   1.142   5.139   5.709  1.2695 -1.9798 -0.0027
  123OSM   H14C13031   1.278   5.248   5.722  0.4314 -0.0668  0.6240
  123OSM    C1313032   1.158   5.031   5.963  0.6106  0.6456 -0.3074
  123OSM   H13A13033   1.131   4.954   5.893  3.3428 -0.0679 -0.6845
  123OSM   H13B13034   1.081   5.098   5.997  0.3032 -0.3680  1.0879
  123OSM   H13C13035   1.197   4.974   6.047  2.1677 -1.3421 -2.2758
  123OSM    C1213036   1.349   5.195   5.971 -0.5960 -0.0444 -0.6866
  123OSM   H12A13037   1.279   5.254   6.029  0.1939 -0.0131  0.2594
  123OSM   H12B13038   1.412   5.260   5.913  2.4094  0.0567  2.4000
  123OSM    C1113039   1.457   5.124   6.062  0.1621  0.5183 -0.6834
  123OSM   H11A13040   1.393   5.043   6.104  1.3475 -0.7051 -1.1650
  123OSM   H11B13041   1.496   5.196   6.137  2.4141 -1.7394  0.4808
  123OSM      P13042   1.713   5.089   6.029 -0.0311  0.0780  0.6308
  123OSM    O1313043   1.791   4.971   5.983 -0.3717 -0.5107  0.0547
  123OSM    O1413044   1.746   5.221   5.968 -0.1832  0.5497  0.0820
  123OSM    O1113045   1.702   5.102   6.185 -0.4988 -0.9478  0.6479
  123OSM    O1213046   1.564   5.060   5.996 -0.5555  0.0469  0.0112
  123OSM    C1S13047   1.698   4.992   6.272  0.9649 -0.6100  0.2295
  123OSM    H1S13048   1.744   4.901   6.227 -1.5745 -1.8165 -0.1174
  123OSM    H1T13049   1.595   4.954   6.287  0.3735 -0.0953 -2.1186
  123OSM     NF13050   1.747   4.905   6.498 -0.0758  0.0053  0.1970
  123OSM    HNF13051   1.699   4.909   6.585  0.0475 -0.3291  0.2838
  123OSM    C2S13052   1.760   5.018   6.405 -0.5584 -0.0183  0.4563
  123OSM    H2S13053   1.867   5.033   6.377 -0.3049 -2.0683  0.1471
  123OSM    C3S13054   1.705   5.153   6.456 -0.5106  0.5746 -0.1702
  123OSM    H3S13055   1.595   5.152   6.469 -0.3271  0.7250  1.6887
  123OSM     O313056   1.716   5.270   6.369  0.0986  0.3717 -0.5366
  123OSM    HO313057   1.712   5.232   6.281  1.6090 -0.0476 -0.4401
  123OSM    C4S13058   1.761   5.185   6.594  0.4540  0.3641  0.1788
  123OSM    H4S13059   1.868   5.169   6.615  0.2537  0.8832  1.7144
  123OSM    C5S13060   1.688   5.234   6.699 -0.2990  0.3040 -0.5197
  123OSM    H5S13061   1.580   5.246   6.684 -0.4323 -1.8290 -1.6437
  123OSM    C6S13062   1.740   5.255   6.837 -0.2475 -0.0505 -0.5713
  123OSM    H6S13063   1.704   5.358   6.857  0.6164 -0.2493  2.5351
  123OSM    H6T13064   1.850   5.270   6.847 -0.5073  1.5125  0.3989
  123OSM    C7S13065   1.700   5.154   6.942 -0.2134 -0.4395  1.1580
  123OSM    H7S13066   1.776   5.075   6.929  2.0626  1.8193 -0.2862
  123OSM    H7T13067   1.592   5.130   6.948 -0.8722  2.0984  0.8153
  123OSM    C8S13068   1.735   5.218   7.080 -0.2542  0.0457 -0.0318
  123OSM    H8S13069   1.672   5.309   7.089  0.6227  0.4884  1.9895
  123OSM    H8T13070   1.839   5.256   7.073  0.3384 -1.5451 -0.1566
  123OSM    C9S13071   1.720   5.130   7.193 -0.0986  0.4524  0.0016
  123OSM    H9S13072   1.763   5.036   7.153  0.0680  0.0104  1.1795
  123OSM    H9T13073   1.611   5.111   7.207  0.1661 -0.9662  0.3307
  123OSM   C10S13074   1.780   5.162   7.328  0.2405  1.0061 -0.5343
  123OSM   H10S13075   1.721   5.249   7.363 -1.2268  0.0112 -0.4322
  123OSM   H10T13076   1.886   5.191   7.312  0.6979  0.7865  1.8118
  123OSM   C11S13077   1.754   5.048   7.431 -0.0500 -0.1377 -0.3403
  123OSM   H11S13078   1.820   4.960   7.414 -0.8351 -0.6255 -0.9272
  123OSM   H11T13079   1.658   5.000   7.402  0.1707 -1.8967  1.6025
  123OSM   C12S13080   1.750   5.097   7.581  0.3501 -0.3075 -0.0304
  123OSM   H12S13081   1.695   5.193   7.592 -0.9238 -0.8960 -0.9679
  123OSM   H12T13082   1.851   5.123   7.617  0.0125  0.9081  0.0878
  123OSM   C13S13083   1.711   4.982   7.679 -0.0011 -0.5927  0.0296
  123OSM   H13S13084   1.759   4.892   7.635  2.6845  0.9976 -0.5257
  123OSM   H13T13085   1.600   4.976   7.674 -0.0477  0.8449 -2.2430
  123OSM   C14S13086   1.746   5.024   7.819 -0.6371  0.1986  0.1943
  123OSM   H14S13087   1.689   5.114   7.850  0.9479  1.3525 -0.1021
  123OSM   H14T13088   1.856   5.038   7.821 -0.5526 -0.4575  0.4005
  123OSM   C15S13089   1.693   4.920   7.915  0.0712  0.3712 -0.8570
  123OSM   H15S13090   1.725   4.821   7.877 -1.7639  0.3397 -2.4940
  123OSM   H15T13091   1.582   4.913   7.911 -0.0368 -0.7045  1.7966
  123OSM   C16S13092   1.752   4.948   8.057 -0.0080  1.2429  0.1851
  123OSM   H16S13093   1.862   4.954   8.039 -0.1152  2.0632 -0.2308
  123OSM   H16T13094   1.718   4.862   8.119  2.5872  0.4046  0.6030
  123OSM   C17S13095   1.721   5.083   8.119 -0.1230 -0.2486  0.5667
  123OSM   H17S13096   1.617   5.120   8.126  0.4377  1.0622  3.1070
  123OSM   H17T13097   1.784   5.158   8.066  0.7927 -2.3492 -1.5166
  123OSM   C18S13098   1.765   5.077   8.264  0.5095 -0.2623 -0.0524
  123OSM   H18S13099   1.687   5.023   8.321  1.6827 -0.5471  1.3611
  123OSM   H18T13100   1.761   5.179   8.306  0.0285 -0.0826 -0.5242
  123OSM   H18U13101   1.857   5.018   8.286  0.9384  0.0675 -0.8763
  123OSM    C1F13102   1.830   4.799   6.486  0.1958  0.5906  0.3475
  123OSM     OF13103   1.913   4.794   6.396  0.1176  0.0493 -0.3323
  123OSM    C2F13104   1.828   4.688   6.594  0.5882 -0.0426 -0.0058
  123OSM    H2F13105   1.809   4.592   6.541  0.4571 -0.6723  1.1488
  123OSM    H2G13106   1.748   4.708   6.668 -1.3622 -1.6315 -1.5542
  123OSM    C3F13107   1.958   4.674   6.668  0.3403  0.4246  0.4849
  123OSM    H3F13108   2.049   4.671   6.605  0.8907 -2.3919  1.2833
  123OSM    H3G13109   1.951   4.579   6.724  1.5524 -0.1462 -0.3070
  123OSM    C4F13110   1.978   4.782   6.772  0.3014 -0.4599 -0.4599
  123OSM    H4F13111   1.896   4.781   6.847  0.6660  1.5153  0.0289
  123OSM    H4G13112   1.983   4.886   6.735  1.4632 -0.6536 -0.8775
  123OSM    C5F13113   2.113   4.759   6.843  0.1054 -0.5797 -0.3407
  123OSM    H5F13114   2.189   4.761   6.762 -0.5658  3.4172 -1.0947
  123OSM    H5G13115   2.122   4.662   6.896 -0.8357  0.2885  1.5300
  123OSM    C6F13116   2.142   4.866   6.952 -0.2206  0.2848 -0.6476
  123OSM    H6F13117   2.134   4.970   6.913  1.6072  1.0545  0.8576
  123OSM    H6G13118   2.246   4.853   6.987 -0.7420  0.8047  1.2032
  123OSM    C7F13119   2.048   4.868   7.071  0.2809  0.5650 -0.3457
  123OSM    H7F13120   2.044   4.764   7.110 -1.9491 -0.3429 -2.6731
  123OSM    H7G13121   1.947   4.881   7.027 -0.5552 -2.1733  0.6028
  123OSM    C8F13122   2.087   4.960   7.184 -0.7249 -0.3891  0.6978
  123OSM    H8F13123   2.016   4.958   7.269 -1.3225  0.8229  0.2623
  123OSM    H8G13124   2.074   5.061   7.138 -1.4039 -0.8590 -0.1647
  123OSM    C9F13125   2.231   4.945   7.228  0.1506 -0.7457  0.9612
  123OSM    H9F13126   2.300   5.000   7.163  0.1351  1.0828  2.4171
  123OSM   C10F13127   2.276   4.889   7.344  0.0421 -0.7293  1.1888
  123OSM   H10F13128   2.386   4.894   7.354  0.2325 -0.5591 -0.6152
  123OSM   C11F13129   2.190   4.826   7.449 -1.1115  0.0431 -0.1764
  123OSM   H11F13130   2.205   4.716   7.441 -0.6628  0.1369 -0.6082
  123OSM   H11G13131   2.085   4.852   7.423 -1.1456  1.1033  0.9281
  123OSM   C12F13132   2.229   4.860   7.595  0.0693  0.2521  0.8646
  123OSM   H12F13133   2.338   4.841   7.605  0.0857 -0.8432 -0.9700
  123OSM   H12G13134   2.186   4.783   7.662  0.3836  0.3987  1.2378
  123OSM   C13F13135   2.171   4.991   7.636  0.5040  0.3550 -0.2830
  123OSM   H13F13136   2.063   4.983   7.609 -0.3337  1.8025  2.2509
  123OSM   H13G13137   2.207   5.068   7.566  2.2492 -0.3058 -0.1602
  123OSM   C14F13138   2.195   5.031   7.777  0.3225 -0.5009 -0.4669
  123OSM   H14F13139   2.131   5.120   7.796 -1.9399 -2.5169  2.2489
  123OSM   H14G13140   2.301   5.063   7.789  0.3265 -0.5288 -0.4283
  123OSM   C15F13141   2.187   4.926   7.887 -0.0643 -0.3665  0.6498
  123OSM   H15F13142   2.281   4.867   7.876 -0.2036 -0.6790  1.1364
  123OSM   H15G13143   2.098   4.862   7.869 -1.5765  0.8585  3.1759
  123OSM   C16F13144   2.195   4.995   8.024 -0.0337  0.9012 -0.3851
  123OSM   H16F13145   2.098   5.046   8.040 -0.1943  0.8081 -1.0377
  123OSM   H16G13146   2.284   5.062   8.033 -0.1588  1.3379 -2.0898
  123OSM   C17F13147   2.204   4.885   8.139 -0.0711  0.2248  0.0692
  123OSM   H17F13148   2.274   4.801   8.119 -1.7276 -2.1344  3.1750
  123OSM   H17G13149   2.105   4.835   8.126 -0.8390  1.6103  0.3498
  123OSM   C18F13150   2.244   4.936   8.277  0.2386  0.0718  0.6506
  123OSM   H18F13151   2.353   4.957   8.287  0.0723  0.3920  1.8269
  123OSM   H18G13152   2.224   4.862   8.357  0.7123  0.2111  0.8995
  123OSM   H18H13153   2.188   5.027   8.305  0.1323  0.7406 -1.4937
  124OSM      N13154   3.214   2.432   6.285  0.7141  0.6425  0.3123
  124OSM    C1513155   3.144   2.327   6.354  0.4482  0.5041  0.1749
  124OSM   H15A13156   3.200   2.270   6.427 -0.1445 -0.7654 -0.3326
  124OSM   H15B13157   3.105   2.257   6.282  0.1351 -0.4138  1.2057
  124OSM   H15C13158   3.059   2.375   6.400  0.0047 -1.5157  1.5945
  124OSM    C1413159   3.317   2.359   6.201  0.4448 -0.7520 -0.1634
  124OSM   H14A13160   3.280   2.274   6.147 -1.3442 -0.3267  0.3185
  124OSM   H14B13161   3.395   2.320   6.264  2.0772  2.5709  0.1119
  124OSM   H14C13162   3.353   2.424   6.122 -0.6022  0.2970  0.1915
  124OSM    C1313163   3.118   2.490   6.190  0.2437  0.6576  0.2470
  124OSM   H13A13164   3.049   2.415   6.156 -0.3156 -0.2156  3.0092
  124OSM   H13B13165   3.162   2.538   6.104  0.4065 -2.8319 -1.8055
  124OSM   H13C13166   3.046   2.557   6.236  0.1586  0.7487 -0.0208
  124OSM    C1213167   3.277   2.540   6.373  0.2698  0.0731  0.3782
  124OSM   H12A13168   3.305   2.621   6.307  0.2231 -0.5710 -0.4425
  124OSM   H12B13169   3.362   2.505   6.430 -1.2160  2.1082  4.2052
  124OSM    C1113170   3.202   2.608   6.487 -0.6193 -0.0752  1.3838
  124OSM   H11A13171   3.274   2.678   6.534  0.1873 -1.3191  2.0833
  124OSM   H11B13172   3.169   2.537   6.566 -1.9236  0.7952  1.6446
  124OSM      P13173   3.074   2.814   6.388 -0.1359 -0.0595  0.2182
  124OSM    O1313174   3.185   2.842   6.288 -0.0846  0.0964 -0.0728
  124OSM    O1413175   2.940   2.834   6.344 -0.3077 -0.8633  0.0431
  124OSM    O1113176   3.102   2.887   6.523 -0.0219 -0.1036  0.0484
  124OSM    O1213177   3.088   2.664   6.431  0.1005  0.2990 -0.3048
  124OSM    C1S13178   3.047   2.833   6.641 -0.2878  0.2173 -0.2922
  124OSM    H1S13179   3.125   2.764   6.681 -0.2945  0.7717  0.6914
  124OSM    H1T13180   2.952   2.777   6.625 -1.7321  1.7439  2.2895
  124OSM     NF13181   2.948   2.893   6.855 -0.2440  0.1130  0.4886
  124OSM    HNF13182   2.850   2.908   6.865 -0.2700  0.0598  0.3259
  124OSM    C2S13183   3.007   2.948   6.737  0.3804 -0.6394  0.2590
  124OSM    H2S13184   3.098   3.004   6.769 -1.4138  2.3183  0.5839
  124OSM    C3S13185   2.925   3.063   6.675  0.6598 -0.7356  0.5978
  124OSM    H3S13186   2.830   3.028   6.630  0.1414  1.3062  0.0047
  124OSM     O313187   2.997   3.135   6.573  0.3626  0.4793 -0.0793
  124OSM    HO313188   3.083   3.093   6.567  0.2586  0.4508 -2.7663
  124OSM    C4S13189   2.879   3.161   6.776  1.3158 -0.0500  0.0535
  124OSM    H4S13190   2.776   3.132   6.802  1.8760 -4.8544 -2.0592
  124OSM    C5S13191   2.924   3.275   6.831 -0.2384  0.2430  0.1898
  124OSM    H5S13192   3.011   3.326   6.788 -0.6251 -0.5382 -1.6449
  124OSM    C6S13193   2.848   3.350   6.931  0.4609  0.3544 -1.0782
  124OSM    H6S13194   2.742   3.316   6.926  0.1855  0.4090  2.0314
  124OSM    H6T13195   2.860   3.459   6.914  0.6100  1.2244  3.3358
  124OSM    C7S13196   2.864   3.316   7.085  0.3164  0.7617  0.5021
  124OSM    H7S13197   2.775   3.350   7.141  0.3682  0.4274  0.7887
  124OSM    H7T13198   2.956   3.362   7.126 -0.0296  0.8253  1.2283
  124OSM    C8S13199   2.869   3.170   7.114 -0.0122 -0.8684  0.5449
  124OSM    H8S13200   2.948   3.121   7.052 -0.9477  1.8595 -3.1212
  124OSM    H8T13201   2.783   3.108   7.082  0.3700 -0.8537 -0.5750
  124OSM    C9S13202   2.894   3.136   7.261  0.4853 -0.5366  0.6058
  124OSM    H9S13203   2.998   3.163   7.289 -0.0517  1.3131  0.9428
  124OSM    H9T13204   2.874   3.027   7.273  1.8074 -0.8534  0.1105
  124OSM   C10S13205   2.791   3.217   7.349  0.0345  0.1843 -0.3466
  124OSM   H10S13206   2.687   3.216   7.309 -0.8419 -0.0243  1.8241
  124OSM   H10T13207   2.818   3.324   7.353 -0.0169  0.1976  3.9907
  124OSM   C11S13208   2.789   3.170   7.496 -0.4208 -0.6237  0.1038
  124OSM   H11S13209   2.888   3.176   7.546 -0.2498  1.3995 -0.4044
  124OSM   H11T13210   2.753   3.067   7.516 -0.9855 -0.1474  1.7437
  124OSM   C12S13211   2.697   3.256   7.577  0.8498 -0.2992  0.2371
  124OSM   H12S13212   2.605   3.254   7.514  0.6221 -1.5344  0.5746
  124OSM   H12T13213   2.732   3.362   7.572  1.0778 -0.4205 -0.9895
  124OSM   C13S13214   2.674   3.221   7.720  0.4996  0.1940  0.3771
  124OSM   H13S13215   2.680   3.111   7.732  0.0104  0.1981  0.6566
  124OSM   H13T13216   2.576   3.254   7.760  0.2928 -2.0019  1.7994
  124OSM   C14S13217   2.786   3.287   7.806  0.1511 -0.0852 -0.3784
  124OSM   H14S13218   2.758   3.394   7.809  0.4097 -0.0299  0.2849
  124OSM   H14T13219   2.887   3.285   7.761  1.1449  0.4025  1.6768
  124OSM   C15S13220   2.786   3.220   7.948 -0.0119  0.3150  0.3115
  124OSM   H15S13221   2.684   3.198   7.985 -0.5977  1.0812 -0.7734
  124OSM   H15T13222   2.827   3.288   8.026 -0.7000 -0.1511  1.0937
  124OSM   C16S13223   2.863   3.091   7.943 -0.8337  0.4242  0.8257
  124OSM   H16S13224   2.970   3.107   7.918 -0.6207 -1.2254  0.5327
  124OSM   H16T13225   2.835   3.012   7.870  1.5346  0.6798 -0.4768
  124OSM   C17S13226   2.866   3.013   8.077  0.2713 -1.1160  0.2229
  124OSM   H17S13227   2.921   2.916   8.081 -0.6597 -1.6717 -0.1138
  124OSM   H17T13228   2.760   2.981   8.087  0.2983 -1.5306 -0.6621
  124OSM   C18S13229   2.912   3.099   8.199  0.0428  0.5620  0.7041
  124OSM   H18S13230   3.022   3.105   8.193  0.2212 -2.3618 -0.6167
  124OSM   H18T13231   2.885   3.036   8.286 -0.5149  1.4140  1.1719
  124OSM   H18U13232   2.871   3.203   8.207  0.1110  0.6420  0.0866
  124OSM    C1F13233   3.010   2.813   6.941  0.5663  0.0009 -0.0053
  124OSM     OF13234   3.126   2.780   6.927 -0.1603 -0.2144 -0.5396
  124OSM    C2F13235   2.922   2.767   7.057 -0.5618  0.0788  0.6525
  124OSM    H2F13236   2.826   2.729   7.018 -0.7739  1.3452 -0.1075
  124OSM    H2G13237   2.896   2.859   7.114  1.2446  0.8452  0.3292
  124OSM    C3F13238   3.004   2.669   7.152 -0.5950 -0.2577  0.1950
  124OSM    H3F13239   3.084   2.735   7.192  0.4654  0.2453 -2.5299
  124OSM    H3G13240   3.058   2.596   7.088  0.0403  0.6802 -0.3688
  124OSM    C4F13241   2.917   2.606   7.250  0.1665 -0.1643 -0.3104
  124OSM    H4F13242   2.850   2.525   7.217 -1.3208  0.0762  1.8682
  124OSM    H4G13243   2.853   2.689   7.288 -1.1640 -0.6242 -1.4857
  124OSM    C5F13244   2.997   2.546   7.366 -0.8176  0.0300 -0.1131
  124OSM    H5F13245   3.049   2.630   7.415  2.2099 -0.4753 -2.1736
  124OSM    H5G13246   3.069   2.467   7.337 -0.2910 -0.9907  3.4860
  124OSM    C6F13247   2.914   2.473   7.470 -0.5957 -0.3471  0.1120
  124OSM    H6F13248   2.860   2.398   7.410  2.7618 -0.4924 -3.1123
  124OSM    H6G13249   2.844   2.537   7.529 -0.7608 -1.4807  1.1922
  124OSM    C7F13250   3.005   2.405   7.575 -0.1342 -0.2536  0.3518
  124OSM    H7F13251   3.071   2.483   7.618  0.7473  0.1595 -1.6343
  124OSM    H7G13252   3.074   2.339   7.518  1.4993  1.2362  0.4977
  124OSM    C8F13253   2.924   2.338   7.684 -0.5191  0.7921 -0.9581
  124OSM    H8F13254   3.000   2.270   7.727  0.1824  3.3880  2.3724
  124OSM    H8G13255   2.846   2.274   7.638 -2.2620  0.4549  2.2083
  124OSM    C9F13256   2.860   2.425   7.793  0.3520  0.1855  0.5793
  124OSM    H9F13257   2.754   2.451   7.785  0.3399 -0.1732 -0.5509
  124OSM   C10F13258   2.929   2.478   7.896  0.7761  0.1885  0.7766
  124OSM   H10F13259   2.870   2.531   7.973 -1.0162 -1.2722  0.4713
  124OSM   C11F13260   3.078   2.465   7.926 -0.7568 -0.4651  0.2643
  124OSM   H11F13261   3.106   2.546   7.997  0.2859 -0.9268  0.4045
  124OSM   H11G13262   3.135   2.477   7.832  0.0786  1.8918  1.0071
  124OSM   C12F13263   3.107   2.329   7.988  0.3370 -0.0281  0.0555
  124OSM   H12F13264   3.076   2.250   7.916  0.0852  0.6533 -0.5960
  124OSM   H12G13265   3.046   2.308   8.079 -0.9680 -1.4189 -1.0764
  124OSM   C13F13266   3.261   2.305   8.034  1.0848  0.0040 -0.5928
  124OSM   H13F13267   3.322   2.309   7.941 -0.0029 -0.1860 -1.3268
  124OSM   H13G13268   3.271   2.203   8.078 -0.1365 -0.6693 -1.8280
  124OSM   C14F13269   3.319   2.412   8.129  0.7502 -0.1897  0.4516
  124OSM   H14F13270   3.330   2.508   8.074 -0.3040 -0.9645 -1.1904
  124OSM   H14G13271   3.424   2.392   8.161  1.5300  3.2785  0.3582
  124OSM   C15F13272   3.240   2.435   8.262  0.2770 -0.1454  0.3344
  124OSM   H15F13273   3.133   2.457   8.237  1.5568  3.1611 -3.2096
  124OSM   H15G13274   3.282   2.527   8.307  0.2196  0.7392 -1.3400
  124OSM   C16F13275   3.249   2.322   8.360  0.1059  0.8717 -0.5694
  124OSM   H16F13276   3.355   2.290   8.368 -0.0182  0.6638  0.3980
  124OSM   H16G13277   3.186   2.239   8.320  2.0486 -1.7494  1.4446
  124OSM   C17F13278   3.191   2.351   8.496 -0.0355 -0.9337 -0.3545
  124OSM   H17F13279   3.097   2.409   8.490  0.2568 -0.4638 -0.4360
  124OSM   H17G13280   3.255   2.420   8.555 -2.5027  0.1939  1.1148
  124OSM   C18F13281   3.170   2.219   8.578 -0.3508 -0.3924 -0.4079
  124OSM   H18F13282   3.270   2.177   8.603 -0.3066  0.3870  0.8062
  124OSM   H18G13283   3.100   2.157   8.518 -1.2893 -1.0133  1.2464
  124OSM   H18H13284   3.117   2.252   8.670  1.4297  1.2624  0.0810
  125OSM      N13285   5.602   3.704   6.356  0.2339 -0.0221 -0.2576
  125OSM    C1513286   5.705   3.603   6.387 -0.1378  0.1566 -0.3558
  125OSM   H15A13287   5.654   3.515   6.422  0.0354  0.5902  1.0770
  125OSM   H15B13288   5.775   3.628   6.466 -0.2238 -0.2493 -0.1494
  125OSM   H15C13289   5.762   3.585   6.297  1.6204  2.6231  0.1508
  125OSM    C1413290   5.664   3.814   6.278  0.1111 -0.5087 -0.3899
  125OSM   H14A13291   5.582   3.876   6.247  1.2951  0.8292 -0.9128
  125OSM   H14B13292   5.711   3.762   6.195 -1.3532 -0.3814 -1.3288
  125OSM   H14C13293   5.723   3.865   6.352 -1.5001  0.0693  0.5276
  125OSM    C1313294   5.505   3.641   6.258 -0.6622  0.0963 -1.0786
  125OSM   H13A13295   5.452   3.560   6.307  1.4735  0.3139  1.8332
  125OSM   H13B13296   5.560   3.611   6.169  2.4748 -0.3865  0.8800
  125OSM   H13C13297   5.429   3.715   6.237  1.9489  4.0268  2.0755
  125OSM    C1213298   5.541   3.738   6.488 -0.1313 -0.5089  0.3437
  125OSM   H12A13299   5.619   3.771   6.555 -0.6903 -1.2368  1.3860
  125OSM   H12B13300   5.504   3.650   6.537 -2.7353  0.1644 -0.2568
  125OSM    C1113301   5.420   3.835   6.494 -1.2536  0.9045 -0.3358
  125OSM   H11A13302   5.457   3.932   6.456 -1.9435  0.7079 -1.5650
  125OSM   H11B13303   5.392   3.859   6.599 -1.9832  0.3766 -0.4042
  125OSM      P13304   5.212   3.700   6.452  0.1463  0.0213  0.0974
  125OSM    O1313305   5.082   3.736   6.396 -0.2292 -0.2537  0.3426
  125OSM    O1413306   5.268   3.565   6.419  0.0761  0.1894 -0.3260
  125OSM    O1113307   5.202   3.708   6.611  0.6621  0.1036  0.1633
  125OSM    O1213308   5.311   3.814   6.413 -1.4600  0.0586 -0.1816
  125OSM    C1S13309   5.130   3.814   6.673  0.3624 -0.3332 -0.4823
  125OSM    H1S13310   5.030   3.815   6.625  0.6593 -2.2917 -1.2281
  125OSM    H1T13311   5.179   3.912   6.650 -0.4370  0.2538  0.2352
  125OSM     NF13312   5.007   3.858   6.891  0.3309 -0.1719  0.0442
  125OSM    HNF13313   5.021   3.948   6.930  4.1626 -0.7354  0.2888
  125OSM    C2S13314   5.118   3.794   6.824 -0.0172 -0.5178 -0.3024
  125OSM    H2S13315   5.107   3.684   6.840 -0.6069 -0.3389  0.5487
  125OSM    C3S13316   5.258   3.829   6.887 -0.1809 -0.2817 -0.5602
  125OSM    H3S13317   5.300   3.925   6.853  2.1762 -1.6486 -1.7706
  125OSM     O313318   5.359   3.746   6.830  0.5199  0.5307 -0.3928
  125OSM    HO313319   5.329   3.700   6.752  2.0709 -1.5448  0.1524
  125OSM    C4S13320   5.267   3.810   7.035  0.7772 -1.0352 -0.0718
  125OSM    H4S13321   5.282   3.704   7.060 -1.5188 -1.4475 -0.3044
  125OSM    C5S13322   5.242   3.905   7.137 -0.4461  0.5920 -0.7177
  125OSM    H5S13323   5.209   4.008   7.117  1.6326  1.8391  1.6977
  125OSM    C6S13324   5.243   3.874   7.282  0.2327  0.1691 -0.7834
  125OSM    H6S13325   5.281   3.949   7.355  1.8070  0.5165 -1.9215
  125OSM    H6T13326   5.298   3.780   7.305 -0.8596 -0.5778 -1.1217
  125OSM    C7S13327   5.108   3.830   7.326  0.4239 -0.1659 -0.3940
  125OSM    H7S13328   5.071   3.744   7.266  1.5858 -0.5650 -0.5794
  125OSM    H7T13329   5.033   3.910   7.311 -0.4930 -0.3892  2.4660
  125OSM    C8S13330   5.101   3.768   7.468  0.2152  0.4735 -0.5960
  125OSM    H8S13331   5.151   3.669   7.467  2.0197  1.3519 -0.6807
  125OSM    H8T13332   4.991   3.757   7.479 -0.0010  0.0123 -2.7684
  125OSM    C9S13333   5.137   3.857   7.585 -0.0403  0.3773  0.2673
  125OSM    H9S13334   5.054   3.931   7.583 -1.5306 -1.1466  1.9717
  125OSM    H9T13335   5.234   3.907   7.567  0.0372  0.8229  1.8316
  125OSM   C10S13336   5.138   3.781   7.719 -0.3623  0.3437  0.2187
  125OSM   H10S13337   5.235   3.728   7.721  0.5283  1.8826 -0.4667
  125OSM   H10T13338   5.049   3.715   7.711  0.6007 -1.2805  2.0300
  125OSM   C11S13339   5.118   3.873   7.839 -0.1848 -0.6922  0.1496
  125OSM   H11S13340   5.035   3.943   7.815 -0.4048 -1.6133 -2.0290
  125OSM   H11T13341   5.219   3.915   7.860  0.9661 -3.0847 -0.2751
  125OSM   C12S13342   5.069   3.801   7.963  0.0664  0.5086  0.1866
  125OSM   H12S13343   4.973   3.758   7.927  0.4151 -1.0608  1.0152
  125OSM   H12T13344   5.046   3.881   8.036 -0.2326  1.6987 -1.1576
  125OSM   C13S13345   5.176   3.698   8.012 -0.1022 -0.1533  0.4790
  125OSM   H13S13346   5.237   3.758   8.083  0.2714 -0.3533  0.3339
  125OSM   H13T13347   5.235   3.658   7.927 -1.0426 -2.3474  0.7980
  125OSM   C14S13348   5.125   3.582   8.091 -0.2443  0.2722 -0.5906
  125OSM   H14S13349   5.050   3.519   8.037 -0.4687  0.7260 -0.8111
  125OSM   H14T13350   5.079   3.622   8.183 -1.9991 -3.4253  0.3595
  125OSM   C15S13351   5.245   3.497   8.142  0.3097 -0.4714 -0.8646
  125OSM   H15S13352   5.305   3.567   8.204  1.4426  1.5174 -3.9642
  125OSM   H15T13353   5.309   3.467   8.056 -1.2441  0.0869 -2.2784
  125OSM   C16S13354   5.201   3.374   8.224  1.0269  0.2929  0.4845
  125OSM   H16S13355   5.116   3.398   8.292  1.8524  0.5648  1.4475
  125OSM   H16T13356   5.286   3.334   8.282  1.1099 -1.2905 -0.6626
  125OSM   C17S13357   5.150   3.250   8.137  0.5942 -0.8893 -0.7507
  125OSM   H17S13358   5.234   3.213   8.075  0.5682  0.5595 -1.7010
  125OSM   H17T13359   5.070   3.292   8.072  0.8944  0.8485 -0.0814
  125OSM   C18S13360   5.101   3.137   8.229 -0.7221 -0.4714 -0.0638
  125OSM   H18S13361   5.053   3.054   8.172 -0.2673 -0.9450  0.2309
  125OSM   H18T13362   5.022   3.176   8.296  1.5824  1.5349  1.6741
  125OSM   H18U13363   5.186   3.092   8.286  0.4496  3.3239  1.5102
  125OSM    C1F13364   4.886   3.809   6.852 -0.1854  0.1334  0.3825
  125OSM     OF13365   4.875   3.696   6.801 -0.0910 -0.3095 -0.0076
  125OSM    C2F13366   4.770   3.901   6.862 -0.8016  0.2117 -0.6691
  125OSM    H2F13367   4.742   3.932   6.759  0.4326 -1.6537 -1.6176
  125OSM    H2G13368   4.786   3.993   6.923  1.9010 -0.7292  0.2129
  125OSM    C3F13369   4.648   3.829   6.920  0.0892  0.6644 -0.1340
  125OSM    H3F13370   4.613   3.753   6.846  0.4521  2.1309 -1.8867
  125OSM    H3G13371   4.571   3.906   6.943  0.6468  1.3283 -0.4508
  125OSM    C4F13372   4.666   3.750   7.051 -0.6883 -1.2519  0.3579
  125OSM    H4F13373   4.705   3.650   7.020 -0.8097 -1.3722  0.5922
  125OSM    H4G13374   4.571   3.730   7.105 -0.5042  1.0233  1.6228
  125OSM    C5F13375   4.765   3.817   7.152  0.1287 -0.2530  0.5064
  125OSM    H5F13376   4.784   3.922   7.120  1.5644 -0.4405  0.6817
  125OSM    H5G13377   4.867   3.774   7.141 -0.1071 -0.3893 -1.5373
  125OSM    C6F13378   4.724   3.824   7.298  0.2236  0.7292 -0.4877
  125OSM    H6F13379   4.814   3.839   7.361  0.5802 -0.7505 -0.6020
  125OSM    H6G13380   4.675   3.731   7.333  1.4176 -0.6011 -2.1709
  125OSM    C7F13381   4.631   3.941   7.323  0.3984 -0.3464  0.0853
  125OSM    H7F13382   4.533   3.912   7.280  0.6853  0.1042 -0.9024
  125OSM    H7G13383   4.664   4.034   7.272 -1.4608  1.1980  1.5396
  125OSM    C8F13384   4.612   3.968   7.476 -0.0172 -0.1368 -0.1638
  125OSM    H8F13385   4.566   4.068   7.493 -0.6526 -0.8954  3.4899
  125OSM    H8G13386   4.713   3.980   7.519 -0.2333  2.3899 -0.2305
  125OSM    C9F13387   4.532   3.873   7.564  0.1744 -0.1555 -0.1885
  125OSM    H9F13388   4.479   3.794   7.509 -1.6257  1.2967 -0.6256
  125OSM   C10F13389   4.518   3.869   7.700  0.3978  0.0241 -0.5183
  125OSM   H10F13390   4.466   3.785   7.748  0.8089 -0.5163 -0.9982
  125OSM   C11F13391   4.590   3.961   7.795  0.1647 -0.0242 -0.4105
  125OSM   H11F13392   4.511   4.025   7.838  0.9800  0.8732 -0.2141
  125OSM   H11G13393   4.652   4.034   7.739 -0.6318  0.5644 -0.5325
  125OSM   C12F13394   4.668   3.904   7.923  0.4895 -0.0875  0.1459
  125OSM   H12F13395   4.756   3.868   7.866  2.1801  3.5493  0.1502
  125OSM   H12G13396   4.622   3.812   7.965  1.0570 -0.7320 -0.6306
  125OSM   C13F13397   4.716   4.009   8.020 -0.3509 -0.2257 -0.0840
  125OSM   H13F13398   4.761   4.092   7.961 -0.4794 -0.8049 -1.0063
  125OSM   H13G13399   4.804   3.966   8.072  0.1276 -0.6915 -1.2506
  125OSM   C14F13400   4.610   4.061   8.111 -0.1084 -0.7263 -0.1244
  125OSM   H14F13401   4.547   3.979   8.152 -0.4621 -0.8870 -0.9716
  125OSM   H14G13402   4.538   4.133   8.067  1.2376 -0.4348 -1.9897
  125OSM   C15F13403   4.688   4.142   8.223 -0.3068 -0.8815  0.3511
  125OSM   H15F13404   4.761   4.086   8.285 -1.5555 -1.9996  0.8567
  125OSM   H15G13405   4.608   4.168   8.295 -1.0296 -0.1707 -0.6787
  125OSM   C16F13406   4.748   4.281   8.177 -0.0883  0.0728  0.7028
  125OSM   H16F13407   4.834   4.270   8.107 -2.1513  0.2465 -2.0491
  125OSM   H16G13408   4.781   4.337   8.267 -1.5007  2.3999 -0.1302
  125OSM   C17F13409   4.643   4.384   8.103 -0.0851  0.0119 -0.7093
  125OSM   H17F13410   4.564   4.418   8.174  0.8031  0.8512 -0.1024
  125OSM   H17G13411   4.596   4.335   8.015 -0.4964 -1.0637  0.0871
  125OSM   C18F13412   4.714   4.505   8.056 -0.1198  0.2257  0.3651
  125OSM   H18F13413   4.759   4.564   8.139 -0.6900  1.9564 -0.5162
  125OSM   H18G13414   4.649   4.582   8.010 -1.1072  0.7000  2.4206
  125OSM   H18H13415   4.780   4.477   7.972 -1.3740  1.7188 -1.1906
  126OSM      N13416   0.654   2.841   6.558 -0.2382 -0.0345 -0.6570
  126OSM    C1513417   0.648   2.961   6.646 -0.2620  0.0336 -0.2416
  126OSM   H15A13418   0.647   2.921   6.746  0.6109 -1.3316 -0.7506
  126OSM   H15B13419   0.558   3.020   6.638  0.1359  0.4496 -2.2767
  126OSM   H15C13420   0.737   3.021   6.631 -1.0345  1.1932 -0.3669
  126OSM    C1413421   0.525   2.772   6.560 -0.4970  0.6688 -0.1432
  126OSM   H14A13422   0.448   2.842   6.530 -2.2346 -0.8649  0.5884
  126OSM   H14B13423   0.492   2.740   6.657 -0.2313 -1.6140 -0.7591
  126OSM   H14C13424   0.532   2.691   6.489  2.9942  2.6012 -2.2776
  126OSM    C1313425   0.690   2.894   6.426 -0.1678  0.5227 -0.2800
  126OSM   H13A13426   0.796   2.914   6.425  0.4365 -2.2829  0.3210
  126OSM   H13B13427   0.638   2.985   6.400 -1.3858 -0.0450  0.1179
  126OSM   H13C13428   0.670   2.823   6.347  2.2848  1.3746 -1.7909
  126OSM    C1213429   0.765   2.746   6.614 -0.3489  0.0577 -0.2504
  126OSM   H12A13430   0.806   2.694   6.529  0.0705 -0.2439  0.1322
  126OSM   H12B13431   0.717   2.669   6.671  1.9230 -0.7725  0.6566
  126OSM    C1113432   0.882   2.810   6.696  0.4341  0.3623 -0.3681
  126OSM   H11A13433   0.937   2.723   6.738 -2.4567 -0.0523  3.0786
  126OSM   H11B13434   0.841   2.857   6.787 -0.2012 -1.0696  0.1242
  126OSM      P13435   1.053   3.009   6.661  0.3170 -0.2196 -0.3420
  126OSM    O1313436   1.182   2.978   6.598  0.0354 -0.1101  0.1193
  126OSM    O1413437   0.989   3.145   6.634 -0.0339 -0.3156  0.0978
  126OSM    O1113438   1.057   2.980   6.812 -0.6536 -0.2609  0.1317
  126OSM    O1213439   0.957   2.892   6.609  0.3369 -0.4072  0.0978
  126OSM    C1S13440   1.132   3.072   6.900  0.1577 -0.2947  0.5202
  126OSM    H1S13441   1.110   3.178   6.873  0.2360 -0.6149 -0.8268
  126OSM    H1T13442   1.241   3.053   6.892  0.2745  0.8529 -0.9483
  126OSM     NF13443   1.169   3.180   7.131  0.4520  0.0232  0.3659
  126OSM    HNF13444   1.261   3.163   7.165  1.3063  1.7131 -0.9139
  126OSM    C2S13445   1.106   3.070   7.058 -0.1948 -0.2990 -0.1486
  126OSM    H2S13446   0.996   3.069   7.069 -0.0746 -0.9760  1.0881
  126OSM    C3S13447   1.159   2.928   7.102 -0.3248  0.4067  0.1085
  126OSM    H3S13448   1.270   2.923   7.099 -0.1865  2.5677  0.1317
  126OSM     O313449   1.109   2.831   7.016 -0.0648  0.3183  0.1957
  126OSM    HO313450   1.071   2.886   6.947 -1.9609 -1.6048 -0.4069
  126OSM    C4S13451   1.112   2.915   7.247 -0.0440 -0.4018  0.5177
  126OSM    H4S13452   1.004   2.931   7.259 -0.1055  1.1215 -1.6030
  126OSM    C5S13453   1.188   2.877   7.349 -0.0391 -0.0190 -0.3766
  126OSM    H5S13454   1.286   2.831   7.332 -0.6676 -1.5429 -0.0749
  126OSM    C6S13455   1.135   2.854   7.488 -1.1240 -0.2654 -0.1988
  126OSM    H6S13456   1.219   2.854   7.559 -0.6357 -0.0758 -0.7684
  126OSM    H6T13457   1.088   2.753   7.489  2.0731 -1.8660 -0.0837
  126OSM    C7S13458   1.048   2.968   7.528  0.4188 -0.0412 -0.4606
  126OSM    H7S13459   0.966   2.977   7.454 -1.4792  2.5257  1.7608
  126OSM    H7T13460   1.104   3.064   7.523 -1.1335  0.9727  0.8138
  126OSM    C8S13461   0.971   2.937   7.665  0.5164 -0.0134  0.3494
  126OSM    H8S13462   0.920   2.838   7.655 -1.5778  0.9991  0.5451
  126OSM    H8T13463   0.897   3.019   7.667  1.0594  0.4770  1.3576
  126OSM    C9S13464   1.061   2.952   7.789 -0.2238 -0.0998  0.7441
  126OSM    H9S13465   1.108   3.052   7.800  2.3604 -1.2372  0.6179
  126OSM    H9T13466   1.137   2.872   7.776 -1.0078 -0.7674  0.1626
  126OSM   C10S13467   0.992   2.925   7.918  0.1665  0.3855 -0.6301
  126OSM   H10S13468   0.923   2.838   7.910  0.3083  0.2496 -0.3743
  126OSM   H10T13469   0.940   3.019   7.947 -0.4882  0.3482 -1.5990
  126OSM   C11S13470   1.097   2.898   8.022  0.2025  0.4458 -0.0871
  126OSM   H11S13471   1.160   2.989   8.028 -2.2809  2.2826 -0.3616
  126OSM   H11T13472   1.160   2.813   7.989 -1.4523 -0.6204 -0.6799
  126OSM   C12S13473   1.024   2.874   8.156 -0.1550  0.7888  0.3683
  126OSM   H12S13474   0.956   2.960   8.173  0.3032  1.0386  0.9929
  126OSM   H12T13475   1.107   2.875   8.229 -0.9554  1.4789  1.3054
  126OSM   C13S13476   0.956   2.741   8.170 -0.0485  0.5987 -0.4933
  126OSM   H13S13477   1.028   2.662   8.140 -1.2130  0.4411 -3.1814
  126OSM   H13T13478   0.867   2.730   8.104 -0.8690 -0.8309  0.8119
  126OSM   C14S13479   0.894   2.724   8.313  0.6398 -0.7912 -0.2736
  126OSM   H14S13480   0.830   2.633   8.313 -0.4626 -0.0763  1.7080
  126OSM   H14T13481   0.839   2.819   8.328  1.2756  0.2706 -3.6652
  126OSM   C15S13482   0.997   2.735   8.433 -0.2795  0.7818  1.1385
  126OSM   H15S13483   1.056   2.830   8.428  2.1009 -0.6645  0.2019
  126OSM   H15T13484   1.063   2.647   8.418 -0.4030  0.7781  0.5723
  126OSM   C16S13485   0.924   2.720   8.569 -0.5707 -0.0782 -0.2877
  126OSM   H16S13486   0.846   2.642   8.560 -1.0397  0.3898 -0.3536
  126OSM   H16T13487   0.874   2.813   8.604 -2.8425 -1.1908 -0.4137
  126OSM   C17S13488   1.024   2.672   8.677 -0.4884 -0.3105 -0.4426
  126OSM   H17S13489   1.072   2.578   8.644  0.7926  1.1043 -2.9429
  126OSM   H17T13490   0.966   2.667   8.772  0.1885 -1.6048 -0.0769
  126OSM   C18S13491   1.139   2.772   8.703  0.6258  0.3626 -0.3301
  126OSM   H18S13492   1.097   2.872   8.728  0.4232  0.2880 -0.3656
  126OSM   H18T13493   1.202   2.780   8.612  3.2695 -0.4443  1.3368
  126OSM   H18U13494   1.197   2.742   8.792  1.7684  0.2899 -1.0724
  126OSM    C1F13495   1.129   3.312   7.119 -0.4545  0.5344 -0.1182
  126OSM     OF13496   1.020   3.337   7.065 -0.0317 -0.1374 -0.2435
  126OSM    C2F13497   1.223   3.419   7.169 -1.0828 -0.3113 -0.3896
  126OSM    H2F13498   1.244   3.400   7.276  1.5756  0.5390 -0.6789
  126OSM    H2G13499   1.180   3.522   7.171 -2.5686 -0.9189  0.5299
  126OSM    C3F13500   1.358   3.422   7.090 -0.0167 -0.1100  0.0992
  126OSM    H3F13501   1.328   3.436   6.984  1.1812 -0.1470 -0.2576
  126OSM    H3G13502   1.404   3.322   7.100 -0.3246 -0.3964 -1.2733
  126OSM    C4F13503   1.461   3.533   7.122  0.5104  0.1816 -0.1302
  126OSM    H4F13504   1.411   3.625   7.161  2.0679  0.6408  0.8849
  126OSM    H4G13505   1.517   3.560   7.030 -0.9139 -1.6064 -1.6101
  126OSM    C5F13506   1.565   3.480   7.225 -0.9803 -0.5109  0.0682
  126OSM    H5F13507   1.645   3.437   7.161 -0.5509 -1.5968  1.2783
  126OSM    H5G13508   1.528   3.396   7.288  0.5824 -2.1244 -1.0333
  126OSM    C6F13509   1.629   3.579   7.316  0.1526 -0.2386 -0.3044
  126OSM    H6F13510   1.556   3.606   7.396 -0.6694  0.4733 -1.2612
  126OSM    H6G13511   1.649   3.670   7.256 -0.1062 -0.7714 -1.2140
  126OSM    C7F13512   1.750   3.521   7.375  0.4246 -0.4515  0.1491
  126OSM    H7F13513   1.833   3.506   7.302 -0.8725 -1.0808 -1.2476
  126OSM    H7G13514   1.735   3.421   7.419  2.3290 -0.1075  1.7634
  126OSM    C8F13515   1.815   3.626   7.472  0.0225 -0.5367  0.3950
  126OSM    H8F13516   1.745   3.652   7.555  0.0481  0.2955  0.1639
  126OSM    H8G13517   1.827   3.719   7.413  1.3163 -1.2065 -0.4359
  126OSM    C9F13518   1.954   3.590   7.526  0.0499 -0.1475  0.5341
  126OSM    H9F13519   2.036   3.583   7.453 -0.7163 -4.0783 -0.1745
  126OSM   C10F13520   1.982   3.561   7.654  0.0771  0.1776  0.9531
  126OSM   H10F13521   2.083   3.522   7.675  0.0506 -0.2849  0.2782
  126OSM   C11F13522   1.879   3.560   7.764 -0.5316 -0.1155 -0.2101
  126OSM   H11F13523   1.801   3.482   7.748 -1.6732  0.6275  1.4281
  126OSM   H11G13524   1.833   3.660   7.778 -0.3602  0.1996 -1.7571
  126OSM   C12F13525   1.938   3.526   7.890 -0.2547  0.2717 -0.4626
  126OSM   H12F13526   1.998   3.433   7.880  0.3641  0.5791  0.2524
  126OSM   H12G13527   1.853   3.513   7.961  1.2303 -0.5991  1.2549
  126OSM   C13F13528   2.034   3.636   7.945 -0.2913 -0.2038 -0.8605
  126OSM   H13F13529   1.993   3.736   7.919  0.6231  0.5501  0.4628
  126OSM   H13G13530   2.133   3.633   7.896  0.2118 -0.9616  0.1751
  126OSM   C14F13531   2.069   3.622   8.101  0.1085 -0.1673 -1.0106
  126OSM   H14F13532   1.984   3.649   8.167 -0.5691 -0.9531 -1.5271
  126OSM   H14G13533   2.141   3.703   8.120 -2.2838  1.4588  2.0469
  126OSM   C15F13534   2.122   3.487   8.155 -0.3320 -0.5004 -0.1664
  126OSM   H15F13535   2.189   3.435   8.084 -1.8300 -2.5079 -0.2079
  126OSM   H15G13536   2.032   3.421   8.157 -1.9807  1.6122  2.0247
  126OSM   C16F13537   2.186   3.483   8.296  0.1855 -0.0727  0.2222
  126OSM   H16F13538   2.145   3.563   8.361 -0.3067 -1.1074  1.2077
  126OSM   H16G13539   2.294   3.512   8.294  0.5169 -1.2220  0.9149
  126OSM   C17F13540   2.175   3.343   8.366 -0.9675 -0.4163 -0.1677
  126OSM   H17F13541   2.242   3.353   8.454  0.2140  0.4612 -1.1362
  126OSM   H17G13542   2.217   3.266   8.299  1.6027 -0.6328  1.5477
  126OSM   C18F13543   2.035   3.306   8.410  0.1997 -0.5512 -0.6047
  126OSM   H18F13544   1.976   3.386   8.459  2.7748  0.1275  1.5896
  126OSM   H18G13545   2.046   3.227   8.487 -4.0564  1.2176  2.1942
  126OSM   H18H13546   1.971   3.265   8.328  0.2068  2.9625 -2.5436
  127OSM      N13547   1.251   0.005   6.174  0.5345 -0.3287 -0.3850
  127OSM    C1513548   1.143   0.089   6.239 -0.1255 -0.4504 -0.0142
  127OSM   H15A13549   1.087   0.040   6.317  0.2533  2.9130  2.5822
  127OSM   H15B13550   1.086   0.130   6.157  0.0786 -2.0255 -0.9870
  127OSM   H15C13551   1.200   0.168   6.284 -1.5122  0.4783  0.1610
  127OSM    C1413552   1.193  -0.075   6.067 -0.4107  0.2523 -0.1544
  127OSM   H14A13553   1.264  -0.132   6.009 -0.4655 -0.0636  0.0834
  127OSM   H14B13554   1.136  -0.008   6.004 -1.1457 -0.1247  0.0972
  127OSM   H14C13555   1.126  -0.151   6.106 -1.7698  2.3198  1.7829
  127OSM    C1313556   1.352   0.094   6.118  0.0296  0.1226 -0.5831
  127OSM   H13A13557   1.328   0.169   6.044  1.9522  1.5169  0.1129
  127OSM   H13B13558   1.417   0.017   6.080 -3.7579 -3.3127 -0.8342
  127OSM   H13C13559   1.390   0.155   6.199 -0.5845  1.2131 -1.0899
  127OSM    C1213560   1.323  -0.081   6.281  0.3782  0.1417 -0.6294
  127OSM   H12A13561   1.417  -0.123   6.249 -0.2202 -1.2366 -0.6644
  127OSM   H12B13562   1.260  -0.162   6.314  2.0663 -0.5868  0.9692
  127OSM    C1113563   1.363  -0.004   6.413  0.3105  0.5782  0.0550
  127OSM   H11A13564   1.403  -0.073   6.490  2.4440 -1.4913 -2.7146
  127OSM   H11B13565   1.268   0.040   6.451 -1.2070  0.0657 -2.8654
  127OSM      P13566   1.463   0.231   6.436  0.1126  0.1931  0.6822
  127OSM    O1313567   1.588   0.300   6.400 -0.6198  0.0859  0.4415
  127OSM    O1413568   1.337   0.297   6.393 -0.0132  0.6711 -0.4429
  127OSM    O1113569   1.462   0.222   6.592 -0.5762 -0.3287  0.2178
  127OSM    O1213570   1.462   0.080   6.381 -0.1169 -0.7370  0.0641
  127OSM    C1S13571   1.340   0.248   6.663 -0.5641 -0.2115  0.3278
  127OSM    H1S13572   1.247   0.193   6.640 -0.3410  0.0940 -1.5208
  127OSM    H1T13573   1.334   0.358   6.644  3.6830  0.3117  1.0132
  127OSM     NF13574   1.243   0.249   6.891 -0.4166 -0.2280  0.1852
  127OSM    HNF13575   1.213   0.336   6.929 -1.3946 -0.8534  0.8925
  127OSM    C2S13576   1.371   0.245   6.818 -0.3698  0.8293  0.5119
  127OSM    H2S13577   1.425   0.151   6.842  0.4369  0.8201 -1.2483
  127OSM    C3S13578   1.475   0.363   6.856  0.1134 -0.1543  0.4566
  127OSM    H3S13579   1.429   0.458   6.823 -1.5182 -1.4297 -1.1093
  127OSM     O313580   1.598   0.352   6.787 -0.5350  0.2763  0.0851
  127OSM    HO313581   1.586   0.274   6.732  1.3793 -1.1566  1.5611
  127OSM    C4S13582   1.518   0.370   7.001  1.1007 -0.3645  0.7886
  127OSM    H4S13583   1.490   0.468   7.042 -1.0448  1.1118 -3.5498
  127OSM    C5S13584   1.565   0.267   7.072  0.0266  0.7374  0.2364
  127OSM    H5S13585   1.575   0.168   7.026 -0.1538  0.8205  0.0170
  127OSM    C6S13586   1.603   0.287   7.213 -0.2376  0.6058  0.0865
  127OSM    H6S13587   1.531   0.248   7.287 -1.5985 -0.2236 -1.6082
  127OSM    H6T13588   1.609   0.394   7.243 -0.4211  0.0965  2.0550
  127OSM    C7S13589   1.739   0.233   7.249 -0.8318  0.0129  0.6816
  127OSM    H7S13590   1.811   0.268   7.173 -0.5364  0.6964  1.2634
  127OSM    H7T13591   1.752   0.122   7.248 -0.1216  0.0940 -0.6284
  127OSM    C8S13592   1.804   0.300   7.377 -0.4747  1.1173  0.4492
  127OSM    H8S13593   1.788   0.407   7.350 -0.8522  0.5009 -2.0504
  127OSM    H8T13594   1.910   0.268   7.390 -0.6889  0.1202 -0.1128
  127OSM    C9S13595   1.743   0.268   7.515  0.0262  0.1069  0.1580
  127OSM    H9S13596   1.778   0.166   7.540 -0.3475  0.1163  0.7584
  127OSM    H9T13597   1.633   0.285   7.508  0.0216 -0.1602 -0.4194
  127OSM   C10S13598   1.783   0.365   7.623 -0.1000 -0.2476  0.4710
  127OSM   H10S13599   1.756   0.469   7.593  0.1504 -0.4124 -0.3457
  127OSM   H10T13600   1.894   0.368   7.629 -0.1379 -1.3687  2.9162
  127OSM   C11S13601   1.720   0.346   7.760 -0.2069  0.7355  0.0145
  127OSM   H11S13602   1.726   0.235   7.769  0.2107  0.4206 -2.9430
  127OSM   H11T13603   1.611   0.367   7.748 -1.3378 -2.7800  2.5413
  127OSM   C12S13604   1.771   0.416   7.885  0.1045  0.1246  0.0089
  127OSM   H12S13605   1.878   0.395   7.907  0.1181  0.1671 -0.0177
  127OSM   H12T13606   1.725   0.369   7.975 -1.0520  1.0911 -0.0467
  127OSM   C13S13607   1.749   0.571   7.881 -0.4003  0.0548  0.4628
  127OSM   H13S13608   1.646   0.611   7.874 -0.8076 -0.7970  1.2712
  127OSM   H13T13609   1.806   0.601   7.791  1.4680 -2.3906  0.7360
  127OSM   C14S13610   1.830   0.638   7.988  0.3238  0.0815  0.5681
  127OSM   H14S13611   1.819   0.747   7.971 -0.4955 -0.1980 -0.8961
  127OSM   H14T13612   1.939   0.629   7.971  0.2462  3.4187 -3.2648
  127OSM   C15S13613   1.779   0.598   8.131 -0.3173 -0.5075 -0.2918
  127OSM   H15S13614   1.805   0.681   8.200  1.7687  0.2825 -1.9132
  127OSM   H15T13615   1.837   0.509   8.162  1.0696  0.2327 -0.6638
  127OSM   C16S13616   1.623   0.571   8.145 -0.1442  0.3010 -0.4998
  127OSM   H16S13617   1.604   0.469   8.107  3.2681 -1.0354  0.9786
  127OSM   H16T13618   1.570   0.649   8.085  4.2459  1.7985 -2.8679
  127OSM   C17S13619   1.570   0.575   8.291  0.4631 -0.1481  0.7748
  127OSM   H17S13620   1.465   0.539   8.292 -0.1234  1.2661 -1.2134
  127OSM   H17T13621   1.565   0.685   8.308 -1.1415  0.5076 -2.8250
  127OSM   C18S13622   1.661   0.497   8.387  0.3405 -0.5286 -0.1908
  127OSM   H18S13623   1.755   0.554   8.402  0.4563 -0.7960  0.1053
  127OSM   H18T13624   1.690   0.397   8.346  0.1257 -0.4239 -0.5944
  127OSM   H18U13625   1.612   0.491   8.487  0.7185  0.3561  0.0523
  127OSM    C1F13626   1.164   0.141   6.889 -0.5663  0.5777 -0.3219
  127OSM     OF13627   1.204   0.028   6.861  0.0146  0.3860 -0.2378
  127OSM    C2F13628   1.026   0.163   6.917  0.4733 -0.7907 -0.2017
  127OSM    H2F13629   0.969   0.111   6.837 -0.8632 -1.6205  1.2384
  127OSM    H2G13630   1.013   0.273   6.909 -1.2943 -1.0631 -1.5845
  127OSM    C3F13631   0.977   0.099   7.052 -0.1401  0.0758  0.5538
  127OSM    H3F13632   1.034   0.155   7.130 -0.5049 -0.4844  1.2311
  127OSM    H3G13633   1.006  -0.008   7.060  0.9804  0.3602  0.4071
  127OSM    C4F13634   0.831   0.120   7.064 -0.3680 -0.4674 -0.0822
  127OSM    H4F13635   0.783   0.057   6.986 -0.5351  2.2260 -2.2841
  127OSM    H4G13636   0.812   0.225   7.035 -1.8850 -0.4371  0.9224
  127OSM    C5F13637   0.785   0.093   7.208  0.3824 -0.2422 -0.3731
  127OSM    H5F13638   0.691   0.150   7.225  0.9013  0.0960  1.5485
  127OSM    H5G13639   0.856   0.129   7.285  0.4618 -1.8351  0.3511
  127OSM    C6F13640   0.740  -0.057   7.243  0.5640  0.1745 -0.8143
  127OSM    H6F13641   0.836  -0.113   7.237 -0.2345 -1.5024  1.0114
  127OSM    H6G13642   0.681  -0.087   7.154 -1.5088  1.2781  0.1228
  127OSM    C7F13643   0.656  -0.073   7.380  0.0786  0.2484 -0.1086
  127OSM    H7F13644   0.623  -0.177   7.403 -1.7821  1.0055  0.8416
  127OSM    H7G13645   0.556  -0.024   7.371 -0.4934 -0.7610  0.5664
  127OSM    C8F13646   0.734  -0.010   7.504  0.1620  0.0856 -0.1463
  127OSM    H8F13647   0.675  -0.011   7.598 -0.9773  1.4199 -0.8121
  127OSM    H8G13648   0.739   0.099   7.484 -0.6863  0.5306  1.7813
  127OSM    C9F13649   0.883  -0.042   7.516  0.0195  0.2654  0.4692
  127OSM    H9F13650   0.928  -0.127   7.462 -0.9953 -0.7594  1.2019
  127OSM   C10F13651   0.974   0.039   7.591 -0.3245  0.2344  0.0998
  127OSM   H10F13652   1.080   0.012   7.581 -0.5921 -1.7210  1.9692
  127OSM   C11F13653   0.945   0.158   7.673 -0.8080 -0.2735  0.4039
  127OSM   H11F13654   0.838   0.186   7.660 -0.1860  2.5056  0.6474
  127OSM   H11G13655   1.002   0.247   7.638 -0.6989 -0.8829 -1.0242
  127OSM   C12F13656   0.994   0.141   7.816 -0.7605 -0.6735  0.1473
  127OSM   H12F13657   0.989   0.241   7.863 -0.2336 -0.1543 -0.8727
  127OSM   H12G13658   1.099   0.104   7.823 -0.7206 -0.4724  0.6264
  127OSM   C13F13659   0.904   0.059   7.905 -0.3294 -0.3996 -0.4969
  127OSM   H13F13660   0.897  -0.046   7.870 -2.1812 -0.5360  0.1806
  127OSM   H13G13661   0.797   0.087   7.891 -0.3990 -1.4598 -2.3601
  127OSM   C14F13662   0.953   0.058   8.052 -0.7662 -0.6242  0.2037
  127OSM   H14F13663   0.968   0.162   8.087 -0.7689 -0.1710 -1.0685
  127OSM   H14G13664   1.050   0.005   8.055 -0.6055 -0.5494 -1.9703
  127OSM   C15F13665   0.854  -0.003   8.152  0.3430 -0.0789 -0.3008
  127OSM   H15F13666   0.870  -0.112   8.138  0.5025  0.1664 -2.3060
  127OSM   H15G13667   0.749   0.030   8.138  0.9110  1.6296 -0.6983
  127OSM   C16F13668   0.890   0.029   8.305 -0.8072 -0.8314  0.3243
  127OSM   H16F13669   0.902   0.139   8.311 -1.2650 -0.7019 -0.8955
  127OSM   H16G13670   0.988  -0.021   8.316 -0.5831 -1.7449 -3.9997
  127OSM   C17F13671   0.787  -0.015   8.408  0.3301 -0.1537  0.2014
  127OSM   H17F13672   0.762  -0.121   8.388 -1.7953  0.3221  0.0253
  127OSM   H17G13673   0.694   0.046   8.404  1.3221  1.4838  1.1077
  127OSM   C18F13674   0.848  -0.014   8.546  0.3348 -0.0252  0.6269
  127OSM   H18F13675   0.776  -0.051   8.621  0.2981  1.0678  1.1555
  127OSM   H18G13676   0.865   0.095   8.564  1.1181  0.2233 -1.3155
  127OSM   H18H13677   0.949  -0.061   8.542  1.4063  2.1012  1.1985
  128OSM      N13678   3.844   4.980   6.007  0.0189  0.5786 -0.2378
  128OSM    C1513679   3.809   5.116   6.075 -0.5596  0.6502 -0.4036
  128OSM   H15A13680   3.712   5.151   6.043  0.7668  4.0128 -1.1418
  128OSM   H15B13681   3.874   5.199   6.052 -2.0317  1.5857 -1.3699
  128OSM   H15C13682   3.818   5.092   6.180 -0.3754  0.4816 -0.4569
  128OSM    C1413683   3.729   4.892   6.036  0.4788  0.1025  0.4492
  128OSM   H14A13684   3.720   4.874   6.142 -1.7117  0.8807  0.4312
  128OSM   H14B13685   3.748   4.803   5.978  0.1674 -0.4387  1.1678
  128OSM   H14C13686   3.632   4.927   6.004  0.2000 -1.6711 -0.7760
  128OSM    C1313687   3.855   4.997   5.857  0.1931  0.3162  0.3322
  128OSM   H13A13688   3.902   5.092   5.836  0.0827  0.4831  0.8196
  128OSM   H13B13689   3.759   4.997   5.808 -0.2140 -0.2041  1.1122
  128OSM   H13C13690   3.911   4.916   5.813 -0.6704  0.5243 -1.2229
  128OSM    C1213691   3.976   4.923   6.047 -0.0771  0.9505 -0.7390
  128OSM   H12A13692   4.058   4.993   6.036  1.0680 -0.2399 -0.1495
  128OSM   H12B13693   3.999   4.841   5.980 -2.2543 -1.3117  1.0824
  128OSM    C1113694   3.990   4.851   6.182  0.5206 -0.5557 -0.3573
  128OSM   H11A13695   3.974   4.923   6.265 -0.2652  0.9669 -1.7504
  128OSM   H11B13696   4.101   4.844   6.186  0.5637  0.1568 -0.0352
  128OSM      P13697   3.963   4.607   6.106  0.2010  0.1453 -0.1132
  128OSM    O1313698   3.847   4.560   6.033 -0.0370  0.0005 -0.0439
  128OSM    O1413699   4.080   4.646   6.029  0.5369 -0.5317  0.5085
  128OSM    O1113700   4.016   4.500   6.206  0.8079  0.2740 -0.2915
  128OSM    O1213701   3.920   4.729   6.194  0.2962 -0.0047  0.3615
  128OSM    C1S13702   4.097   4.530   6.317 -0.2186  0.3068  0.2752
  128OSM    H1S13703   4.137   4.632   6.302  0.0074  0.0441 -1.0960
  128OSM    H1T13704   4.183   4.459   6.312 -0.2802 -0.3572  4.5759
  128OSM     NF13705   4.117   4.559   6.562  0.3513 -0.9485 -0.1093
  128OSM    HNF13706   4.158   4.481   6.609 -1.1101 -0.2781  2.5066
  128OSM    C2S13707   4.020   4.531   6.454 -0.2785  0.5665 -0.3700
  128OSM    H2S13708   3.942   4.609   6.449 -1.4394 -0.4709  0.7305
  128OSM    C3S13709   3.938   4.397   6.469  0.1240 -0.4135 -0.0797
  128OSM    H3S13710   4.004   4.308   6.460 -0.5232 -1.0532  1.2330
  128OSM     O313711   3.850   4.381   6.360  0.3125  0.4417 -0.5697
  128OSM    HO313712   3.900   4.424   6.290  0.7168  1.6007  0.4137
  128OSM    C4S13713   3.862   4.391   6.597  1.1098  0.4317  0.5039
  128OSM    H4S13714   3.799   4.480   6.614 -0.1986 -0.0371 -1.6079
  128OSM    C5S13715   3.868   4.293   6.687 -0.6480 -0.0356  0.6821
  128OSM    H5S13716   3.928   4.204   6.659 -0.0194  0.7181 -0.4467
  128OSM    C6S13717   3.786   4.274   6.812  0.2802 -0.7115 -0.6601
  128OSM    H6S13718   3.722   4.184   6.802 -2.0917  0.5350  1.8842
  128OSM    H6T13719   3.713   4.356   6.828  1.0181 -0.4327  1.8125
  128OSM    C7S13720   3.860   4.258   6.948 -0.1294 -0.8251  0.4399
  128OSM    H7S13721   3.924   4.346   6.971  0.8265 -1.3967  0.0092
  128OSM    H7T13722   3.926   4.169   6.937  3.0648  1.5553 -1.2959
  128OSM    C8S13723   3.761   4.253   7.063  0.6208  0.5721  0.4480
  128OSM    H8S13724   3.677   4.182   7.049  0.5946  0.2895  1.9094
  128OSM    H8T13725   3.729   4.357   7.085  0.2551  0.2831  1.3026
  128OSM    C9S13726   3.833   4.204   7.193  0.2092  0.0315 -0.1858
  128OSM    H9S13727   3.919   4.265   7.229  1.9136 -1.6782 -1.1711
  128OSM    H9T13728   3.874   4.101   7.182  0.1809 -0.0520  0.4428
  128OSM   C10S13729   3.744   4.206   7.319  0.8586  0.3366  0.2210
  128OSM   H10S13730   3.651   4.154   7.288  0.5289  0.9636  0.1411
  128OSM   H10T13731   3.712   4.310   7.344  1.8959  0.7849 -0.2505
  128OSM   C11S13732   3.789   4.136   7.452 -0.2055  0.2764 -0.1708
  128OSM   H11S13733   3.898   4.158   7.445  0.4616 -2.7846 -1.0447
  128OSM   H11T13734   3.792   4.025   7.455  1.6014  0.3000  1.3387
  128OSM   C12S13735   3.709   4.198   7.572 -0.2594  0.6250 -1.1972
  128OSM   H12S13736   3.607   4.159   7.554  0.2684 -0.0011 -3.1275
  128OSM   H12T13737   3.716   4.309   7.563 -0.3154  0.9454  1.8449
  128OSM   C13S13738   3.742   4.161   7.715  0.0142 -0.5378  0.3968
  128OSM   H13S13739   3.845   4.193   7.743 -0.4411  1.4330 -0.0489
  128OSM   H13T13740   3.728   4.052   7.734  1.6331 -0.8914 -0.2889
  128OSM   C14S13741   3.643   4.221   7.816  0.7972  0.4957 -0.2775
  128OSM   H14S13742   3.541   4.191   7.785  1.8350  0.0008 -3.6755
  128OSM   H14T13743   3.650   4.331   7.803 -1.1069  0.5089 -1.6600
  128OSM   C15S13744   3.676   4.179   7.957  0.7653  0.0628  0.3572
  128OSM   H15S13745   3.786   4.186   7.975  1.5680 -3.1501 -2.4267
  128OSM   H15T13746   3.647   4.075   7.982  2.3182 -0.1724  1.2943
  128OSM   C16S13747   3.601   4.267   8.060 -0.0334 -0.1924  0.0190
  128OSM   H16S13748   3.493   4.250   8.040  0.1692 -2.0470  0.3887
  128OSM   H16T13749   3.638   4.371   8.050  1.7120 -0.8166 -0.3145
  128OSM   C17S13750   3.628   4.226   8.208  0.3344 -0.1904  0.5307
  128OSM   H17S13751   3.735   4.198   8.211  0.6173  0.6438 -0.8130
  128OSM   H17T13752   3.559   4.143   8.237 -0.7452  0.6265  0.3761
  128OSM   C18S13753   3.583   4.345   8.301 -0.0897  0.3033 -0.4426
  128OSM   H18S13754   3.639   4.432   8.261  1.2613 -0.2610  0.1858
  128OSM   H18T13755   3.623   4.321   8.402  0.6640  1.5608 -0.4196
  128OSM   H18U13756   3.473   4.358   8.295 -0.1154  0.8463  0.7455
  128OSM    C1F13757   4.179   4.674   6.581 -0.3698 -0.3649  0.3539
  128OSM     OF13758   4.158   4.767   6.506 -0.1069  0.2176 -0.7849
  128OSM    C2F13759   4.279   4.679   6.690 -0.2954 -0.2525 -0.2145
  128OSM    H2F13760   4.378   4.643   6.654  2.3096  2.3179  3.5653
  128OSM    H2G13761   4.261   4.613   6.778  1.3641 -0.8011 -0.2432
  128OSM    C3F13762   4.299   4.817   6.746 -0.1514  0.5853 -0.0443
  128OSM    H3F13763   4.201   4.869   6.751 -1.9171 -2.5083  0.1818
  128OSM    H3G13764   4.367   4.871   6.677  0.5817 -1.7284 -1.2380
  128OSM    C4F13765   4.371   4.821   6.883  0.0801 -0.1727  0.4532
  128OSM    H4F13766   4.401   4.925   6.908 -0.6069 -0.2379  1.6354
  128OSM    H4G13767   4.453   4.747   6.886 -1.4721 -2.0580 -1.0478
  128OSM    C5F13768   4.266   4.789   6.987  0.6116 -0.1143  0.3214
  128OSM    H5F13769   4.224   4.690   6.959 -1.5935  0.8127  0.1679
  128OSM    H5G13770   4.189   4.868   7.000  1.2077  0.9044 -1.9258
  128OSM    C6F13771   4.313   4.770   7.132  0.6590  0.1443 -0.0770
  128OSM    H6F13772   4.407   4.710   7.128 -0.2646 -1.3432 -0.2240
  128OSM    H6G13773   4.241   4.709   7.190  0.9759 -1.2355 -1.0617
  128OSM    C7F13774   4.352   4.900   7.207 -1.0962  0.6090 -0.3074
  128OSM    H7F13775   4.263   4.966   7.208 -0.6523  1.5871 -4.6303
  128OSM    H7G13776   4.422   4.957   7.142 -0.8113 -1.4448 -1.9362
  128OSM    C8F13777   4.420   4.870   7.348  0.3516 -0.0917 -0.0181
  128OSM    H8F13778   4.518   4.818   7.344  0.3023 -0.2519  0.7529
  128OSM    H8G13779   4.352   4.806   7.409 -0.7609  0.8537 -0.2253
  128OSM    C9F13780   4.425   4.996   7.432 -0.3791 -0.4983  0.0370
  128OSM    H9F13781   4.428   5.085   7.367 -1.4297 -1.2247 -1.0434
  128OSM   C10F13782   4.433   4.998   7.564 -0.3369  0.4212 -0.2333
  128OSM   H10F13783   4.447   5.098   7.608 -0.3808  0.7713 -0.9921
  128OSM   C11F13784   4.438   4.881   7.655  0.2824 -0.2923 -0.7023
  128OSM   H11F13785   4.494   4.792   7.618  0.5446 -0.1341 -0.6899
  128OSM   H11G13786   4.333   4.845   7.654  0.1308  0.1236 -0.0848
  128OSM   C12F13787   4.484   4.907   7.799 -0.3501 -0.3423 -0.4180
  128OSM   H12F13788   4.464   5.009   7.839  2.5450  0.0601  0.2113
  128OSM   H12G13789   4.595   4.901   7.804 -0.1436  1.8175 -1.2636
  128OSM   C13F13790   4.419   4.805   7.889 -0.2697 -0.2493  0.2669
  128OSM   H13F13791   4.431   4.698   7.860 -0.6438 -0.6142  1.4391
  128OSM   H13G13792   4.311   4.828   7.897 -0.4391 -1.2901  1.1499
  128OSM   C14F13793   4.479   4.815   8.037  0.5103  0.4821  0.4947
  128OSM   H14F13794   4.481   4.918   8.077  2.1511  2.0711 -3.2259
  128OSM   H14G13795   4.588   4.794   8.034  0.4599  0.2086  0.5818
  128OSM   C15F13796   4.408   4.726   8.137  0.1532 -0.5172 -0.4558
  128OSM   H15F13797   4.376   4.628   8.095  0.7975 -1.1321  0.4239
  128OSM   H15G13798   4.313   4.781   8.155 -0.4104 -1.9365  1.3194
  128OSM   C16F13799   4.481   4.703   8.265 -0.7858 -0.3451 -0.1169
  128OSM   H16F13800   4.526   4.800   8.297  0.4708 -0.5736 -1.1083
  128OSM   H16G13801   4.569   4.637   8.246  0.5408  1.3762 -0.2583
  128OSM   C17F13802   4.405   4.641   8.378  0.1995 -0.7620 -0.0368
  128OSM   H17F13803   4.485   4.595   8.440  0.4379  1.1785  1.1886
  128OSM   H17G13804   4.331   4.571   8.335 -1.8350 -0.5780  2.8521
  128OSM   C18F13805   4.317   4.732   8.463 -0.0652 -0.1432  0.4145
  128OSM   H18F13806   4.229   4.769   8.405 -1.8054 -0.6343  2.5897
  128OSM   H18G13807   4.371   4.825   8.490 -0.1815 -0.1097  0.5321
  128OSM   H18H13808   4.281   4.695   8.562 -0.3247  1.6254  1.0095
  129OSM      N13809   0.082   1.503   6.048  0.4408  1.1086  0.1688
  129OSM    C1513810   0.040   1.528   5.909  0.2176  0.2770  0.0800
  129OSM   H15A13811   0.068   1.451   5.839 -0.4437  0.0512  0.0564
  129OSM   H15B13812   0.088   1.623   5.888  1.8047 -0.3701  0.6322
  129OSM   H15C13813  -0.068   1.525   5.905  0.2222 -0.1353  0.1944
  129OSM    C1413814   0.069   1.640   6.118  0.0394  0.5049  0.3184
  129OSM   H14A13815   0.115   1.634   6.216  2.0372  2.2014 -0.4293
  129OSM   H14B13816  -0.036   1.665   6.120 -0.4473 -1.1185 -1.6915
  129OSM   H14C13817   0.108   1.720   6.057 -0.3385  1.2573  1.0364
  129OSM    C1313818  -0.014   1.404   6.114 -0.0566  0.2083  0.2217
  129OSM   H13A13819  -0.115   1.435   6.095 -1.2847 -3.9921 -1.1557
  129OSM   H13B13820   0.009   1.390   6.219  1.7022 -0.5054 -0.2266
  129OSM   H13C13821   0.001   1.306   6.072  0.1747  0.0757  0.6056
  129OSM    C1213822   0.229   1.464   6.059 -0.7912 -0.1201  0.0482
  129OSM   H12A13823   0.294   1.537   6.012  0.0829  0.7750  2.4989
  129OSM   H12B13824   0.237   1.375   5.998 -0.7014 -1.7552  2.3288
  129OSM    C1113825   0.290   1.431   6.196 -0.1110 -0.2085 -0.3979
  129OSM   H11A13826   0.387   1.377   6.182  0.3365  0.0518  1.4270
  129OSM   H11B13827   0.216   1.367   6.249  0.4871  1.0037  2.0581
  129OSM      P13828   0.391   1.542   6.408  0.4040  0.1414  0.4114
  129OSM    O1313829   0.533   1.516   6.378  0.4747  0.1754 -0.4457
  129OSM    O1413830   0.353   1.664   6.481  0.2063 -0.2935  0.1974
  129OSM    O1113831   0.315   1.419   6.463  0.7870 -0.2015  0.0154
  129OSM    O1213832   0.305   1.549   6.274 -0.0321  0.6774 -0.1497
  129OSM    C1S13833   0.310   1.390   6.606 -0.4356  0.7756  0.1014
  129OSM    H1S13834   0.406   1.418   6.656 -0.8858 -1.5630  2.5100
  129OSM    H1T13835   0.286   1.282   6.614 -1.7314  0.9555 -1.0608
  129OSM     NF13836   0.193   1.421   6.825  0.1416  0.0241  0.0586
  129OSM    HNF13837   0.146   1.335   6.844 -0.1242 -0.0460 -0.8589
  129OSM    C2S13838   0.187   1.458   6.679  0.7999 -0.0610 -0.2008
  129OSM    H2S13839   0.201   1.567   6.663 -0.9130 -0.1057 -2.4351
  129OSM    C3S13840   0.060   1.406   6.600 -0.0157  0.0778 -0.0513
  129OSM    H3S13841   0.054   1.296   6.582 -2.4367 -0.0672  1.1821
  129OSM     O313842   0.056   1.452   6.467 -0.2081  0.2854 -0.3016
  129OSM    HO313843   0.148   1.472   6.447  0.3014 -1.1250  0.5039
  129OSM    C4S13844  -0.066   1.464   6.662  0.6248 -0.0420 -0.3233
  129OSM    H4S13845  -0.072   1.574   6.673 -0.2486 -0.1722  0.6806
  129OSM    C5S13846  -0.175   1.408   6.727 -0.4328 -0.1657  0.2808
  129OSM    H5S13847  -0.189   1.301   6.746 -1.3363  0.2277  2.1116
  129OSM    C6S13848  -0.281   1.503   6.773  0.1704 -1.0416 -0.1786
  129OSM    H6S13849  -0.369   1.445   6.808 -1.4760  0.4184 -1.7525
  129OSM    H6T13850  -0.313   1.567   6.689  0.2109 -0.0642  0.5358
  129OSM    C7S13851  -0.233   1.585   6.893 -0.0700 -0.6774 -0.3200
  129OSM    H7S13852  -0.312   1.659   6.916 -0.5339 -1.1750 -0.2863
  129OSM    H7T13853  -0.145   1.649   6.870 -1.5200  1.8970  0.8679
  129OSM    C8S13854  -0.213   1.501   7.022  0.0437  0.8131 -0.0673
  129OSM    H8S13855  -0.120   1.441   7.014 -1.5692 -2.0189  0.8750
  129OSM    H8T13856  -0.295   1.426   7.019 -0.7716  1.7011 -0.6981
  129OSM    C9S13857  -0.226   1.572   7.159  0.0040  0.0373 -0.3958
  129OSM    H9S13858  -0.335   1.594   7.167 -0.0645 -0.4273  0.0085
  129OSM    H9T13859  -0.161   1.662   7.161 -1.8072  1.3969  0.1236
  129OSM   C10S13860  -0.193   1.484   7.281  0.0230  0.4564 -0.2114
  129OSM   H10S13861  -0.083   1.469   7.280 -0.0361  0.0113 -0.1537
  129OSM   H10T13862  -0.238   1.386   7.256 -0.6622  0.7907 -0.3185
  129OSM   C11S13863  -0.249   1.534   7.418  0.3632 -0.5801  0.3448
  129OSM   H11S13864  -0.357   1.536   7.394  0.2755 -0.9656  0.6993
  129OSM   H11T13865  -0.214   1.635   7.449 -0.7173 -0.2817  0.6346
  129OSM   C12S13866  -0.221   1.425   7.521  0.3595 -0.2906 -0.3686
  129OSM   H12S13867  -0.112   1.412   7.541  0.3405  0.0096 -0.0563
  129OSM   H12T13868  -0.247   1.325   7.479 -1.9206 -1.0698  2.4822
  129OSM   C13S13869  -0.301   1.423   7.652 -0.0870  0.0336  0.1870
  129OSM   H13S13870  -0.408   1.422   7.620 -0.0755 -0.8604  0.1589
  129OSM   H13T13871  -0.274   1.518   7.702  2.9274 -1.3491  1.3920
  129OSM   C14S13872  -0.281   1.296   7.739 -0.0302 -0.7616  0.4199
  129OSM   H14S13873  -0.174   1.298   7.769  0.6223  1.2259 -1.7354
  129OSM   H14T13874  -0.307   1.210   7.673 -0.3805 -0.4673  0.1660
  129OSM   C15S13875  -0.367   1.311   7.866  0.4368  0.4427 -0.3019
  129OSM   H15S13876  -0.473   1.282   7.845  0.0724  1.0876  0.5769
  129OSM   H15T13877  -0.363   1.416   7.902 -1.0880  1.1897 -2.1508
  129OSM   C16S13878  -0.315   1.238   7.988 -0.2299 -0.5862 -0.2637
  129OSM   H16S13879  -0.228   1.288   8.036 -0.1445 -1.3906  0.4458
  129OSM   H16T13880  -0.281   1.134   7.968 -2.9415 -1.9886  1.8292
  129OSM   C17S13881  -0.407   1.242   8.109 -0.3922  0.5036 -0.3348
  129OSM   H17S13882  -0.492   1.174   8.086  0.7572 -1.8061  1.8508
  129OSM   H17T13883  -0.450   1.344   8.121 -0.1708  0.5943 -0.3194
  129OSM   C18S13884  -0.344   1.187   8.235 -0.3075  0.4003  0.0477
  129OSM   H18S13885  -0.425   1.159   8.306 -0.5380 -0.3787 -0.5117
  129OSM   H18T13886  -0.287   1.276   8.268  0.3071  0.5752 -1.4243
  129OSM   H18U13887  -0.280   1.097   8.222 -1.3166 -0.2067 -0.8883
  129OSM    C1F13888   0.264   1.481   6.915 -0.2240 -0.8394  0.4051
  129OSM     OF13889   0.310   1.592   6.886 -0.4220  0.2760  0.2145
  129OSM    C2F13890   0.293   1.411   7.050  0.4506  0.1761 -0.0210
  129OSM    H2F13891   0.384   1.349   7.038  1.0008  0.2968  2.8407
  129OSM    H2G13892   0.203   1.351   7.074 -0.1841  1.0474 -0.1562
  129OSM    C3F13893   0.305   1.504   7.168 -0.2395  0.3813 -0.2754
  129OSM    H3F13894   0.212   1.562   7.186 -1.0196 -0.4399 -1.4885
  129OSM    H3G13895   0.389   1.573   7.144 -0.7203  0.5732 -1.5126
  129OSM    C4F13896   0.342   1.420   7.286 -0.4432 -0.2409  0.2023
  129OSM    H4F13897   0.443   1.375   7.272 -0.8220 -0.4344 -2.3916
  129OSM    H4G13898   0.278   1.330   7.300 -1.8838  1.0213  2.1902
  129OSM    C5F13899   0.335   1.507   7.417  0.4907  1.0060 -1.0347
  129OSM    H5F13900   0.242   1.567   7.402 -0.9322 -1.0692 -0.9753
  129OSM    H5G13901   0.423   1.569   7.445  0.7512 -0.0624  0.6142
  129OSM    C6F13902   0.329   1.415   7.544 -0.2335  0.3710 -0.7259
  129OSM    H6F13903   0.427   1.366   7.562 -0.7558  0.3519  2.8691
  129OSM    H6G13904   0.252   1.338   7.523  1.2712 -0.7270 -2.4822
  129OSM    C7F13905   0.302   1.498   7.667 -0.2618 -0.1242  0.6659
  129OSM    H7F13906   0.220   1.570   7.648  0.5621  0.7833  0.4706
  129OSM    H7G13907   0.399   1.544   7.694 -1.0903  0.8722  2.0511
  129OSM    C8F13908   0.268   1.411   7.790 -0.1089  0.2998  0.2800
  129OSM    H8F13909   0.363   1.357   7.810  0.1695  0.1813 -1.2043
  129OSM    H8G13910   0.190   1.335   7.770 -0.4475  0.9819 -1.1444
  129OSM    C9F13911   0.239   1.492   7.911 -0.5181  0.1273  1.1866
  129OSM    H9F13912   0.137   1.532   7.907 -0.4474  0.2383 -0.0481
  129OSM   C10F13913   0.320   1.503   8.016  0.6326  0.4427  0.4598
  129OSM   H10F13914   0.276   1.553   8.105 -0.9599  1.2951 -0.7468
  129OSM   C11F13915   0.458   1.453   8.043 -0.3546 -0.5398  0.2288
  129OSM   H11F13916   0.523   1.539   8.071 -1.7107  0.2184  1.1630
  129OSM   H11G13917   0.497   1.399   7.954 -0.1387 -0.3984  0.2352
  129OSM   C12F13918   0.463   1.352   8.159 -0.2468 -0.2588 -0.3975
  129OSM   H12F13919   0.382   1.278   8.142 -0.3126 -0.5131  0.9189
  129OSM   H12G13920   0.434   1.381   8.262 -1.0131  0.4011 -0.7892
  129OSM   C13F13921   0.596   1.283   8.161 -0.1041  0.2668  0.7278
  129OSM   H13F13922   0.681   1.353   8.171  2.4963 -2.5421 -0.2218
  129OSM   H13G13923   0.618   1.239   8.061  0.7897  1.8845  0.1903
  129OSM   C14F13924   0.601   1.175   8.266  0.2289  0.0211 -0.2289
  129OSM   H14F13925   0.529   1.096   8.235  0.6409 -0.0559 -0.9839
  129OSM   H14G13926   0.573   1.219   8.365  0.8490 -1.7268  0.7661
  129OSM   C15F13927   0.738   1.107   8.294 -0.2436 -0.1999 -0.5746
  129OSM   H15F13928   0.804   1.193   8.316 -1.1701  0.1543  0.9592
  129OSM   H15G13929   0.771   1.045   8.208  0.6044  1.3026 -1.3823
  129OSM   C16F13930   0.744   1.017   8.418 -0.2474 -0.1816 -0.0999
  129OSM   H16F13931   0.677   0.928   8.414 -0.5213 -0.2949  3.5142
  129OSM   H16G13932   0.701   1.070   8.505 -0.5285  2.3975 -1.7093
  129OSM   C17F13933   0.888   0.969   8.443  0.5215 -0.0071 -0.8491
  129OSM   H17F13934   0.949   1.060   8.425  0.8937  0.5739  2.7089
  129OSM   H17G13935   0.909   0.889   8.369  0.8501 -1.3555  0.6374
  129OSM   C18F13936   0.907   0.917   8.587 -0.4011 -0.0564  0.4348
  129OSM   H18F13937   0.877   0.991   8.664  0.2686  0.3061  0.3553
  129OSM   H18G13938   1.013   0.902   8.616 -0.7176 -1.5673  0.9458
  129OSM   H18H13939   0.855   0.822   8.612 -0.7842  0.4583  1.6589
  130OSM      N13940   5.733   4.158   5.835 -0.2354 -0.1801  0.4868
  130OSM    C1513941   5.748   4.093   5.701  0.3326  0.0832  0.2914
  130OSM   H15A13942   5.686   4.146   5.631 -0.3801  1.3886  1.8368
  130OSM   H15B13943   5.713   3.991   5.693 -0.0620  0.1792  0.7040
  130OSM   H15C13944   5.850   4.102   5.666  1.0793 -1.5911  1.8303
  130OSM    C1413945   5.787   4.295   5.841 -0.1922  0.1508  0.1451
  130OSM   H14A13946   5.740   4.356   5.917  1.0971  0.7374  0.5043
  130OSM   H14B13947   5.752   4.350   5.755  0.0956 -1.5465 -1.1095
  130OSM   H14C13948   5.894   4.294   5.857 -0.5165  0.0438  2.7052
  130OSM    C1313949   5.586   4.181   5.848  0.1735 -0.2086  0.3758
  130OSM   H13A13950   5.559   4.247   5.767 -0.5592 -1.4840 -0.4599
  130OSM   H13B13951   5.561   4.225   5.943 -0.8462 -1.3360  0.6474
  130OSM   H13C13952   5.546   4.081   5.834  0.9418 -0.3263 -1.2060
  130OSM    C1213953   5.788   4.076   5.947 -0.6350 -0.1915  0.2561
  130OSM   H12A13954   5.894   4.083   5.931 -0.8374 -1.5023 -2.2701
  130OSM   H12B13955   5.758   3.974   5.933 -1.8193  0.1061  0.4884
  130OSM    C1113956   5.749   4.103   6.096 -0.1317 -0.3744 -0.1638
  130OSM   H11A13957   5.818   4.050   6.165  0.1483 -0.1171 -0.2422
  130OSM   H11B13958   5.652   4.050   6.108 -0.1106 -0.5939 -0.8927
  130OSM      P13959   5.823   4.344   6.186  0.2866 -0.0460 -0.3416
  130OSM    O1313960   5.954   4.276   6.188 -0.5905 -0.3196 -0.2538
  130OSM    O1413961   5.818   4.467   6.107  0.7420 -0.2088  0.5779
  130OSM    O1113962   5.759   4.367   6.329 -0.2056 -0.5648 -0.1530
  130OSM    O1213963   5.727   4.242   6.128  0.2437  0.1497 -0.4140
  130OSM    C1S13964   5.717   4.267   6.419 -0.5359  0.3272  0.0430
  130OSM    H1S13965   5.732   4.167   6.373 -0.2587  1.2056 -1.8978
  130OSM    H1T13966   5.607   4.271   6.430 -0.5139 -0.6750  0.7535
  130OSM     NF13967   5.714   4.190   6.647  0.0154  0.4696  0.0469
  130OSM    HNF13968   5.657   4.235   6.716  2.1413  2.4049  0.6635
  130OSM    C2S13969   5.787   4.278   6.564 -0.8149  0.0282  0.1620
  130OSM    H2S13970   5.892   4.241   6.570 -1.0276 -0.5059  0.6117
  130OSM    C3S13971   5.787   4.423   6.612  0.0408 -1.0030 -0.2156
  130OSM    H3S13972   5.679   4.450   6.613  0.3063  0.1949 -1.6969
  130OSM     O313973   5.850   4.514   6.524 -0.2529  0.2463 -0.4780
  130OSM    HO313974   5.830   4.477   6.437 -1.7800 -0.8800  0.3067
  130OSM    C4S13975   5.841   4.425   6.751  1.0612 -0.9114 -0.3781
  130OSM    H4S13976   5.762   4.414   6.827  2.2693 -0.0792  1.0435
  130OSM    C5S13977   5.965   4.439   6.793  0.0286 -0.0549 -0.6175
  130OSM    H5S13978   6.045   4.442   6.717  0.1938  0.3826 -0.4313
  130OSM    C6S13979   6.014   4.438   6.935 -0.0502  0.3315 -0.2679
  130OSM    H6S13980   6.058   4.537   6.959  0.6212 -0.3003  1.2850
  130OSM    H6T13981   6.098   4.365   6.935 -2.2274 -2.3330  0.7195
  130OSM    C7S13982   5.922   4.396   7.051  0.4256  1.3894 -0.7121
  130OSM    H7S13983   5.875   4.297   7.034 -0.5123  1.2810  2.0441
  130OSM    H7T13984   5.841   4.471   7.062  1.7461  2.6496  0.8262
  130OSM    C8S13985   5.990   4.409   7.191  0.1984 -0.3311 -0.2802
  130OSM    H8S13986   6.023   4.515   7.200 -0.0192 -0.1439 -1.4661
  130OSM    H8T13987   6.070   4.334   7.207  0.4760  0.1044  0.4401
  130OSM    C9S13988   5.886   4.378   7.301 -0.7547 -0.1072 -0.1872
  130OSM    H9S13989   5.837   4.285   7.267  1.4606 -0.3198 -3.2575
  130OSM    H9T13990   5.813   4.462   7.295 -1.2094 -0.5533 -1.0441
  130OSM   C10S13991   5.935   4.379   7.444 -0.0704 -0.1309  0.2274
  130OSM   H10S13992   5.996   4.468   7.468  1.8866 -0.9520 -1.3583
  130OSM   H10T13993   5.991   4.284   7.459 -0.7774 -0.7818 -1.0701
  130OSM   C11S13994   5.813   4.366   7.541  0.3473  0.4526  0.3814
  130OSM   H11S13995   5.773   4.264   7.526 -1.9374  1.0523  1.8543
  130OSM   H11T13996   5.731   4.440   7.526 -0.9152 -0.8338  0.7616
  130OSM   C12S13997   5.853   4.366   7.689 -0.1824  0.2158 -0.4873
  130OSM   H12S13998   5.893   4.467   7.714 -1.9383  1.1710 -1.3338
  130OSM   H12T13999   5.946   4.306   7.701 -0.9302 -0.7104  0.7621
  130OSM   C13S14000   5.744   4.323   7.796  0.0253 -0.1186 -0.3376
  130OSM   H13S14001   5.685   4.233   7.769  0.4472 -0.2586 -0.8094
  130OSM   H13T14002   5.665   4.400   7.789 -1.8857 -1.6189  2.8013
  130OSM   C14S14003   5.792   4.330   7.939  0.1853  0.2616  0.5980
  130OSM   H14S14004   5.829   4.433   7.960  0.5269  0.2620  0.0082
  130OSM   H14T14005   5.878   4.262   7.954  0.7998  0.7942 -0.4031
  130OSM   C15S14006   5.692   4.287   8.050 -0.4855 -0.1521  0.0555
  130OSM   H15S14007   5.666   4.180   8.038 -0.7490  0.0717 -1.5376
  130OSM   H15T14008   5.596   4.343   8.046  0.2302  1.1371  0.3749
  130OSM   C16S14009   5.742   4.308   8.195  0.0106 -0.7853 -0.4316
  130OSM   H16S14010   5.852   4.288   8.195  0.5241  1.4671  1.3559
  130OSM   H16T14011   5.691   4.241   8.267 -1.1072  0.6217  0.1297
  130OSM   C17S14012   5.726   4.456   8.245  0.0635 -0.5835 -0.5161
  130OSM   H17S14013   5.623   4.497   8.238  0.4890  0.8996  1.0670
  130OSM   H17T14014   5.788   4.522   8.181 -1.3271 -0.0822 -1.4011
  130OSM   C18S14015   5.776   4.474   8.390 -0.2003 -0.1709 -0.1216
  130OSM   H18S14016   5.880   4.514   8.381 -0.4639  0.2587 -1.7165
  130OSM   H18T14017   5.793   4.375   8.435  0.9534  0.0013 -0.1251
  130OSM   H18U14018   5.705   4.540   8.444  0.7832  0.5422  0.3397
  130OSM    C1F14019   5.727   4.058   6.655 -0.4831  0.1951 -0.1934
  130OSM     OF14020   5.795   3.993   6.573 -0.1599 -0.7043 -0.6882
  130OSM    C2F14021   5.653   3.996   6.770 -0.5815  0.6287  0.3860
  130OSM    H2F14022   5.650   3.887   6.751  0.9281  0.4983  0.8205
  130OSM    H2G14023   5.548   4.032   6.764 -1.9207 -2.3938  3.1055
  130OSM    C3F14024   5.717   4.023   6.904 -1.0534 -0.2506 -0.0670
  130OSM    H3F14025   5.731   4.133   6.909  0.6494 -0.4175 -0.5246
  130OSM    H3G14026   5.814   3.969   6.908 -0.6939  0.3525 -0.4864
  130OSM    C4F14027   5.617   3.987   7.011  0.2369 -0.2092  0.6228
  130OSM    H4F14028   5.594   3.878   7.014  0.5688 -0.2730  0.9884
  130OSM    H4G14029   5.519   4.038   7.001  1.1740  1.5863  0.1163
  130OSM    C5F14030   5.678   4.020   7.151  0.2245 -0.2062  0.3762
  130OSM    H5F14031   5.687   4.131   7.157  0.7165 -0.2016 -0.4098
  130OSM    H5G14032   5.769   3.958   7.166 -1.0422 -1.9653  1.2062
  130OSM    C6F14033   5.591   3.967   7.269  0.4618  0.2290  0.1980
  130OSM    H6F14034   5.562   3.861   7.251  2.7839 -0.5194  0.5904
  130OSM    H6G14035   5.503   4.030   7.297 -0.7894 -1.6176  0.6271
  130OSM    C7F14036   5.678   3.962   7.400  0.0797 -0.5350 -0.5161
  130OSM    H7F14037   5.701   4.069   7.420  0.8647 -0.9163  0.7131
  130OSM    H7G14038   5.776   3.916   7.375  1.4564  2.0081 -0.1035
  130OSM    C8F14039   5.613   3.887   7.519 -0.3898 -0.4456  1.0814
  130OSM    H8F14040   5.624   3.778   7.501  0.0835 -0.4041  1.1084
  130OSM    H8G14041   5.507   3.920   7.511 -1.0954 -2.8916 -1.1760
  130OSM    C9F14042   5.672   3.941   7.644 -0.1520 -0.3165  0.3253
  130OSM    H9F14043   5.735   4.031   7.654  0.7595 -1.0079  0.9361
  130OSM   C10F14044   5.643   3.900   7.766  0.1287  0.5506  0.3240
  130OSM   H10F14045   5.690   3.951   7.851 -1.0050  0.6122  0.9344
  130OSM   C11F14046   5.552   3.790   7.803  0.1847  0.2158  0.1730
  130OSM   H11F14047   5.571   3.723   7.717 -0.4723  2.0907 -1.5003
  130OSM   H11G14048   5.450   3.823   7.773  0.7741  1.6318 -0.3844
  130OSM   C12F14049   5.565   3.721   7.942 -0.3279 -0.7053 -0.1700
  130OSM   H12F14050   5.668   3.679   7.949  0.6357  1.5590  0.1149
  130OSM   H12G14051   5.491   3.638   7.947 -0.4396 -0.9365 -3.3662
  130OSM   C13F14052   5.553   3.804   8.070  0.4225 -0.5551 -0.0671
  130OSM   H13F14053   5.449   3.844   8.066  0.6867  0.1553  0.0702
  130OSM   H13G14054   5.628   3.885   8.066  0.8807 -0.8263  1.9603
  130OSM   C14F14055   5.588   3.711   8.193 -0.1725  0.3803  1.7352
  130OSM   H14F14056   5.697   3.689   8.193 -0.4953 -2.0544 -1.8847
  130OSM   H14G14057   5.528   3.622   8.166  0.1399  1.0512 -1.7322
  130OSM   C15F14058   5.543   3.748   8.325 -0.0998  0.0935 -0.1770
  130OSM   H15F14059   5.439   3.787   8.319  0.6173  1.7959 -3.4318
  130OSM   H15G14060   5.608   3.836   8.345  3.9108 -2.5037 -0.5898
  130OSM   C16F14061   5.577   3.647   8.434 -0.5650  0.1531  0.2786
  130OSM   H16F14062   5.685   3.631   8.415 -1.0933 -2.8529 -0.7931
  130OSM   H16G14063   5.536   3.547   8.404  0.9520 -0.0218 -1.4516
  130OSM   C17F14064   5.553   3.702   8.571  0.8614 -0.6658  0.4042
  130OSM   H17F14065   5.615   3.794   8.583  1.9665 -1.0134 -2.1025
  130OSM   H17G14066   5.584   3.633   8.652  0.0378 -0.8953  0.5341
  130OSM   C18F14067   5.405   3.737   8.597  0.2207  0.2365  0.5059
  130OSM   H18F14068   5.382   3.735   8.706  1.0643  1.9847  0.7440
  130OSM   H18G14069   5.346   3.654   8.552  0.8747  1.1670 -2.1885
  130OSM   H18H14070   5.375   3.829   8.543 -1.0456 -1.2990 -1.5553
  131OSM      N14071   3.590   1.142   6.267 -0.3525 -0.6931 -1.0024
  131OSM    C1514072   3.695   1.181   6.163 -0.6244  0.2351  0.1094
  131OSM   H15A14073   3.789   1.219   6.201 -0.3821  0.2383 -0.4701
  131OSM   H15B14074   3.651   1.257   6.100 -1.4421  0.4900  0.9702
  131OSM   H15C14075   3.711   1.094   6.101  0.7270  0.0423  0.6899
  131OSM    C1414076   3.485   1.061   6.210 -0.1151  0.2735 -0.4115
  131OSM   H14A14077   3.514   0.962   6.177 -0.9733 -0.2365  0.3060
  131OSM   H14B14078   3.446   1.113   6.124 -0.7823  1.7371  0.7348
  131OSM   H14C14079   3.403   1.052   6.280  0.6910 -0.6827  0.4463
  131OSM    C1314080   3.658   1.061   6.382  0.1793 -0.5050  0.1515
  131OSM   H13A14081   3.732   1.122   6.431  0.4832 -1.4884  0.9430
  131OSM   H13B14082   3.716   0.979   6.341  2.7100  0.3822  1.7544
  131OSM   H13C14083   3.585   1.027   6.454 -0.0780  0.9335  0.5984
  131OSM    C1214084   3.522   1.267   6.332 -0.8532 -0.2064 -0.7064
  131OSM   H12A14085   3.470   1.322   6.255  0.3740 -0.0372 -1.4403
  131OSM   H12B14086   3.596   1.326   6.384 -1.2449  0.0519 -0.4409
  131OSM    C1114087   3.414   1.245   6.439 -1.0041 -0.6170  0.2504
  131OSM   H11A14088   3.392   1.323   6.516 -1.6718  1.0101 -1.4999
  131OSM   H11B14089   3.443   1.154   6.495 -0.9931 -0.6872  0.1282
  131OSM      P14090   3.209   1.344   6.306 -0.1646 -0.3703  0.0510
  131OSM    O1314091   3.299   1.424   6.216 -0.3549  0.2463 -0.2726
  131OSM    O1414092   3.074   1.302   6.253 -0.8416  0.7387 -0.4013
  131OSM    O1114093   3.188   1.440   6.433 -0.6928  0.2004  0.4832
  131OSM    O1214094   3.291   1.220   6.377  0.2121  0.0954  0.2015
  131OSM    C1S14095   3.073   1.437   6.514 -0.7695 -0.0504 -0.2136
  131OSM    H1S14096   2.997   1.361   6.485 -2.1585  1.5979 -1.1132
  131OSM    H1T14097   3.024   1.537   6.508  0.7557  0.7837  0.4907
  131OSM     NF14098   3.009   1.381   6.745  0.2760 -0.3739  0.2676
  131OSM    HNF14099   2.993   1.450   6.816 -0.9293 -2.6314  2.3575
  131OSM    C2S14100   3.121   1.401   6.656 -0.3431 -0.4243 -0.3152
  131OSM    H2S14101   3.162   1.298   6.650 -2.2548 -1.1263 -2.9665
  131OSM    C3S14102   3.224   1.506   6.716 -0.6889  0.6221  0.7655
  131OSM    H3S14103   3.165   1.598   6.739 -2.2091 -0.1203 -0.0259
  131OSM     O314104   3.332   1.541   6.632 -0.2228  0.2738 -0.0410
  131OSM    HO314105   3.340   1.481   6.557  1.4543 -0.1218  0.4288
  131OSM    C4S14106   3.274   1.457   6.850 -0.2048  0.1159 -0.1130
  131OSM    H4S14107   3.236   1.519   6.933  0.0172 -0.3520  0.3474
  131OSM    C5S14108   3.365   1.365   6.887  0.6471 -0.5776  0.1616
  131OSM    H5S14109   3.413   1.302   6.810  1.0592  0.2407 -0.2591
  131OSM    C6S14110   3.411   1.332   7.028  0.0573  0.3329  0.6147
  131OSM    H6S14111   3.519   1.355   7.042 -0.1712  1.8802 -0.0048
  131OSM    H6T14112   3.404   1.222   7.045  4.1540 -0.4891 -1.6760
  131OSM    C7S14113   3.328   1.395   7.141 -0.0002  0.5508  0.1496
  131OSM    H7S14114   3.223   1.359   7.134 -0.6049  2.3243 -0.3533
  131OSM    H7T14115   3.324   1.506   7.139 -1.4414  0.5190 -0.0400
  131OSM    C8S14116   3.372   1.344   7.283  0.1010  0.7149 -0.2716
  131OSM    H8S14117   3.470   1.392   7.300  0.7084  0.2312 -2.1770
  131OSM    H8T14118   3.393   1.236   7.274 -1.3320  0.4395 -0.5757
  131OSM    C9S14119   3.259   1.387   7.382 -0.1361 -0.6839 -0.7530
  131OSM    H9S14120   3.175   1.315   7.370  0.4174 -1.2411 -1.3318
  131OSM    H9T14121   3.215   1.487   7.363 -2.0451 -1.6219 -1.5533
  131OSM   C10S14122   3.301   1.364   7.529 -0.6207 -0.4328  0.0913
  131OSM   H10S14123   3.393   1.419   7.560 -1.6566  1.7740 -0.5434
  131OSM   H10T14124   3.304   1.258   7.561  0.6085 -0.6940 -0.7903
  131OSM   C11S14125   3.189   1.435   7.617  0.6350  0.0193  0.0692
  131OSM   H11S14126   3.090   1.395   7.585  1.2993 -0.6202 -1.3003
  131OSM   H11T14127   3.192   1.540   7.581  1.7718 -0.1473 -0.3842
  131OSM   C12S14128   3.207   1.437   7.766 -0.1179  0.2168  0.0632
  131OSM   H12S14129   3.134   1.502   7.818 -1.0299 -1.5656  1.1150
  131OSM   H12T14130   3.310   1.464   7.797  1.3743 -1.2980 -3.0741
  131OSM   C13S14131   3.183   1.293   7.819  0.3792  0.1648  0.2763
  131OSM   H13S14132   3.255   1.223   7.771  0.4098 -1.8139  2.9349
  131OSM   H13T14133   3.075   1.266   7.813  1.1891 -3.7147  0.0759
  131OSM   C14S14134   3.234   1.289   7.968 -0.2201 -0.1155  0.5449
  131OSM   H14S14135   3.191   1.380   8.014 -1.0499 -0.2586  0.0752
  131OSM   H14T14136   3.344   1.302   7.970 -0.0130 -1.6041  0.0360
  131OSM   C15S14137   3.197   1.159   8.041 -0.6905  0.1744  0.2306
  131OSM   H15S14138   3.232   1.080   7.971 -0.0568  2.0963 -1.7483
  131OSM   H15T14139   3.087   1.167   8.047 -0.7616  1.2929 -1.7257
  131OSM   C16S14140   3.264   1.149   8.180 -0.5081 -0.5877 -0.3615
  131OSM   H16S14141   3.373   1.165   8.166 -0.7376  2.5114  0.4967
  131OSM   H16T14142   3.259   1.047   8.225  0.7243 -0.6119 -0.2354
  131OSM   C17S14143   3.224   1.259   8.278  0.5427 -0.1246  0.2915
  131OSM   H17S14144   3.117   1.241   8.302  0.7698  1.3823  2.7546
  131OSM   H17T14145   3.241   1.360   8.236  0.0730  0.3003  1.1149
  131OSM   C18S14146   3.308   1.232   8.404 -0.2109 -0.6798 -0.1046
  131OSM   H18S14147   3.265   1.290   8.488 -4.1464 -2.3393 -0.7572
  131OSM   H18T14148   3.416   1.256   8.392  0.3243 -2.1228  1.4287
  131OSM   H18U14149   3.293   1.123   8.422 -2.3973 -0.6136 -1.1773
  131OSM    C1F14150   2.917   1.283   6.742 -0.0435 -0.0714  0.6148
  131OSM     OF14151   2.915   1.202   6.650 -0.2193 -0.0322 -0.5098
  131OSM    C2F14152   2.824   1.280   6.847 -0.5315  0.0215 -1.1570
  131OSM    H2F14153   2.727   1.313   6.802 -1.0792  0.6879  0.4347
  131OSM    H2G14154   2.848   1.341   6.937 -0.0011 -0.6327 -0.8475
  131OSM    C3F14155   2.789   1.133   6.900 -0.0332 -0.3610  0.8176
  131OSM    H3F14156   2.749   1.070   6.818  0.5002 -0.7411  0.8513
  131OSM    H3G14157   2.713   1.132   6.982 -0.5742  0.2816  0.3386
  131OSM    C4F14158   2.905   1.052   6.963  0.2762 -0.4952  0.2231
  131OSM    H4F14159   2.970   1.007   6.885  0.5670  2.0349 -1.0849
  131OSM    H4G14160   2.865   0.963   7.017  2.1479  0.2026  3.0194
  131OSM    C5F14161   2.993   1.131   7.063  0.1666 -0.3250  0.4349
  131OSM    H5F14162   2.934   1.202   7.124  0.3418  1.6981 -1.6398
  131OSM    H5G14163   3.058   1.196   7.002 -1.3566  0.2246 -0.6776
  131OSM    C6F14164   3.076   1.050   7.155 -0.0139 -0.4682 -0.1887
  131OSM    H6F14165   3.172   1.095   7.188 -0.1823  0.0906 -0.4525
  131OSM    H6G14166   3.107   0.953   7.110  0.2248 -0.9218  0.9283
  131OSM    C7F14167   2.993   1.017   7.283 -0.9780  0.3366 -0.3191
  131OSM    H7F14168   2.887   1.001   7.253 -1.5283 -0.7638  1.9658
  131OSM    H7G14169   2.989   1.106   7.349  0.0851  0.3448 -0.2496
  131OSM    C8F14170   3.045   0.895   7.369  0.0749  0.1999 -0.0245
  131OSM    H8F14171   3.054   0.811   7.296  1.8087 -0.2005  0.5873
  131OSM    H8G14172   2.971   0.872   7.449 -1.9736  1.5923 -1.4103
  131OSM    C9F14173   3.176   0.933   7.434 -0.0229  0.4426  0.3492
  131OSM    H9F14174   3.247   0.976   7.361 -1.4964 -1.1083 -2.1722
  131OSM   C10F14175   3.214   0.932   7.566  0.2705  0.5792  0.5179
  131OSM   H10F14176   3.316   0.963   7.592  2.2789 -3.1862 -1.8895
  131OSM   C11F14177   3.125   0.888   7.686  0.6465 -0.7828 -0.0923
  131OSM   H11F14178   3.020   0.854   7.666  0.0465  0.6697  0.4529
  131OSM   H11G14179   3.115   0.978   7.750  0.5350 -1.2120  0.5076
  131OSM   C12F14180   3.182   0.761   7.756 -0.4447 -0.3259  0.3265
  131OSM   H12F14181   3.286   0.784   7.785 -0.9019  0.1392  1.7117
  131OSM   H12G14182   3.172   0.681   7.680 -2.3734 -1.9888  2.1858
  131OSM   C13F14183   3.105   0.722   7.888  0.3932 -0.6312 -0.1512
  131OSM   H13F14184   3.163   0.640   7.936  1.5526  0.4922  0.4288
  131OSM   H13G14185   3.010   0.675   7.856 -0.6767  1.4105 -0.1077
  131OSM   C14F14186   3.079   0.836   7.993  0.1308  0.1920  0.6123
  131OSM   H14F14187   3.021   0.922   7.954 -1.0685 -1.2973 -1.0237
  131OSM   H14G14188   3.180   0.863   8.032  0.8202 -1.2437 -0.1167
  131OSM   C15F14189   2.990   0.787   8.102 -0.3204  0.0553  0.2097
  131OSM   H15F14190   2.904   0.723   8.075 -0.7582  0.4697  0.6022
  131OSM   H15G14191   2.936   0.867   8.158  0.6351 -1.0556  2.9233
  131OSM   C16F14192   3.063   0.704   8.207  0.2351 -1.0909 -0.1224
  131OSM   H16F14193   3.171   0.729   8.214 -0.1587  0.6316  0.3150
  131OSM   H16G14194   3.072   0.596   8.181 -2.8004 -2.3197  3.1668
  131OSM   C17F14195   2.992   0.722   8.348  0.0151 -0.4246  0.5406
  131OSM   H17F14196   2.882   0.714   8.329  0.1832  1.9318 -2.1732
  131OSM   H17G14197   3.006   0.823   8.392 -0.6630  0.0148 -0.2345
  131OSM   C18F14198   3.026   0.605   8.432  0.2426 -0.1092 -0.9931
  131OSM   H18F14199   2.958   0.596   8.520 -0.6760  2.5849 -1.3443
  131OSM   H18G14200   3.130   0.603   8.470 -0.3524 -0.1891  0.7461
  131OSM   H18H14201   3.019   0.508   8.377  0.8302  1.1774 -3.4748
  132OSM      N14202   1.814   2.329   6.093 -0.3734  0.3163  0.6332
  132OSM    C1514203   1.738   2.407   5.981  0.1043 -0.3124 -0.4376
  132OSM   H15A14204   1.638   2.369   5.967 -0.5059  1.2629 -0.6065
  132OSM   H15B14205   1.793   2.391   5.890  2.4090  1.4986  0.5220
  132OSM   H15C14206   1.728   2.509   6.016  0.9357 -0.3740  0.0201
  132OSM    C1414207   1.947   2.401   6.100  0.4076 -0.0783 -0.0234
  132OSM   H14A14208   1.986   2.374   6.197 -1.4592 -2.2492  0.1899
  132OSM   H14B14209   1.949   2.509   6.088 -0.4633  0.0265  0.7519
  132OSM   H14C14210   2.024   2.365   6.032 -0.6823 -0.5678 -1.0336
  132OSM    C1314211   1.728   2.346   6.209 -0.0630  0.0281  0.0996
  132OSM   H13A14212   1.769   2.292   6.293  5.5874  1.5663 -1.2021
  132OSM   H13B14213   1.630   2.307   6.187  0.8145 -1.2001 -2.0498
  132OSM   H13C14214   1.716   2.449   6.238 -0.7312  0.0366 -0.1933
  132OSM    C1214215   1.842   2.182   6.053  0.7424  0.0660  0.3397
  132OSM   H12A14216   1.895   2.185   5.959  0.0062 -0.8767 -0.1142
  132OSM   H12B14217   1.747   2.131   6.046  1.8532 -2.1121  0.5481
  132OSM    C1114218   1.941   2.102   6.139 -0.2741 -0.0619 -0.4852
  132OSM   H11A14219   2.043   2.146   6.132 -0.6789  1.4690  1.8853
  132OSM   H11B14220   1.946   1.998   6.102 -3.5598 -1.2639  1.9517
  132OSM      P14221   1.828   1.970   6.338 -0.2488  0.1592 -0.0904
  132OSM    O1314222   1.708   1.946   6.248 -0.1804 -0.4906  0.5899
  132OSM    O1414223   1.920   1.855   6.355  0.4724  0.6134  0.2152
  132OSM    O1114224   1.781   2.020   6.474 -0.2797  0.4130 -0.3365
  132OSM    O1214225   1.913   2.092   6.279  0.0556 -0.1325 -0.2403
  132OSM    C1S14226   1.876   2.051   6.578  0.9809  0.5371  0.3606
  132OSM    H1S14227   1.944   2.127   6.533  0.1579  0.6783 -0.6843
  132OSM    H1T14228   1.935   1.962   6.607 -2.0385 -2.0207 -0.7896
  132OSM     NF14229   1.916   2.145   6.798  0.2123  0.4007 -0.0052
  132OSM    HNF14230   1.923   2.085   6.878  2.0663  0.3430 -0.1809
  132OSM    C2S14231   1.809   2.113   6.707  1.0424  0.1049  0.1344
  132OSM    H2S14232   1.762   2.209   6.679 -0.3254 -0.8729 -1.0703
  132OSM    C3S14233   1.690   2.021   6.755 -0.1700 -0.4431  0.7451
  132OSM    H3S14234   1.740   1.925   6.780  0.4221 -0.4705 -0.4771
  132OSM     O314235   1.607   1.985   6.652 -0.3527 -0.0508  0.0453
  132OSM    HO314236   1.663   2.012   6.579 -0.2165  1.9152  0.8340
  132OSM    C4S14237   1.635   2.085   6.876  0.5010  0.6427 -0.7253
  132OSM    H4S14238   1.698   2.054   6.961  1.6841 -0.8763 -2.0834
  132OSM    C5S14239   1.538   2.177   6.883 -0.3004 -0.2476 -0.0135
  132OSM    H5S14240   1.495   2.223   6.793  1.2754  0.8025 -0.2538
  132OSM    C6S14241   1.484   2.234   7.010 -0.2116 -0.3412  0.5651
  132OSM    H6S14242   1.375   2.212   7.019 -0.1554 -0.3863  1.1370
  132OSM    H6T14243   1.484   2.344   6.997 -0.9194 -0.5161 -1.2021
  132OSM    C7S14244   1.545   2.170   7.137  0.0092 -0.6829  0.5901
  132OSM    H7S14245   1.651   2.203   7.141 -0.3215  0.8471 -1.7025
  132OSM    H7T14246   1.554   2.059   7.135  0.1074 -0.6796 -1.3115
  132OSM    C8S14247   1.469   2.202   7.267 -0.7820 -0.9267 -0.4603
  132OSM    H8S14248   1.368   2.156   7.264 -0.4644 -1.6895 -3.4031
  132OSM    H8T14249   1.475   2.312   7.275  0.0280 -0.8772 -1.4071
  132OSM    C9S14250   1.545   2.169   7.400  0.6889  0.4031 -0.5002
  132OSM    H9S14251   1.638   2.229   7.411 -0.4021  1.7621  2.4499
  132OSM    H9T14252   1.559   2.059   7.405 -1.6286  0.0413 -0.8560
  132OSM   C10S14253   1.470   2.199   7.532 -0.2048 -0.0368  0.2319
  132OSM   H10S14254   1.367   2.156   7.538 -1.0299  1.9885  3.1464
  132OSM   H10T14255   1.440   2.306   7.534  2.4478  0.7612  1.1446
  132OSM   C11S14256   1.554   2.168   7.651 -0.2695  0.4619  0.9907
  132OSM   H11S14257   1.647   2.229   7.648  0.1230 -0.1428 -1.5267
  132OSM   H11T14258   1.595   2.065   7.645  0.6552  0.8536  0.3224
  132OSM   C12S14259   1.484   2.198   7.782 -0.1227  0.1489  1.6038
  132OSM   H12S14260   1.376   2.172   7.779 -0.5552  1.8249 -1.8416
  132OSM   H12T14261   1.502   2.304   7.811  1.3425  0.0671  1.0803
  132OSM   C13S14262   1.552   2.136   7.908 -0.1245 -0.5346  0.6603
  132OSM   H13S14263   1.533   2.027   7.898 -0.0701 -0.4690 -0.2753
  132OSM   H13T14264   1.497   2.171   7.998  1.2660  2.4009  0.5166
  132OSM   C14S14265   1.701   2.172   7.924 -0.6401  0.4015 -0.5571
  132OSM   H14S14266   1.719   2.282   7.932  2.5722 -0.0934  0.6522
  132OSM   H14T14267   1.757   2.149   7.831 -0.5058  0.3152 -0.4567
  132OSM   C15S14268   1.761   2.102   8.048  0.5026 -0.2834  0.1100
  132OSM   H15S14269   1.869   2.088   8.025  0.0805 -1.7554 -1.1705
  132OSM   H15T14270   1.706   2.009   8.076  0.7113 -0.6453 -0.6665
  132OSM   C16S14271   1.769   2.197   8.165  0.1888  0.1963  0.2739
  132OSM   H16S14272   1.665   2.224   8.193  0.4359  1.8460 -0.2504
  132OSM   H16T14273   1.807   2.297   8.133 -1.3601  1.1618  1.3012
  132OSM   C17S14274   1.835   2.144   8.294  0.3185 -0.3992  0.7462
  132OSM   H17S14275   1.808   2.211   8.378 -1.0409  0.9810 -0.7268
  132OSM   H17T14276   1.945   2.150   8.280  0.1308 -1.4542 -1.4946
  132OSM   C18S14277   1.790   2.008   8.333 -0.2025 -0.3777  0.3402
  132OSM   H18S14278   1.689   2.025   8.378 -1.3972 -0.5412 -2.1325
  132OSM   H18T14279   1.863   1.960   8.402  0.7973 -2.2007 -1.8680
  132OSM   H18U14280   1.766   1.940   8.249  1.8268  1.1981 -1.6379
  132OSM    C1F14281   2.008   2.239   6.778 -0.3304 -0.2343  0.1485
  132OSM     OF14282   1.999   2.316   6.683  0.3612 -0.2399  0.2479
  132OSM    C2F14283   2.108   2.263   6.889  0.3755  0.2296 -0.2741
  132OSM    H2F14284   2.121   2.176   6.957  1.1704 -0.3525 -1.1551
  132OSM    H2G14285   2.061   2.340   6.954  0.0410 -0.5316  0.4161
  132OSM    C3F14286   2.252   2.288   6.841 -0.1266  0.2640 -0.4426
  132OSM    H3F14287   2.265   2.393   6.808  3.0876 -0.4858 -2.0159
  132OSM    H3G14288   2.279   2.219   6.758  4.1947 -1.6274  2.1718
  132OSM    C4F14289   2.366   2.266   6.945 -0.4118  0.5533 -0.5156
  132OSM    H4F14290   2.467   2.277   6.900  0.1818 -0.2793  0.5439
  132OSM    H4G14291   2.347   2.169   6.997 -1.3622  0.1873 -1.5078
  132OSM    C5F14292   2.361   2.364   7.064  0.2036 -0.1490 -0.0147
  132OSM    H5F14293   2.255   2.373   7.094  0.2091 -0.7552  0.2113
  132OSM    H5G14294   2.397   2.464   7.035  1.9855 -0.6754  0.2775
  132OSM    C6F14295   2.431   2.311   7.189  0.0724  0.0570  0.5621
  132OSM    H6F14296   2.539   2.302   7.164 -0.0520  0.3526 -0.1016
  132OSM    H6G14297   2.381   2.213   7.206 -3.0970  1.2920 -0.7904
  132OSM    C7F14298   2.385   2.388   7.315  0.4787 -0.4809 -0.0131
  132OSM    H7F14299   2.279   2.362   7.335  1.0152 -1.9813  1.1057
  132OSM    H7G14300   2.406   2.496   7.298 -2.8575  0.3485  0.3882
  132OSM    C8F14301   2.470   2.353   7.440  0.0785 -1.0395  0.0939
  132OSM    H8F14302   2.577   2.376   7.420 -0.5606  1.3225 -1.1251
  132OSM    H8G14303   2.468   2.250   7.480  1.5879 -1.3697 -0.6017
  132OSM    C9F14304   2.404   2.436   7.546 -0.3340  0.1717  0.0199
  132OSM    H9F14305   2.398   2.541   7.513  0.3840 -0.2249 -1.4710
  132OSM   C10F14306   2.363   2.404   7.672 -1.1519 -0.0320  0.6986
  132OSM   H10F14307   2.329   2.486   7.737 -0.8251  1.5624 -1.0335
  132OSM   C11F14308   2.384   2.270   7.738  0.2215  0.1118  0.2581
  132OSM   H11F14309   2.492   2.256   7.760  0.6835  1.0764 -1.1886
  132OSM   H11G14310   2.340   2.196   7.668 -0.6727  0.9983 -0.1583
  132OSM   C12F14311   2.300   2.257   7.860  0.2934  0.2942 -0.3837
  132OSM   H12F14312   2.195   2.290   7.845  0.4818  2.6213  2.5134
  132OSM   H12G14313   2.337   2.327   7.938  0.1994  0.4241 -0.4544
  132OSM   C13F14314   2.296   2.112   7.919 -0.8115 -0.0063  0.0178
  132OSM   H13F14315   2.399   2.079   7.940 -2.0180 -2.3468  3.0062
  132OSM   H13G14316   2.263   2.045   7.836  0.8337  0.4676 -1.0637
  132OSM   C14F14317   2.218   2.107   8.050 -0.1973 -0.8778  0.1759
  132OSM   H14F14318   2.109   2.117   8.031 -0.6783 -2.7740  1.5776
  132OSM   H14G14319   2.248   2.190   8.118  0.0854 -1.0522  0.2671
  132OSM   C15F14320   2.249   1.979   8.125 -0.2071  0.7487 -0.3820
  132OSM   H15F14321   2.358   1.961   8.133 -0.4156 -0.0011  1.1569
  132OSM   H15G14322   2.204   1.891   8.074  2.4102 -1.5436  0.9853
  132OSM   C16F14323   2.188   1.994   8.265  0.2355  0.1074 -0.0097
  132OSM   H16F14324   2.077   1.997   8.256  0.4047 -0.7453 -4.1361
  132OSM   H16G14325   2.210   2.092   8.312  1.8305 -1.6436  3.2592
  132OSM   C17F14326   2.220   1.881   8.366  0.2687  0.0730  0.1493
  132OSM   H17F14327   2.208   1.782   8.316  1.1502  0.3950 -0.7331
  132OSM   H17G14328   2.148   1.888   8.450  1.5064  2.8982  1.0969
  132OSM   C18F14329   2.367   1.896   8.428 -0.6322  0.1753  0.4114
  132OSM   H18F14330   2.371   2.006   8.447 -3.6571  0.4027  0.2545
  132OSM   H18G14331   2.442   1.867   8.352 -1.2407  0.5014 -0.3254
  132OSM   H18H14332   2.389   1.849   8.527  0.7101  0.2249  0.1532
  133OSM      N14333   0.501   2.265   5.963 -0.1037 -0.1371  0.0896
  133OSM    C1514334   0.520   2.143   5.875  0.4819  0.1707 -1.0124
  133OSM   H15A14335   0.623   2.144   5.843  0.5686 -2.0598 -0.9655
  133OSM   H15B14336   0.466   2.148   5.781 -0.4309 -2.5100 -0.7461
  133OSM   H15C14337   0.507   2.051   5.931  0.7531 -1.1387 -2.9930
  133OSM    C1414338   0.553   2.376   5.877  0.2568 -0.3762  0.1265
  133OSM   H14A14339   0.658   2.364   5.857  0.2382 -0.0405 -0.1875
  133OSM   H14B14340   0.527   2.476   5.909  1.2737  0.2054 -0.8327
  133OSM   H14C14341   0.511   2.385   5.778 -0.5277  2.1767  0.6244
  133OSM    C1314342   0.360   2.306   5.995 -0.8098  0.2576  0.0910
  133OSM   H13A14343   0.297   2.317   5.908  0.5491 -0.5575 -1.0329
  133OSM   H13B14344   0.360   2.399   6.049 -0.4958 -0.1518  0.8069
  133OSM   H13C14345   0.310   2.236   6.060  1.4805  0.0283  1.7185
  133OSM    C1214346   0.576   2.252   6.096 -0.0574  0.4172  0.8207
  133OSM   H12A14347   0.578   2.346   6.149  0.1639 -0.7708  3.0296
  133OSM   H12B14348   0.682   2.237   6.083 -0.0571 -0.0083  1.2834
  133OSM    C1114349   0.525   2.146   6.196 -0.1477 -0.0871 -0.6506
  133OSM   H11A14350   0.416   2.158   6.217 -0.0694 -0.8581  0.2654
  133OSM   H11B14351   0.580   2.180   6.287 -1.5732  1.1268 -0.2019
  133OSM      P14352   0.707   1.967   6.167 -0.1559 -0.8883 -0.0130
  133OSM    O1314353   0.718   1.827   6.116 -0.6288  0.4904 -0.5571
  133OSM    O1414354   0.805   2.061   6.111  0.0653 -0.2707 -0.1333
  133OSM    O1114355   0.731   1.966   6.319 -0.0953  0.2303 -0.0061
  133OSM    O1214356   0.560   2.019   6.151  0.2880  0.4081 -0.4851
  133OSM    C1S14357   0.676   1.869   6.408  0.4478 -0.4002 -0.6865
  133OSM    H1S14358   0.706   1.766   6.380  0.6388 -0.6318  0.3299
  133OSM    H1T14359   0.565   1.872   6.407  0.4309 -0.1908  0.6714
  133OSM     NF14360   0.676   1.781   6.637 -0.0367 -0.1717 -0.0161
  133OSM    HNF14361   0.581   1.788   6.668 -1.5774 -1.9906 -3.6699
  133OSM    C2S14362   0.722   1.890   6.555  0.1031 -0.7512  0.2271
  133OSM    H2S14363   0.833   1.892   6.554  0.1159 -0.0032 -1.6037
  133OSM    C3S14364   0.663   2.026   6.589 -0.1832 -0.1304  1.0885
  133OSM    H3S14365   0.559   2.020   6.550 -0.0828  0.5986  0.6886
  133OSM     O314366   0.719   2.141   6.520 -1.0319  0.0353 -0.0761
  133OSM    HO314367   0.755   2.105   6.439 -0.1069 -0.1611  0.4139
  133OSM    C4S14368   0.656   2.065   6.731  0.6267  0.0295 -0.5349
  133OSM    H4S14369   0.751   2.085   6.783  0.4296 -0.7189  0.1256
  133OSM    C5S14370   0.543   2.073   6.805 -0.2900 -0.3599 -0.0509
  133OSM    H5S14371   0.452   2.035   6.757  1.7879 -3.1135 -2.0954
  133OSM    C6S14372   0.520   2.114   6.946  0.8801 -0.8409 -0.9335
  133OSM    H6S14373   0.430   2.179   6.954  0.6267 -1.0941 -1.7015
  133OSM    H6T14374   0.599   2.174   6.995 -1.4656  1.2931  0.4794
  133OSM    C7S14375   0.500   1.991   7.030 -0.7976 -0.1520 -0.0355
  133OSM    H7S14376   0.414   1.928   6.997 -0.3600 -0.2354 -1.0485
  133OSM    H7T14377   0.465   2.028   7.129  0.5296  0.1364  0.3389
  133OSM    C8S14378   0.624   1.900   7.062  0.2177 -0.6843 -0.3202
  133OSM    H8S14379   0.720   1.954   7.073  0.4737 -0.9670 -1.1130
  133OSM    H8T14380   0.630   1.830   6.975  1.2829  0.0444 -0.8468
  133OSM    C9S14381   0.590   1.823   7.191  0.3796  0.0274 -0.0117
  133OSM    H9S14382   0.647   1.727   7.195 -1.4796 -1.2097 -1.2915
  133OSM    H9T14383   0.484   1.791   7.180  0.7839 -1.2434 -0.4280
  133OSM   C10S14384   0.620   1.904   7.322  0.6479  0.6384  0.0542
  133OSM   H10S14385   0.620   2.014   7.304  1.5356  0.8107  1.0014
  133OSM   H10T14386   0.723   1.885   7.359  0.1144  0.4827  1.5296
  133OSM   C11S14387   0.513   1.867   7.432  0.5080 -0.1717  1.0102
  133OSM   H11S14388   0.510   1.756   7.431 -1.8238 -0.1902 -1.3981
  133OSM   H11T14389   0.410   1.884   7.395  0.5811 -1.0233  0.3843
  133OSM   C12S14390   0.542   1.930   7.568  0.2778  0.3156 -0.3149
  133OSM   H12S14391   0.568   2.037   7.563  0.4242  0.3385  0.7197
  133OSM   H12T14392   0.640   1.894   7.606  0.2419 -0.3820 -0.8482
  133OSM   C13S14393   0.421   1.902   7.666 -0.3118 -0.6255 -0.9553
  133OSM   H13S14394   0.407   1.792   7.654 -0.8364 -0.8261  1.0661
  133OSM   H13T14395   0.328   1.957   7.638 -1.0100  0.4860  2.9237
  133OSM   C14S14396   0.456   1.940   7.812  0.2575 -0.6948 -0.4448
  133OSM   H14S14397   0.494   2.045   7.811  1.0872 -0.8998  2.1862
  133OSM   H14T14398   0.547   1.891   7.851  0.4143 -0.4105 -0.4474
  133OSM   C15S14399   0.334   1.925   7.908  0.1652 -0.2622 -0.3137
  133OSM   H15S14400   0.284   1.835   7.867  0.1780 -0.6332  0.4719
  133OSM   H15T14401   0.260   2.007   7.898  0.4000  0.1334  1.0252
  133OSM   C16S14402   0.375   1.928   8.052 -0.1946 -0.6126  0.1558
  133OSM   H16S14403   0.415   2.030   8.070 -0.2399 -0.0547 -2.4377
  133OSM   H16T14404   0.457   1.854   8.066  1.6553  1.6161  1.9437
  133OSM   C17S14405   0.269   1.912   8.156 -0.0069 -0.5126 -0.6434
  133OSM   H17S14406   0.222   1.813   8.139  1.0195 -1.2075  0.4299
  133OSM   H17T14407   0.194   1.993   8.146  1.4331  0.9211 -0.3115
  133OSM   C18S14408   0.315   1.918   8.299 -0.6152 -0.2182 -0.4926
  133OSM   H18S14409   0.407   1.857   8.310  1.3058  2.2347 -1.8911
  133OSM   H18T14410   0.240   1.884   8.373  0.9474 -0.3108  1.1292
  133OSM   H18U14411   0.357   2.020   8.316  1.0364 -0.8389 -0.6125
  133OSM    C1F14412   0.730   1.660   6.649 -0.5791 -0.9386 -0.1167
  133OSM     OF14413   0.828   1.623   6.586 -0.4978  0.0153 -0.6822
  133OSM    C2F14414   0.670   1.572   6.752 -0.4114  0.0869  0.3957
  133OSM    H2F14415   0.608   1.497   6.699 -2.3684  1.9796 -0.1659
  133OSM    H2G14416   0.596   1.623   6.817 -0.4493  1.1773 -0.4591
  133OSM    C3F14417   0.780   1.490   6.830 -0.7772  0.0036 -0.1638
  133OSM    H3F14418   0.846   1.554   6.892 -0.3949 -3.3719  3.2868
  133OSM    H3G14419   0.843   1.437   6.755  0.6265 -1.4696  1.9530
  133OSM    C4F14420   0.718   1.397   6.937  0.8960  0.0470  0.4371
  133OSM    H4F14421   0.632   1.338   6.899  0.9562  0.4625 -0.3706
  133OSM    H4G14422   0.668   1.458   7.016 -1.0454  0.0218 -0.7001
  133OSM    C5F14423   0.831   1.319   7.017 -0.6878 -0.0784 -0.2551
  133OSM    H5F14424   0.902   1.273   6.945 -2.8101  0.4799 -2.8559
  133OSM    H5G14425   0.783   1.241   7.080  1.8159 -0.8052  0.8751
  133OSM    C6F14426   0.919   1.408   7.108  0.1415  0.0247  0.0343
  133OSM    H6F14427   0.979   1.482   7.051 -0.2615  0.9756  0.8332
  133OSM    H6G14428   0.990   1.351   7.172  1.3058 -0.1266 -1.3278
  133OSM    C7F14429   0.837   1.499   7.198 -0.8209 -0.4749 -0.1465
  133OSM    H7F14430   0.791   1.570   7.125  4.0236  2.1463 -1.1222
  133OSM    H7G14431   0.902   1.559   7.266 -0.0371 -0.9856 -0.4265
  133OSM    C8F14432   0.730   1.433   7.284 -0.8768 -1.2141 -1.2490
  133OSM    H8F14433   0.658   1.381   7.217 -1.7153 -1.4789 -0.1678
  133OSM    H8G14434   0.679   1.511   7.345 -0.7326 -0.2793 -2.2956
  133OSM    C9F14435   0.793   1.334   7.380  0.1283 -0.1186 -0.4573
  133OSM    H9F14436   0.847   1.249   7.336 -0.0173 -0.0702 -0.7297
  133OSM   C10F14437   0.797   1.349   7.513  0.0589  0.5102  0.5468
  133OSM   H10F14438   0.837   1.262   7.567  0.9785  0.5117 -0.1089
  133OSM   C11F14439   0.748   1.465   7.593  0.6136  0.5597  0.3611
  133OSM   H11F14440   0.637   1.471   7.591  0.4725 -1.4551 -0.9876
  133OSM   H11G14441   0.785   1.555   7.540 -0.9421  0.0157 -1.8033
  133OSM   C12F14442   0.812   1.471   7.734 -0.5672  0.1573  0.3408
  133OSM   H12F14443   0.923   1.469   7.728 -0.4677 -0.0412  1.9169
  133OSM   H12G14444   0.780   1.380   7.788 -0.1334 -0.8737 -1.0919
  133OSM   C13F14445   0.762   1.601   7.803  0.4442  0.2299 -0.5121
  133OSM   H13F14446   0.658   1.588   7.838  0.7645  0.4092  0.5760
  133OSM   H13G14447   0.773   1.690   7.738  1.1178 -0.2288 -1.0461
  133OSM   C14F14448   0.837   1.621   7.933  0.5892 -0.0466 -0.6785
  133OSM   H14F14449   0.943   1.634   7.902  1.0529 -4.0591 -1.3171
  133OSM   H14G14450   0.839   1.534   8.002  0.6264 -2.0242 -3.0316
  133OSM   C15F14451   0.779   1.733   8.022 -0.1831  0.4678  0.3656
  133OSM   H15F14452   0.671   1.715   8.042  0.1618 -0.2316  1.6937
  133OSM   H15G14453   0.794   1.829   7.969  0.5712  0.0505 -0.1985
  133OSM   C16F14454   0.852   1.740   8.154  0.4378  0.1600 -0.5659
  133OSM   H16F14455   0.958   1.743   8.122  0.0976 -2.1109 -2.1664
  133OSM   H16G14456   0.839   1.647   8.214  1.1796  0.0481 -0.5639
  133OSM   C17F14457   0.842   1.862   8.245  0.4062  0.3228 -0.2460
  133OSM   H17F14458   0.916   1.937   8.210  0.9970 -0.9282 -1.7617
  133OSM   H17G14459   0.883   1.834   8.344  1.3029 -0.3837 -0.8013
  133OSM   C18F14460   0.701   1.921   8.265  0.7600  0.4601  0.7083
  133OSM   H18F14461   0.712   1.980   8.359 -0.8285  2.4144 -0.2683
  133OSM   H18G14462   0.615   1.850   8.265 -0.7095  1.8209 -4.4242
  133OSM   H18H14463   0.668   1.990   8.185 -1.9698  0.2850  1.5650
  134OSM      N14464   4.811   4.377   6.436  0.1402 -0.8079 -0.3500
  134OSM    C1514465   4.710   4.286   6.503 -0.7830  0.8335  0.1189
  134OSM   H15A14466   4.661   4.335   6.586  0.5016  1.6045  0.4556
  134OSM   H15B14467   4.758   4.197   6.541 -1.2114  0.4766 -0.1757
  134OSM   H15C14468   4.643   4.259   6.423  1.8538  0.0839 -2.0202
  134OSM    C1414469   4.858   4.308   6.310 -0.2520 -0.6364 -0.6854
  134OSM   H14A14470   4.881   4.204   6.325 -0.1147 -0.4969  0.1073
  134OSM   H14B14471   4.927   4.373   6.257 -1.8618  1.7104 -0.0505
  134OSM   H14C14472   4.773   4.283   6.248 -2.1299  0.5296  1.2923
  134OSM    C1314473   4.752   4.509   6.401 -0.8833 -0.2757  0.1260
  134OSM   H13A14474   4.666   4.499   6.335 -0.7258 -0.0998 -0.1085
  134OSM   H13B14475   4.830   4.562   6.348 -0.4092 -1.1478 -0.0597
  134OSM   H13C14476   4.722   4.566   6.488 -0.5997 -1.9078  1.3387
  134OSM    C1214477   4.931   4.395   6.521  0.0137  0.3989 -0.4546
  134OSM   H12A14478   5.002   4.448   6.460  0.7879 -2.0969 -1.8797
  134OSM   H12B14479   4.969   4.295   6.541  0.2322  0.3803 -0.9496
  134OSM    C1114480   4.908   4.466   6.656 -0.2580 -0.2525  0.3020
  134OSM   H11A14481   4.987   4.466   6.734 -0.6692  1.9073  0.8004
  134OSM   H11B14482   4.830   4.411   6.712  2.0644 -1.8600  2.1049
  134OSM      P14483   4.989   4.707   6.587  0.4849  0.0592  0.2359
  134OSM    O1314484   5.007   4.681   6.444 -0.2386 -0.2426 -0.2838
  134OSM    O1414485   4.944   4.846   6.621  0.0813 -0.6268 -0.6361
  134OSM    O1114486   5.111   4.665   6.675 -0.3510 -0.3515 -0.3263
  134OSM    O1214487   4.875   4.611   6.635  0.7232  0.4368 -0.7540
  134OSM    C1S14488   5.103   4.697   6.814 -0.0715  0.7450  0.2472
  134OSM    H1S14489   5.048   4.621   6.873 -1.3546 -1.5656 -3.5798
  134OSM    H1T14490   5.060   4.798   6.836 -1.4225  0.6396 -1.7228
  134OSM     NF14491   5.243   4.756   6.998 -0.3257 -0.1599 -0.3142
  134OSM    HNF14492   5.253   4.851   7.026 -1.0926 -1.1212  3.9261
  134OSM    C2S14493   5.247   4.708   6.872  0.2020  0.3978 -0.4288
  134OSM    H2S14494   5.273   4.600   6.873 -1.0024  0.0945 -0.2231
  134OSM    C3S14495   5.344   4.791   6.790  0.1375  0.3256 -0.1019
  134OSM    H3S14496   5.311   4.897   6.792 -0.7227  0.0868 -0.7538
  134OSM     O314497   5.364   4.763   6.649 -0.0306 -0.4758 -0.3406
  134OSM    HO314498   5.292   4.704   6.624  0.5713 -1.4425  0.1151
  134OSM    C4S14499   5.477   4.787   6.853 -0.0693  0.0379  0.0288
  134OSM    H4S14500   5.478   4.858   6.937 -3.3077 -0.5755  0.7480
  134OSM    C5S14501   5.590   4.714   6.824 -0.3022 -0.1803 -0.5128
  134OSM    H5S14502   5.585   4.655   6.732  0.2708  0.3197 -0.8723
  134OSM    C6S14503   5.716   4.737   6.900  0.5410  0.4755 -0.3454
  134OSM    H6S14504   5.796   4.768   6.829 -0.6493 -2.3136 -3.1561
  134OSM    H6T14505   5.755   4.637   6.929  2.7510  1.2810 -0.3223
  134OSM    C7S14506   5.710   4.820   7.026 -0.6849 -0.4923  1.4166
  134OSM    H7S14507   5.658   4.916   7.009  0.0189 -0.4111 -0.4702
  134OSM    H7T14508   5.812   4.852   7.057 -0.2019 -0.2499 -0.3318
  134OSM    C8S14509   5.647   4.749   7.147  0.1006 -0.6456 -0.1118
  134OSM    H8S14510   5.724   4.673   7.173  0.7426  0.2293  0.6165
  134OSM    H8T14511   5.550   4.699   7.129 -1.0112  0.6334  1.9483
  134OSM    C9S14512   5.627   4.841   7.269 -0.4189  0.1782  0.9096
  134OSM    H9S14513   5.531   4.898   7.270 -0.3072  0.4163 -0.4190
  134OSM    H9T14514   5.714   4.910   7.267  0.6898 -1.1768  0.2445
  134OSM   C10S14515   5.622   4.750   7.391 -0.3104 -0.1881 -0.2296
  134OSM   H10S14516   5.697   4.669   7.375  1.1667  0.3842  2.9870
  134OSM   H10T14517   5.524   4.702   7.409 -0.5707  0.6640  0.7508
  134OSM   C11S14518   5.664   4.824   7.517  0.0239 -0.6874  0.0785
  134OSM   H11S14519   5.572   4.875   7.554 -0.0865  0.6794 -1.9395
  134OSM   H11T14520   5.745   4.898   7.499 -2.3532  2.2582  0.5525
  134OSM   C12S14521   5.713   4.736   7.637  0.6116  0.3617  0.2779
  134OSM   H12S14522   5.803   4.675   7.611  0.5587  0.2298  0.4030
  134OSM   H12T14523   5.631   4.664   7.658 -1.5432  2.2874 -1.1369
  134OSM   C13S14524   5.734   4.812   7.766  0.1041  0.2570  0.6410
  134OSM   H13S14525   5.636   4.850   7.804 -1.2460 -1.9054 -0.4866
  134OSM   H13T14526   5.802   4.898   7.746  1.0536 -0.8082 -0.9206
  134OSM   C14S14527   5.787   4.721   7.878 -0.7947 -0.1224 -0.4351
  134OSM   H14S14528   5.878   4.675   7.833 -0.6368 -0.3989  0.1619
  134OSM   H14T14529   5.719   4.637   7.904 -0.0659  0.2455  3.2707
  134OSM   C15S14530   5.834   4.798   8.002  0.3066 -0.1255 -0.1809
  134OSM   H15S14531   5.743   4.787   8.065 -0.2903 -1.5124 -1.2243
  134OSM   H15T14532   5.850   4.903   7.971 -0.8950  0.3671  0.7559
  134OSM   C16S14533   5.957   4.751   8.066 -0.7756 -0.0548  0.9760
  134OSM   H16S14534   6.035   4.788   7.996 -0.5908  0.7879  1.6191
  134OSM   H16T14535   5.959   4.640   8.063 -1.0215 -0.0594  0.8944
  134OSM   C17S14536   5.970   4.783   8.217 -0.5408 -0.6926 -1.6157
  134OSM   H17S14537   6.041   4.711   8.263 -0.9178  0.8952  1.7449
  134OSM   H17T14538   5.877   4.764   8.275  0.0094 -0.0153 -0.4616
  134OSM   C18S14539   6.007   4.929   8.239  0.1922  0.7449 -0.0822
  134OSM   H18S14540   5.927   4.998   8.206 -1.3878 -1.0926 -0.2994
  134OSM   H18T14541   6.097   4.952   8.179  0.8592  2.1793  1.3930
  134OSM   H18U14542   6.026   4.952   8.346  1.1216  0.0773 -0.0897
  134OSM    C1F14543   5.198   4.686   7.097  0.2928 -0.2163  0.5368
  134OSM     OF14544   5.156   4.570   7.085 -0.2243 -0.1494  0.1405
  134OSM    C2F14545   5.206   4.754   7.233 -0.5934  0.5532  0.8100
  134OSM    H2F14546   5.112   4.808   7.260 -1.3877  0.8668 -2.1977
  134OSM    H2G14547   5.286   4.831   7.230 -0.7004  0.6533  0.4693
  134OSM    C3F14548   5.225   4.659   7.362  0.1389  0.7705 -0.0911
  134OSM    H3F14549   5.325   4.617   7.338 -0.4613 -0.6731 -0.1622
  134OSM    H3G14550   5.149   4.578   7.359 -0.0154  0.9295 -1.0707
  134OSM    C4F14551   5.214   4.726   7.498 -0.0331 -0.4456 -0.3763
  134OSM    H4F14552   5.116   4.774   7.517  1.3112  2.0897  0.5772
  134OSM    H4G14553   5.298   4.798   7.497 -0.1110 -0.3597 -1.0162
  134OSM    C5F14554   5.241   4.633   7.609 -0.0751 -0.3439 -0.1767
  134OSM    H5F14555   5.343   4.590   7.611  1.3847  2.8176 -0.6855
  134OSM    H5G14556   5.177   4.545   7.590 -0.8092  0.3616 -1.0857
  134OSM    C6F14557   5.221   4.696   7.745 -0.2487 -0.3280  0.2997
  134OSM    H6F14558   5.117   4.734   7.757 -0.1101 -0.3954  2.0093
  134OSM    H6G14559   5.301   4.772   7.752  1.2902 -1.6923 -1.3296
  134OSM    C7F14560   5.253   4.602   7.868 -0.0089 -0.0769 -0.3646
  134OSM    H7F14561   5.362   4.580   7.866 -0.2775 -1.6433  0.6823
  134OSM    H7G14562   5.195   4.513   7.837  1.4114 -0.5607 -1.8006
  134OSM    C8F14563   5.212   4.668   8.004  0.4140  0.7120  0.2120
  134OSM    H8F14564   5.103   4.683   7.994  0.1339 -2.3778 -4.2250
  134OSM    H8G14565   5.264   4.766   8.007 -1.1612  1.5971 -0.6474
  134OSM    C9F14566   5.249   4.580   8.132  0.0021 -1.0275  0.0757
  134OSM    H9F14567   5.198   4.483   8.135  0.2778 -1.2150 -0.8012
  134OSM   C10F14568   5.312   4.626   8.241 -0.1277 -0.8404  0.5276
  134OSM   H10F14569   5.316   4.551   8.322 -1.9993 -1.1981  0.3477
  134OSM   C11F14570   5.367   4.759   8.260 -0.6272 -0.6018 -0.3995
  134OSM   H11F14571   5.278   4.824   8.249  0.0196  0.4265  0.3080
  134OSM   H11G14572   5.446   4.793   8.190  0.3683 -1.2723  0.3632
  134OSM   C12F14573   5.448   4.779   8.393  0.4049  0.2669 -0.4392
  134OSM   H12F14574   5.527   4.704   8.412  1.3992  1.5634  0.7821
  134OSM   H12G14575   5.381   4.787   8.482  0.2156 -0.0382 -0.5544
  134OSM   C13F14576   5.535   4.907   8.395 -0.1219 -0.7373 -0.7618
  134OSM   H13F14577   5.478   5.002   8.380 -2.0935 -1.7984 -0.3436
  134OSM   H13G14578   5.613   4.906   8.316  0.4278  2.1902 -0.3754
  134OSM   C14F14579   5.606   4.919   8.534 -0.5353  0.9523  0.1331
  134OSM   H14F14580   5.670   4.832   8.560 -2.0972 -1.2660 -2.8668
  134OSM   H14G14581   5.527   4.913   8.611 -1.7899  0.0312 -1.1670
  134OSM   C15F14582   5.688   5.047   8.555 -0.2176  0.3542 -0.6354
  134OSM   H15F14583   5.620   5.134   8.548  0.2356  0.8546  0.8123
  134OSM   H15G14584   5.759   5.073   8.474 -0.2668  1.1979 -0.4134
  134OSM   C16F14585   5.765   5.041   8.683 -0.1403  0.0703  0.7213
  134OSM   H16F14586   5.853   4.973   8.672  0.6553  0.9246  1.5771
  134OSM   H16G14587   5.711   5.014   8.776  1.0934 -2.5257  0.7949
  134OSM   C17F14588   5.849   5.170   8.714  0.6297 -0.3266 -0.8307
  134OSM   H17F14589   5.886   5.224   8.624 -0.4053 -1.3473 -1.9004
  134OSM   H17G14590   5.938   5.128   8.765 -0.4897  0.5996  2.0818
  134OSM   C18F14591   5.781   5.281   8.807  0.3903 -0.2081  0.5985
  134OSM   H18F14592   5.856   5.362   8.801  0.9640 -0.7757 -0.1427
  134OSM   H18G14593   5.763   5.238   8.908 -0.5612 -2.3042 -0.4006
  134OSM   H18H14594   5.680   5.310   8.771  0.9113  1.1532  0.1777
  135OSM      N14595   5.416   4.658   6.276  0.2896  0.6076 -0.5820
  135OSM    C1514596   5.295   4.749   6.283  0.0452 -0.5642  0.1169
  135OSM   H15A14597   5.222   4.709   6.215  0.5888  1.9813 -2.1453
  135OSM   H15B14598   5.325   4.850   6.259  1.7907 -0.5767  1.9668
  135OSM   H15C14599   5.247   4.747   6.380 -0.2020 -1.7671 -0.0164
  135OSM    C1414600   5.464   4.664   6.140  0.1197  0.2596 -0.3911
  135OSM   H14A14601   5.540   4.592   6.113 -1.5424 -1.9007  0.4229
  135OSM   H14B14602   5.502   4.762   6.114  1.2036 -0.3165 -1.0584
  135OSM   H14C14603   5.386   4.656   6.066 -0.0965  0.6691 -0.2138
  135OSM    C1314604   5.521   4.704   6.371  0.5606  0.3358 -0.0372
  135OSM   H13A14605   5.482   4.711   6.472 -0.3778 -1.1933 -0.2547
  135OSM   H13B14606   5.565   4.798   6.339  0.1872  0.2162 -0.9253
  135OSM   H13C14607   5.600   4.630   6.372 -1.5048 -2.0101 -0.2636
  135OSM    C1214608   5.376   4.513   6.308  0.4107  0.5146 -0.0539
  135OSM   H12A14609   5.440   4.436   6.267 -1.1632  0.1430 -1.9361
  135OSM   H12B14610   5.279   4.493   6.265 -0.3551  2.6390  0.5500
  135OSM    C1114611   5.333   4.476   6.455 -0.3592  0.2612  0.4315
  135OSM   H11A14612   5.278   4.560   6.503 -3.6633 -2.4746  1.8751
  135OSM   H11B14613   5.426   4.451   6.510  0.1573  0.5963 -0.2644
  135OSM      P14614   5.272   4.221   6.496  0.0902  0.2577  0.0164
  135OSM    O1314615   5.136   4.156   6.506 -0.0612 -0.3870  0.8499
  135OSM    O1414616   5.370   4.167   6.400 -0.2493  0.5897 -0.0593
  135OSM    O1114617   5.322   4.236   6.643 -0.1263 -0.4384 -0.1505
  135OSM    O1214618   5.242   4.367   6.448  0.0970 -0.4276  0.0116
  135OSM    C1S14619   5.238   4.305   6.736  0.0071 -0.1863  0.3121
  135OSM    H1S14620   5.133   4.268   6.728  1.0766 -3.3597 -0.2644
  135OSM    H1T14621   5.237   4.412   6.704  0.5394 -0.5712 -1.0722
  135OSM     NF14622   5.178   4.312   6.974  0.3493  0.6496  0.8551
  135OSM    HNF14623   5.190   4.394   7.029  1.0729 -0.3101  2.2023
  135OSM    C2S14624   5.286   4.271   6.881 -0.9314 -0.1095 -0.4692
  135OSM    H2S14625   5.302   4.162   6.896  0.5466 -0.0109 -1.1305
  135OSM    C3S14626   5.422   4.339   6.906 -0.3143 -0.0928 -0.8495
  135OSM    H3S14627   5.418   4.448   6.884 -1.5269 -0.2030 -1.2291
  135OSM     O314628   5.521   4.294   6.815  0.1435 -0.5933  0.2045
  135OSM    HO314629   5.476   4.266   6.735 -0.2076  0.4385  0.0323
  135OSM    C4S14630   5.468   4.313   7.046  0.1854 -0.3517  0.3374
  135OSM    H4S14631   5.521   4.218   7.065  0.2194 -0.6228 -0.9552
  135OSM    C5S14632   5.443   4.390   7.150  0.2845 -0.2658  0.2076
  135OSM    H5S14633   5.389   4.485   7.136  0.9159  0.4571  2.2673
  135OSM    C6S14634   5.504   4.370   7.287  0.0726 -0.1476 -0.0085
  135OSM    H6S14635   5.536   4.469   7.328 -1.7234  0.0127  1.1153
  135OSM    H6T14636   5.583   4.294   7.306 -0.9516 -1.2516 -0.1082
  135OSM    C7S14637   5.392   4.316   7.378  0.5155  0.2694  0.2045
  135OSM    H7S14638   5.361   4.215   7.346  1.8015 -0.1973  0.3721
  135OSM    H7T14639   5.306   4.386   7.375 -0.4807 -0.7096  2.9480
  135OSM    C8S14640   5.443   4.319   7.525  0.0821  0.3873  0.1486
  135OSM    H8S14641   5.452   4.426   7.550 -0.0469  1.2495 -3.0525
  135OSM    H8T14642   5.546   4.279   7.531 -0.8426 -2.0626  1.0883
  135OSM    C9S14643   5.355   4.246   7.631 -0.1617 -0.9505 -0.7810
  135OSM    H9S14644   5.357   4.136   7.611  1.2023 -0.8832 -1.1260
  135OSM    H9T14645   5.250   4.279   7.618 -1.4768 -4.4836 -0.2994
  135OSM   C10S14646   5.407   4.256   7.775 -0.7580  0.4515 -0.7315
  135OSM   H10S14647   5.439   4.354   7.816  0.9119 -0.1360 -0.5524
  135OSM   H10T14648   5.492   4.186   7.790  0.5697  2.4647  1.6537
  135OSM   C11S14649   5.297   4.217   7.883  0.0974  0.7468 -0.0031
  135OSM   H11S14650   5.238   4.133   7.840  0.9808  1.1688 -2.2183
  135OSM   H11T14651   5.229   4.304   7.898 -1.1625  0.3271 -2.5708
  135OSM   C12S14652   5.362   4.182   8.020 -0.2075 -0.5516 -1.2623
  135OSM   H12S14653   5.405   4.268   8.076  0.0893 -0.2084 -2.0059
  135OSM   H12T14654   5.444   4.108   8.007  0.5539 -0.8649  3.5188
  135OSM   C13S14655   5.261   4.120   8.126  0.2682 -0.1417  0.6637
  135OSM   H13S14656   5.227   4.025   8.080 -0.0317  0.7812 -1.1512
  135OSM   H13T14657   5.182   4.198   8.133  0.9784  0.4817  2.1044
  135OSM   C14S14658   5.323   4.095   8.259  0.3465 -0.9002  0.8979
  135OSM   H14S14659   5.375   4.188   8.288 -0.4136 -0.2456  0.1979
  135OSM   H14T14660   5.405   4.021   8.269 -1.1954 -2.4245  3.4420
  135OSM   C15S14661   5.224   4.060   8.373  0.2897 -0.0566  0.3966
  135OSM   H15S14662   5.164   4.150   8.399 -1.3893 -0.7912 -0.7639
  135OSM   H15T14663   5.279   4.041   8.468  2.5542 -2.0493 -1.1931
  135OSM   C16S14664   5.135   3.934   8.354 -0.0338  0.3151 -0.4138
  135OSM   H16S14665   5.205   3.851   8.330  0.3788  0.9252 -1.3750
  135OSM   H16T14666   5.066   3.943   8.267  1.3505 -1.1722 -1.7316
  135OSM   C17S14667   5.057   3.896   8.479 -0.4838 -0.1424 -0.3277
  135OSM   H17S14668   4.990   3.980   8.507 -0.3582 -0.1807  0.0977
  135OSM   H17T14669   5.127   3.875   8.563 -0.7055  0.2725 -0.0382
  135OSM   C18S14670   4.986   3.760   8.463 -0.8141 -1.0708 -0.5723
  135OSM   H18S14671   4.924   3.744   8.554  0.1493 -0.4212  0.2263
  135OSM   H18T14672   5.057   3.675   8.459  0.9174  0.2865 -0.1610
  135OSM   H18U14673   4.919   3.758   8.375 -1.4161 -2.8342 -0.1190
  135OSM    C1F14674   5.067   4.241   6.986  0.1343  0.3202  0.6717
  135OSM     OF14675   5.061   4.127   6.936 -0.1364 -0.1807 -0.2853
  135OSM    C2F14676   4.948   4.306   7.048  0.2662 -0.2794 -0.2196
  135OSM    H2F14677   4.858   4.302   6.983  0.4245  0.2112 -0.4757
  135OSM    H2G14678   4.975   4.411   7.069  1.4680 -0.9645  1.9615
  135OSM    C3F14679   4.915   4.253   7.195  0.2640  0.6277  0.2694
  135OSM    H3F14680   4.871   4.151   7.190  1.0282  0.3462 -2.0099
  135OSM    H3G14681   4.841   4.322   7.240  2.3224  2.3233  1.1917
  135OSM    C4F14682   5.041   4.252   7.282 -0.2942 -0.4792 -0.3590
  135OSM    H4F14683   5.076   4.355   7.309 -1.4465 -0.3539  0.7314
  135OSM    H4G14684   5.115   4.191   7.226 -0.5157  1.0620 -2.4802
  135OSM    C5F14685   5.022   4.196   7.421 -0.4445 -0.2654 -1.3912
  135OSM    H5F14686   5.125   4.167   7.452 -1.0236  1.6153  2.9300
  135OSM    H5G14687   4.968   4.100   7.410 -1.3209  0.0064  0.2523
  135OSM    C6F14688   4.968   4.288   7.532  0.1216  0.1718 -0.0748
  135OSM    H6F14689   4.869   4.329   7.502  0.1238 -0.1361 -0.5261
  135OSM    H6G14690   5.035   4.374   7.548 -1.0226  0.9083  0.8500
  135OSM    C7F14691   4.955   4.215   7.668 -0.5856 -0.6879 -0.4131
  135OSM    H7F14692   5.048   4.166   7.702 -1.3534 -1.2673  0.9009
  135OSM    H7G14693   4.871   4.144   7.651 -2.3293  0.7640  1.5513
  135OSM    C8F14694   4.902   4.313   7.773 -0.6748 -0.5417 -0.1425
  135OSM    H8F14695   4.985   4.380   7.802 -1.1715  0.7494 -1.5664
  135OSM    H8G14696   4.861   4.260   7.861 -0.5552 -1.1506 -0.4534
  135OSM    C9F14697   4.778   4.388   7.727  0.9189 -0.4710 -0.4216
  135OSM    H9F14698   4.693   4.318   7.730  0.7521 -0.2533  0.0193
  135OSM   C10F14699   4.751   4.523   7.704  0.3839 -0.3326 -0.4967
  135OSM   H10F14700   4.653   4.547   7.661  1.4144  3.4579 -1.0968
  135OSM   C11F14701   4.842   4.641   7.710 -0.5786 -0.4336 -0.7259
  135OSM   H11F14702   4.944   4.596   7.718  0.3674  1.5662 -0.9630
  135OSM   H11G14703   4.820   4.695   7.805  1.1462  0.6498 -0.8960
  135OSM   C12F14704   4.826   4.730   7.589  0.3067 -0.2933 -0.1966
  135OSM   H12F14705   4.896   4.816   7.585  1.6077 -1.0031  3.3726
  135OSM   H12G14706   4.724   4.775   7.585  0.0818 -0.8300 -0.7342
  135OSM   C13F14707   4.846   4.655   7.453 -0.2030  0.0437 -0.4659
  135OSM   H13F14708   4.791   4.560   7.438 -1.5743  0.4964  1.4230
  135OSM   H13G14709   4.954   4.631   7.449 -0.0680  0.5377  0.2293
  135OSM   C14F14710   4.807   4.753   7.340  0.4655  0.0733 -0.5488
  135OSM   H14F14711   4.877   4.830   7.300 -2.2882  0.3895 -5.5741
  135OSM   H14G14712   4.716   4.803   7.379  0.5566  0.3462 -0.6848
  135OSM   C15F14713   4.756   4.676   7.220 -1.0378  0.1051  0.3993
  135OSM   H15F14714   4.677   4.607   7.257  0.2580 -1.7229 -0.0957
  135OSM   H15G14715   4.849   4.625   7.189  0.1437  1.7303  1.1043
  135OSM   C16F14716   4.706   4.777   7.116  0.1845 -0.1845  0.2055
  135OSM   H16F14717   4.630   4.842   7.166  1.2542  0.9917  0.3547
  135OSM   H16G14718   4.639   4.718   7.051 -1.5159  0.2988  1.4368
  135OSM   C17F14719   4.808   4.852   7.033  0.4491 -0.3986  0.0713
  135OSM   H17F14720   4.888   4.778   7.011 -1.2384 -1.9168 -1.3560
  135OSM   H17G14721   4.848   4.938   7.090  0.8491  0.1606 -1.0217
  135OSM   C18F14722   4.759   4.905   6.902  0.1115 -0.4724  0.7694
  135OSM   H18F14723   4.830   4.939   6.823 -0.2307  0.8642  1.0249
  135OSM   H18G14724   4.683   4.982   6.922 -0.0126 -0.0978 -0.9970
  135OSM   H18H14725   4.698   4.833   6.843 -1.5564 -0.0601  1.9489
  136OSM      N14726   3.932   3.598   5.870 -0.0853  0.5187  0.0045
  136OSM    C1514727   3.900   3.577   5.725 -0.9330  0.3603 -0.6373
  136OSM   H15A14728   3.979   3.616   5.663 -0.6218  1.0102  0.1473
  136OSM   H15B14729   3.819   3.644   5.700  0.0765  1.5773 -0.7681
  136OSM   H15C14730   3.880   3.474   5.702  0.2490 -0.3637  1.3554
  136OSM    C1414731   3.804   3.568   5.952  0.2259  0.5625 -0.0349
  136OSM   H14A14732   3.765   3.472   5.923  0.5088  0.2356  0.6416
  136OSM   H14B14733   3.732   3.643   5.922  0.4787  0.7813 -0.0979
  136OSM   H14C14734   3.813   3.574   6.060 -0.5320 -1.3250  0.1709
  136OSM    C1314735   4.026   3.485   5.912  0.0633  0.3530  0.9042
  136OSM   H13A14736   3.984   3.386   5.899  1.2878  0.0536 -1.3420
  136OSM   H13B14737   4.054   3.492   6.016 -0.0491 -2.4868  1.2036
  136OSM   H13C14738   4.118   3.498   5.857 -0.1914  0.0481  0.3931
  136OSM    C1214739   3.987   3.736   5.905  0.1881  0.2196  0.9290
  136OSM   H12A14740   3.990   3.746   6.012 -0.2685 -0.1787  0.9853
  136OSM   H12B14741   3.914   3.803   5.862 -0.5105 -0.6045  0.7973
  136OSM    C1114742   4.125   3.771   5.837 -0.3453 -0.4937 -0.2620
  136OSM   H11A14743   4.137   3.880   5.854  1.6583 -1.0509  2.6576
  136OSM   H11B14744   4.114   3.750   5.729  0.7520 -1.1847 -0.2595
  136OSM      P14745   4.317   3.792   6.021  0.2335  0.0245 -0.1038
  136OSM    O1314746   4.401   3.693   6.099 -0.2275  0.0993 -0.3240
  136OSM    O1414747   4.386   3.898   5.950 -0.4364 -0.3342  0.1904
  136OSM    O1114748   4.208   3.860   6.110 -0.2899  0.2627 -0.1657
  136OSM    O1214749   4.234   3.711   5.902  0.1368  0.3598  0.0508
  136OSM    C1S14750   4.205   3.836   6.252  0.3691 -0.6379  0.0391
  136OSM    H1S14751   4.301   3.864   6.301 -0.4113  3.0550 -0.1963
  136OSM    H1T14752   4.179   3.731   6.275  0.5312 -0.9740 -1.2232
  136OSM     NF14753   4.088   3.898   6.456 -0.0096 -1.2529  0.2816
  136OSM    HNF14754   4.012   3.845   6.493 -1.2059  0.0978 -0.1402
  136OSM    C2S14755   4.087   3.927   6.317 -0.2359  0.0570 -0.4254
  136OSM    H2S14756   4.104   4.036   6.307 -1.7222  0.5411  1.6616
  136OSM    C3S14757   3.958   3.886   6.242 -0.5143  0.3238  0.3598
  136OSM    H3S14758   3.969   3.779   6.216 -0.0648  0.4827 -0.1424
  136OSM     O314759   3.936   3.953   6.117 -0.3184  0.0879  0.5479
  136OSM    HO314760   4.024   3.965   6.082  0.0411 -1.4827  0.8533
  136OSM    C4S14761   3.840   3.909   6.324 -1.0924 -0.4490  0.3554
  136OSM    H4S14762   3.787   3.818   6.357  0.6383 -1.3046  0.9002
  136OSM    C5S14763   3.770   4.019   6.347 -0.1750  0.3552  0.0861
  136OSM    H5S14764   3.797   4.112   6.296  0.4765  1.7713  2.8241
  136OSM    C6S14765   3.652   4.022   6.440 -0.3523  0.6483 -0.0988
  136OSM    H6S14766   3.566   3.974   6.387 -1.6512  1.6027  1.0542
  136OSM    H6T14767   3.620   4.125   6.467  0.6600  0.6814  0.9906
  136OSM    C7S14768   3.666   3.953   6.581  0.4281 -0.2823  0.3436
  136OSM    H7S14769   3.738   4.017   6.637 -0.1083  0.4685  0.2050
  136OSM    H7T14770   3.683   3.844   6.577 -0.4809 -0.4339  0.1920
  136OSM    C8S14771   3.536   3.970   6.667  0.4860 -0.0760 -0.2372
  136OSM    H8S14772   3.459   3.898   6.631 -0.9510  1.3459 -0.1474
  136OSM    H8T14773   3.488   4.070   6.652 -0.1908 -0.5132 -1.1409
  136OSM    C9S14774   3.554   3.937   6.819 -0.3671 -0.6626  0.1072
  136OSM    H9S14775   3.454   3.922   6.866 -1.3706  1.1702 -1.2874
  136OSM    H9T14776   3.590   4.034   6.861 -0.3027  0.0845 -1.5773
  136OSM   C10S14777   3.638   3.817   6.853 -0.0513  0.4769 -0.5538
  136OSM   H10S14778   3.738   3.840   6.811  2.0785 -3.7926  1.4790
  136OSM   H10T14779   3.622   3.717   6.807  3.6633 -1.5751  2.1334
  136OSM   C11S14780   3.669   3.797   7.005  0.0654 -0.6350  0.3453
  136OSM   H11S14781   3.688   3.896   7.052  1.3352  0.2930 -1.9428
  136OSM   H11T14782   3.765   3.743   7.021  1.9024  2.3224  0.1329
  136OSM   C12S14783   3.549   3.741   7.078  0.0846 -0.8933  0.2090
  136OSM   H12S14784   3.509   3.644   7.042  0.2044 -0.3285 -1.5783
  136OSM   H12T14785   3.465   3.812   7.071  0.7427 -0.0500  0.6091
  136OSM   C13S14786   3.587   3.727   7.228  0.8920  0.0220 -0.1450
  136OSM   H13S14787   3.621   3.827   7.262  3.6312 -1.5652  2.2781
  136OSM   H13T14788   3.669   3.654   7.248 -0.0207 -1.1375 -0.5295
  136OSM   C14S14789   3.461   3.708   7.312 -0.2979  0.2375 -0.2095
  136OSM   H14S14790   3.412   3.613   7.284 -0.7980  0.4112  0.0733
  136OSM   H14T14791   3.389   3.791   7.298 -0.1007  0.4954  0.3014
  136OSM   C15S14792   3.507   3.689   7.460  0.2437 -0.3358 -0.4996
  136OSM   H15S14793   3.563   3.781   7.487 -1.1895  0.3828  0.1708
  136OSM   H15T14794   3.585   3.610   7.467  1.7845  1.1543 -0.2240
  136OSM   C16S14795   3.391   3.664   7.555  0.4036  0.3293  0.5153
  136OSM   H16S14796   3.332   3.575   7.526  2.0336  0.1521 -2.6707
  136OSM   H16T14797   3.324   3.751   7.539 -1.0770 -0.8803 -0.0266
  136OSM   C17S14798   3.430   3.662   7.702  0.2240 -0.8337  0.3718
  136OSM   H17S14799   3.464   3.560   7.729  0.4225 -0.5239  1.2987
  136OSM   H17T14800   3.340   3.679   7.765 -0.2450 -0.2638 -0.4384
  136OSM   C18S14801   3.526   3.757   7.759  0.2327 -0.2272 -0.2882
  136OSM   H18S14802   3.617   3.758   7.695 -0.6108  0.8555 -1.5183
  136OSM   H18T14803   3.547   3.745   7.868 -1.1713  1.4680  0.2154
  136OSM   H18U14804   3.486   3.860   7.755  2.2939  0.7085  1.2993
  136OSM    C1F14805   4.181   3.937   6.542  0.0944 -0.4775 -0.3061
  136OSM     OF14806   4.279   4.012   6.511  0.0300  0.0927 -0.6068
  136OSM    C2F14807   4.157   3.897   6.679  0.3931  0.8640 -0.0193
  136OSM    H2F14808   4.222   3.810   6.705  0.8265  1.7268  1.9696
  136OSM    H2G14809   4.053   3.859   6.687 -0.0167  1.9320 -0.1965
  136OSM    C3F14810   4.155   4.007   6.784  0.0902 -0.5227  0.4221
  136OSM    H3F14811   4.108   4.103   6.753  0.9299 -1.0964 -2.9842
  136OSM    H3G14812   4.261   4.038   6.794  1.2961 -3.4043 -1.9826
  136OSM    C4F14813   4.105   3.958   6.927  0.1854  0.0936 -0.7104
  136OSM    H4F14814   3.994   3.956   6.926  0.1734 -0.0103  0.0201
  136OSM    H4G14815   4.124   4.039   7.001 -0.9629 -1.1544  1.0344
  136OSM    C5F14816   4.170   3.829   6.977 -0.6211  0.2904  0.0968
  136OSM    H5F14817   4.281   3.832   6.978 -0.4914 -1.2781 -2.1195
  136OSM    H5G14818   4.143   3.753   6.901 -0.2308  0.0891  0.1569
  136OSM    C6F14819   4.106   3.762   7.101  0.0687 -0.4548 -0.4838
  136OSM    H6F14820   4.157   3.668   7.132  2.0588  0.1659 -1.6521
  136OSM    H6G14821   4.001   3.748   7.069 -0.0733  0.8838 -0.6839
  136OSM    C7F14822   4.100   3.861   7.224  0.8675 -0.3067 -0.2252
  136OSM    H7F14823   4.015   3.930   7.208 -0.3163 -2.2313 -2.7751
  136OSM    H7G14824   4.200   3.910   7.213  0.0134  1.6994  0.4813
  136OSM    C8F14825   4.099   3.792   7.362 -0.0207 -0.5922  0.3986
  136OSM    H8F14826   4.161   3.851   7.433 -0.7968 -0.6972  1.1734
  136OSM    H8G14827   4.150   3.693   7.353 -0.0718 -0.6216  0.4285
  136OSM    C9F14828   3.962   3.770   7.413 -0.2248 -0.5786  0.1838
  136OSM    H9F14829   3.893   3.709   7.352 -0.9994  0.4928 -0.0336
  136OSM   C10F14830   3.915   3.809   7.538  0.0270 -0.0244 -0.0135
  136OSM   H10F14831   3.812   3.782   7.566 -0.1862 -0.7400 -1.4199
  136OSM   C11F14832   3.987   3.885   7.646 -0.4593  0.0788  0.4166
  136OSM   H11F14833   3.930   3.975   7.677 -0.4364  0.5905 -0.9613
  136OSM   H11G14834   4.081   3.929   7.607 -0.7728  0.1832 -0.2307
  136OSM   C12F14835   4.007   3.804   7.776 -0.2080  0.3105 -0.0338
  136OSM   H12F14836   4.069   3.714   7.755 -0.1174  0.6146 -1.0909
  136OSM   H12G14837   3.907   3.779   7.819 -0.1928 -0.2086 -0.2897
  136OSM   C13F14838   4.099   3.875   7.883 -0.5556  0.4335 -0.9621
  136OSM   H13F14839   4.051   3.974   7.899 -2.1855  0.4184 -4.8522
  136OSM   H13G14840   4.198   3.892   7.835  0.3176 -0.5670  0.4066
  136OSM   C14F14841   4.128   3.788   8.006  0.0319 -0.2158  0.2399
  136OSM   H14F14842   4.156   3.687   7.970  0.7591  0.0302  0.1040
  136OSM   H14G14843   4.042   3.784   8.076 -0.9763  2.7343 -0.7027
  136OSM   C15F14844   4.252   3.833   8.091  0.7186 -0.4501  0.5756
  136OSM   H15F14845   4.219   3.923   8.148 -0.6393 -0.4309 -0.2182
  136OSM   H15G14846   4.317   3.858   8.004 -0.9253  0.8272 -0.3308
  136OSM   C16F14847   4.326   3.737   8.186  0.5873  0.5762 -0.4385
  136OSM   H16F14848   4.427   3.775   8.212  1.1167 -1.3533  0.5239
  136OSM   H16G14849   4.343   3.639   8.137 -1.2208 -0.3227  0.6462
  136OSM   C17F14850   4.250   3.705   8.318 -0.3871 -0.5088 -0.3538
  136OSM   H17F14851   4.149   3.678   8.280 -0.6155  0.3466 -0.3680
  136OSM   H17G14852   4.243   3.798   8.379 -0.7422  0.4593 -1.8117
  136OSM   C18F14853   4.298   3.592   8.405  0.2304  0.3119  0.0430
  136OSM   H18F14854   4.302   3.503   8.339 -2.7857 -0.7692  1.1366
  136OSM   H18G14855   4.219   3.572   8.481 -0.5431 -0.8016 -1.0146
  136OSM   H18H14856   4.397   3.611   8.452  0.3589  1.9211 -0.7974
  137OSM      N14857   0.972   4.131   6.449  0.2751  0.4793  0.3106
  137OSM    C1514858   0.945   4.116   6.597 -1.1421  0.0308  0.3433
  137OSM   H15A14859   0.948   4.010   6.619  1.0559 -0.0259 -0.0109
  137OSM   H15B14860   0.848   4.155   6.623  0.4330  3.9356  1.0939
  137OSM   H15C14861   1.021   4.152   6.664 -0.0318  0.9027 -1.3293
  137OSM    C1414862   0.854   4.059   6.379  0.2970  0.3121 -0.0980
  137OSM   H14A14863   0.769   4.122   6.399 -2.7212 -3.7976  1.3429
  137OSM   H14B14864   0.836   3.962   6.422  0.2285  0.7557  0.9114
  137OSM   H14C14865   0.853   4.051   6.271  1.0927 -0.1434 -0.0801
  137OSM    C1314866   0.972   4.278   6.407 -0.5646  0.2208  0.1859
  137OSM   H13A14867   1.058   4.338   6.433  0.0116  0.3744 -1.8948
  137OSM   H13B14868   0.897   4.320   6.472 -0.6073  1.2297 -0.5035
  137OSM   H13C14869   0.945   4.306   6.306 -0.6961 -0.0748  0.1371
  137OSM    C1214870   1.100   4.056   6.410 -0.2464 -0.5658 -0.0048
  137OSM   H12A14871   1.109   4.054   6.302 -0.0312 -0.8612  0.0166
  137OSM   H12B14872   1.092   3.950   6.429 -0.5182 -0.6310 -0.4608
  137OSM    C1114873   1.230   4.102   6.477 -0.0406 -0.4106 -0.1193
  137OSM   H11A14874   1.226   4.212   6.462  0.5867 -0.1095  1.7070
  137OSM   H11B14875   1.316   4.053   6.426  0.6732  0.8485 -0.1638
  137OSM      P14876   1.358   4.108   6.697 -0.1086 -0.1772  0.0180
  137OSM    O1314877   1.446   3.992   6.701  0.7032  0.0213  0.1863
  137OSM    O1414878   1.414   4.235   6.640 -0.3089 -0.3524 -0.2789
  137OSM    O1114879   1.306   4.130   6.847  0.2987  0.1857  0.0700
  137OSM    O1214880   1.226   4.073   6.618 -0.5034  0.2525  1.0278
  137OSM    C1S14881   1.197   4.065   6.910 -0.0734 -0.0327 -0.6232
  137OSM    H1S14882   1.206   3.956   6.889 -0.1641  0.1148 -1.4818
  137OSM    H1T14883   1.099   4.104   6.878 -0.0109  1.0441  0.4442
  137OSM     NF14884   1.094   4.011   7.122  0.0135  0.1639  0.2078
  137OSM    HNF14885   1.016   4.066   7.152  0.3125 -0.1305  1.5930
  137OSM    C2S14886   1.206   4.083   7.068 -0.0216  0.3231  1.0718
  137OSM    H2S14887   1.297   4.028   7.102  0.7447  0.8798 -0.0264
  137OSM    C3S14888   1.215   4.227   7.108 -0.1819 -0.9019 -0.0630
  137OSM    H3S14889   1.129   4.283   7.066  0.1802 -0.1356  0.1926
  137OSM     O314890   1.328   4.299   7.055  0.0210 -0.1050  0.2766
  137OSM    HO314891   1.361   4.240   6.988 -1.1522 -0.1965 -0.2420
  137OSM    C4S14892   1.213   4.241   7.258 -0.0703 -0.0821 -0.6649
  137OSM    H4S14893   1.302   4.201   7.309 -0.3883 -0.1119 -0.1242
  137OSM    C5S14894   1.111   4.305   7.325 -0.3063  0.0099 -0.4362
  137OSM    H5S14895   1.023   4.334   7.266 -1.5332 -0.9065  0.8714
  137OSM    C6S14896   1.117   4.323   7.477 -0.1661 -0.0707 -0.0385
  137OSM    H6S14897   1.042   4.254   7.520  1.6842 -1.1088  1.7254
  137OSM    H6T14898   1.089   4.429   7.492 -0.3993 -0.1521  0.1059
  137OSM    C7S14899   1.246   4.289   7.550  0.0502  0.1295  0.1764
  137OSM    H7S14900   1.332   4.339   7.501  0.5796 -0.7027  0.2400
  137OSM    H7T14901   1.258   4.180   7.531  0.3562 -0.4509  3.1857
  137OSM    C8S14902   1.247   4.298   7.703  0.5039 -0.8189  0.2347
  137OSM    H8S14903   1.161   4.247   7.751  1.0020 -2.4824 -0.5356
  137OSM    H8T14904   1.229   4.402   7.735 -0.1685 -0.7525 -0.3312
  137OSM    C9S14905   1.371   4.239   7.766  0.2462  0.4921 -0.1328
  137OSM    H9S14906   1.454   4.280   7.704  1.1534 -3.3786 -1.7278
  137OSM    H9T14907   1.373   4.128   7.763 -0.5932  0.4945 -1.4852
  137OSM   C10S14908   1.405   4.283   7.908 -0.1269 -0.3566 -0.8356
  137OSM   H10S14909   1.405   4.394   7.902  3.2256 -0.1899  0.2852
  137OSM   H10T14910   1.509   4.244   7.916  0.5584  1.6099  0.6526
  137OSM   C11S14911   1.325   4.220   8.016  0.9396  0.2952  0.1324
  137OSM   H11S14912   1.330   4.111   7.995  1.1430  0.3830 -0.2648
  137OSM   H11T14913   1.219   4.251   8.003  0.8955  0.4181  0.7375
  137OSM   C12S14914   1.384   4.235   8.151 -0.4950  0.5934  0.0223
  137OSM   H12S14915   1.442   4.327   8.168  2.0856 -1.3450  2.7713
  137OSM   H12T14916   1.463   4.157   8.153 -0.4841  0.5995 -0.1070
  137OSM   C13S14917   1.281   4.225   8.261  0.2730  0.6438  0.0912
  137OSM   H13S14918   1.210   4.142   8.239 -1.1941  2.2687 -1.6827
  137OSM   H13T14919   1.209   4.309   8.250  1.2706  1.2736 -2.2371
  137OSM   C14S14920   1.324   4.225   8.400  0.4726 -0.1334  0.0005
  137OSM   H14S14921   1.397   4.309   8.406  1.8956 -1.4448  3.0011
  137OSM   H14T14922   1.379   4.133   8.427  1.2748  0.2931 -0.1327
  137OSM   C15S14923   1.204   4.238   8.502 -0.1066  0.7455  0.4026
  137OSM   H15S14924   1.148   4.143   8.493  1.3528 -0.2603  1.5160
  137OSM   H15T14925   1.141   4.326   8.476  0.3845  0.9389 -0.1681
  137OSM   C16S14926   1.256   4.251   8.645 -0.0521  0.8607 -0.4341
  137OSM   H16S14927   1.333   4.331   8.642  1.4768 -0.5406 -3.3986
  137OSM   H16T14928   1.315   4.161   8.673 -1.7946 -0.3074 -0.3722
  137OSM   C17S14929   1.139   4.287   8.743 -0.6188 -0.1741 -0.7216
  137OSM   H17S14930   1.099   4.390   8.736  1.7979  1.0503  1.6757
  137OSM   H17T14931   1.169   4.282   8.850  2.1097  1.6973 -1.3140
  137OSM   C18S14932   1.019   4.195   8.742  0.2463  0.5788  0.7988
  137OSM   H18S14933   1.056   4.090   8.745 -1.7605 -0.1522  2.4871
  137OSM   H18T14934   0.980   4.211   8.640  0.6348  3.1726  0.9856
  137OSM   H18U14935   0.937   4.215   8.815  0.0515  0.7620  0.5289
  137OSM    C1F14936   1.082   3.876   7.127  0.0688  0.3593 -0.3362
  137OSM     OF14937   1.172   3.802   7.079  0.1764  0.4352  0.5099
  137OSM    C2F14938   0.963   3.813   7.190 -0.2485  0.0177 -0.2319
  137OSM    H2F14939   0.970   3.702   7.196  0.2656  0.1282  2.4314
  137OSM    H2G14940   0.879   3.830   7.120 -0.6971 -1.2315 -0.0354
  137OSM    C3F14941   0.912   3.882   7.325 -0.7619  0.4113 -0.2231
  137OSM    H3F14942   0.821   3.827   7.359 -0.1773  0.3299  1.2947
  137OSM    H3G14943   0.859   3.977   7.300 -1.8198  0.0039  0.3940
  137OSM    C4F14944   1.019   3.895   7.435  0.0598  0.0063 -0.5931
  137OSM    H4F14945   0.976   3.971   7.503  1.6789  1.4187 -1.0746
  137OSM    H4G14946   1.115   3.931   7.392  0.2146 -0.3941 -0.5868
  137OSM    C5F14947   1.031   3.767   7.511 -0.1784  0.1617 -0.4658
  137OSM    H5F14948   0.952   3.691   7.493 -0.9392  0.8786 -0.1813
  137OSM    H5G14949   1.028   3.790   7.619 -1.8252  1.0810 -0.6772
  137OSM    C6F14950   1.170   3.695   7.490  0.1054 -0.8186  0.2080
  137OSM    H6F14951   1.244   3.763   7.537 -1.2012  0.8644 -0.0808
  137OSM    H6G14952   1.195   3.691   7.382 -1.5815 -1.2245 -0.1968
  137OSM    C7F14953   1.166   3.552   7.552 -0.0524 -0.7831 -0.2698
  137OSM    H7F14954   1.121   3.486   7.476  0.3202 -0.0984 -1.0972
  137OSM    H7G14955   1.113   3.562   7.650 -0.2325  0.2318 -0.4558
  137OSM    C8F14956   1.296   3.480   7.580  0.2147  0.3498  0.4440
  137OSM    H8F14957   1.338   3.452   7.481 -2.3166  0.5445 -0.7637
  137OSM    H8G14958   1.270   3.389   7.638 -3.8076  1.5985  0.9244
  137OSM    C9F14959   1.395   3.563   7.649 -0.4045  0.7436  0.3027
  137OSM    H9F14960   1.449   3.640   7.592  3.3868 -1.4377  0.6091
  137OSM   C10F14961   1.439   3.542   7.772 -0.6508  0.4835 -0.3081
  137OSM   H10F14962   1.518   3.607   7.813 -0.0830 -0.2301 -0.2658
  137OSM   C11F14963   1.404   3.438   7.871  0.2606  0.3657 -0.0507
  137OSM   H11F14964   1.489   3.368   7.886 -1.3704 -1.8461 -0.6526
  137OSM   H11G14965   1.316   3.379   7.836 -0.0302  1.8053 -1.9186
  137OSM   C12F14966   1.384   3.491   8.019  0.0584 -0.7736 -0.1378
  137OSM   H12F14967   1.481   3.521   8.064 -0.8140  1.0508  0.6234
  137OSM   H12G14968   1.352   3.408   8.084 -0.7570  0.7176  1.4463
  137OSM   C13F14969   1.282   3.603   8.033 -0.1302 -0.4244 -0.2546
  137OSM   H13F14970   1.204   3.572   7.960  0.2565 -0.8216 -0.5069
  137OSM   H13G14971   1.316   3.702   7.996  0.6923 -1.0767 -1.2988
  137OSM   C14F14972   1.233   3.618   8.177 -0.4959 -0.1658  0.6263
  137OSM   H14F14973   1.322   3.649   8.236  1.1976 -2.2197 -0.7209
  137OSM   H14G14974   1.209   3.519   8.221  2.4450 -0.4609  1.7842
  137OSM   C15F14975   1.123   3.723   8.187  0.4106 -0.0041 -0.2139
  137OSM   H15F14976   1.031   3.682   8.141 -0.2521  1.0498  0.1373
  137OSM   H15G14977   1.147   3.816   8.131 -0.3314  0.0491 -0.4484
  137OSM   C16F14978   1.112   3.763   8.339 -0.0339 -0.0595  0.1669
  137OSM   H16F14979   1.099   3.673   8.402  2.1852 -1.3777 -1.1314
  137OSM   H16G14980   1.024   3.830   8.351  0.7749  0.6850  2.3271
  137OSM   C17F14981   1.216   3.859   8.403  0.1552  0.5117  0.1914
  137OSM   H17F14982   1.210   3.952   8.342 -0.5098  1.4441  1.6260
  137OSM   H17G14983   1.316   3.817   8.382 -0.9475 -1.7122 -1.0001
  137OSM   C18F14984   1.199   3.888   8.555  1.0588 -0.2356 -0.3137
  137OSM   H18F14985   1.091   3.886   8.580  0.4330  1.3792 -2.5245
  137OSM   H18G14986   1.230   3.991   8.581  0.6176 -0.5238  1.4929
  137OSM   H18H14987   1.267   3.824   8.615  2.3089  2.3942  1.2348
  138OSM      N14988   0.456   6.465   6.228 -0.5842 -0.4883  1.0428
  138OSM    C1514989   0.508   6.604   6.192  0.2165  0.9914  0.0914
  138OSM   H15A14990   0.522   6.612   6.085 -2.4968 -3.8712 -0.8678
  138OSM   H15B14991   0.598   6.635   6.243  1.3376  0.5798 -1.5586
  138OSM   H15C14992   0.431   6.674   6.220 -1.2461 -1.4952  2.7249
  138OSM    C1414993   0.371   6.473   6.344  0.3338  0.8046  0.1781
  138OSM   H14A14994   0.354   6.371   6.373  0.3704  0.9658  0.7812
  138OSM   H14B14995   0.279   6.525   6.321 -0.3702  0.1999  1.5170
  138OSM   H14C14996   0.415   6.525   6.428  0.6641  1.6594 -0.5056
  138OSM    C1314997   0.376   6.418   6.114 -0.0247  0.0661  0.8920
  138OSM   H13A14998   0.435   6.411   6.024 -0.0740 -1.5637  0.9730
  138OSM   H13B14999   0.293   6.483   6.089 -0.2466 -1.5125 -3.2640
  138OSM   H13C15000   0.341   6.316   6.122  1.8747 -0.7056 -0.0313
  138OSM    C1215001   0.570   6.372   6.250  0.7218 -0.1783 -0.0738
  138OSM   H12A15002   0.630   6.384   6.161  1.5144  1.3446  0.6153
  138OSM   H12B15003   0.523   6.275   6.239 -2.5996  1.2539  0.4321
  138OSM    C1115004   0.656   6.403   6.368  0.2221 -0.3737 -0.2876
  138OSM   H11A15005   0.735   6.329   6.392 -0.1330  0.4156  4.3000
  138OSM   H11B15006   0.596   6.396   6.461 -0.3381 -0.9555 -0.6862
  138OSM      P15007   0.860   6.565   6.291  0.2438 -0.0142 -0.1773
  138OSM    O1315008   0.868   6.487   6.168  0.0738 -0.5584 -0.2065
  138OSM    O1415009   0.893   6.707   6.289  0.1958 -0.5678 -0.0613
  138OSM    O1115010   0.963   6.502   6.392  0.1378 -0.1949 -0.6874
  138OSM    O1215011   0.717   6.535   6.363  0.6059 -0.3013  0.2208
  138OSM    C1S15012   0.949   6.491   6.532  0.2996 -0.0808 -0.2180
  138OSM    H1S15013   0.843   6.470   6.557 -0.5104  0.8245 -2.5819
  138OSM    H1T15014   0.972   6.587   6.583 -2.6355  1.9487 -2.3486
  138OSM     NF15015   1.025   6.360   6.751  0.0178 -0.1158  0.3905
  138OSM    HNF15016   1.093   6.399   6.813  0.5539 -2.4990  1.3799
  138OSM    C2S15017   1.041   6.375   6.600  0.9562  0.5471 -0.2102
  138OSM    H2S15018   1.020   6.277   6.552  5.6153 -0.5515 -0.5299
  138OSM    C3S15019   1.191   6.398   6.564  0.6665  0.5669 -0.3312
  138OSM    H3S15020   1.227   6.488   6.617 -1.8782  1.5302 -0.1093
  138OSM     O315021   1.212   6.410   6.427  0.2026 -0.2230 -0.1469
  138OSM    HO315022   1.126   6.411   6.385  0.5594 -0.9524 -0.9430
  138OSM    C4S15023   1.274   6.278   6.606  0.5492 -0.0596  0.2287
  138OSM    H4S15024   1.248   6.190   6.545  1.7389 -0.8367  0.8048
  138OSM    C5S15025   1.365   6.273   6.704 -0.5030  0.0533 -0.7713
  138OSM    H5S15026   1.406   6.361   6.756  0.4256  0.2873 -1.8412
  138OSM    C6S15027   1.447   6.149   6.731  0.4895 -0.9289 -0.0638
  138OSM    H6S15028   1.555   6.165   6.751  0.1295  1.7403  0.0960
  138OSM    H6T15029   1.444   6.080   6.644 -2.9719  0.2796 -1.0611
  138OSM    C7S15030   1.385   6.058   6.842 -0.1647  0.6642 -0.0563
  138OSM    H7S15031   1.443   5.963   6.834  1.8465  1.6000  2.0721
  138OSM    H7T15032   1.278   6.040   6.817  0.2354 -0.2434 -1.2242
  138OSM    C8S15033   1.390   6.113   6.978 -0.1585 -0.1375  0.6502
  138OSM    H8S15034   1.325   6.203   6.968  1.2077  0.9573  1.4119
  138OSM    H8T15035   1.482   6.158   7.020  1.5386 -1.6197 -1.2580
  138OSM    C9S15036   1.321   6.021   7.078  0.0093 -0.2066  0.3469
  138OSM    H9S15037   1.389   5.941   7.114 -1.8951 -1.7614  0.6931
  138OSM    H9T15038   1.232   5.978   7.026 -1.5509  2.3991  0.6887
  138OSM   C10S15039   1.265   6.104   7.193 -1.2450  0.0303  0.2927
  138OSM   H10S15040   1.166   6.150   7.171 -1.7752  0.0305  2.5006
  138OSM   H10T15041   1.329   6.191   7.219 -0.8539  0.1780 -1.0636
  138OSM   C11S15042   1.233   6.028   7.325  0.0414  0.2975 -0.3755
  138OSM   H11S15043   1.321   5.980   7.372 -0.2124  0.1120 -0.0879
  138OSM   H11T15044   1.165   5.942   7.305  3.2443 -2.0805 -1.9815
  138OSM   C12S15045   1.166   6.123   7.428 -0.1638 -0.1863 -0.2766
  138OSM   H12S15046   1.070   6.153   7.381 -0.7474 -2.6205 -0.8187
  138OSM   H12T15047   1.228   6.211   7.453  0.9116 -0.9148 -0.2894
  138OSM   C13S15048   1.139   6.048   7.554 -0.0090 -0.1842  0.1863
  138OSM   H13S15049   1.225   5.981   7.578  0.6304  1.0923  1.6118
  138OSM   H13T15050   1.049   5.984   7.542 -0.4616  0.8060 -2.2605
  138OSM   C14S15051   1.118   6.141   7.678  0.3744  0.3166  0.9398
  138OSM   H14S15052   1.206   6.191   7.726  0.6381  0.3920  0.3815
  138OSM   H14T15053   1.090   6.074   7.762 -1.4022 -1.6605 -1.1115
  138OSM   C15S15054   0.989   6.223   7.671 -0.6660  0.2755 -0.1600
  138OSM   H15S15055   0.909   6.156   7.633 -1.1185  0.3060  0.7145
  138OSM   H15T15056   1.005   6.303   7.595  1.4395 -0.6337 -0.7673
  138OSM   C16S15057   0.936   6.279   7.801 -0.1319 -0.7139  0.0602
  138OSM   H16S15058   0.998   6.360   7.842 -0.4219 -1.2226  1.5739
  138OSM   H16T15059   0.940   6.204   7.883  0.9549 -0.0292  0.6497
  138OSM   C17S15060   0.791   6.335   7.788 -0.7951  0.4748  0.2479
  138OSM   H17S15061   0.757   6.362   7.890  0.7215  0.7897  0.6801
  138OSM   H17T15062   0.732   6.252   7.743 -0.7840 -0.0083  1.1085
  138OSM   C18S15063   0.781   6.450   7.685 -0.2393  0.7882 -0.9544
  138OSM   H18S15064   0.679   6.495   7.687  0.0837  1.5652  1.3831
  138OSM   H18T15065   0.791   6.418   7.579 -0.4908 -1.0932 -0.4485
  138OSM   H18U15066   0.853   6.532   7.704 -0.6308  1.3774 -1.9123
  138OSM    C1F15067   0.907   6.312   6.792  0.4441 -0.2922 -0.2171
  138OSM     OF15068   0.818   6.280   6.715 -0.3350  0.0649 -0.5232
  138OSM    C2F15069   0.880   6.313   6.935  0.0216 -0.0337  0.1637
  138OSM    H2F15070   0.788   6.375   6.945  1.3265  1.8346  1.0469
  138OSM    H2G15071   0.955   6.376   6.987 -1.9892  2.5536  0.1813
  138OSM    C3F15072   0.865   6.174   7.001  0.4758  1.2736  0.0744
  138OSM    H3F15073   0.958   6.114   6.992  0.0313  0.2679  1.7583
  138OSM    H3G15074   0.786   6.118   6.947 -0.2679  0.7634  1.6318
  138OSM    C4F15075   0.813   6.182   7.152  0.3711  0.5266  0.3032
  138OSM    H4F15076   0.713   6.230   7.164  0.3045 -0.1884  3.5571
  138OSM    H4G15077   0.883   6.239   7.217 -0.4037  1.8231  0.0525
  138OSM    C5F15078   0.792   6.038   7.207 -0.0008 -0.4035 -0.0474
  138OSM    H5F15079   0.888   5.986   7.183  0.9099  1.1167  0.1581
  138OSM    H5G15080   0.706   5.988   7.158 -0.3093 -1.6305  1.6658
  138OSM    C6F15081   0.783   6.030   7.355 -0.2737 -0.1825 -0.1758
  138OSM    H6F15082   0.727   6.112   7.405  1.2351  0.3987  0.6078
  138OSM    H6G15083   0.884   6.032   7.401 -0.9064 -1.0793  1.3276
  138OSM    C7F15084   0.732   5.886   7.395 -0.3375 -1.0392 -0.0159
  138OSM    H7F15085   0.790   5.810   7.340  2.5681  0.4763  0.7240
  138OSM    H7G15086   0.626   5.878   7.362  0.0977 -2.8555 -1.0904
  138OSM    C8F15087   0.760   5.842   7.537  0.2766  0.1369  0.3693
  138OSM    H8F15088   0.868   5.816   7.547 -0.0152 -2.1910 -1.4958
  138OSM    H8G15089   0.723   5.738   7.543  3.1570 -1.1622 -1.8650
  138OSM    C9F15090   0.710   5.923   7.652 -0.8709 -0.1540 -0.9494
  138OSM    H9F15091   0.699   6.028   7.618  0.9655 -0.5544 -3.0450
  138OSM   C10F15092   0.685   5.881   7.778  0.2114 -0.0626 -0.1118
  138OSM   H10F15093   0.637   5.950   7.849 -0.6014 -0.9014  0.1681
  138OSM   C11F15094   0.699   5.742   7.829  0.2891  0.5390 -0.4695
  138OSM   H11F15095   0.755   5.678   7.759 -0.1990 -1.7206  1.0843
  138OSM   H11G15096   0.603   5.692   7.856 -0.6701  1.3728 -2.2158
  138OSM   C12F15097   0.773   5.737   7.967 -0.0210  0.4339 -0.1284
  138OSM   H12F15098   0.805   5.634   7.997 -1.2909  0.4933  1.6143
  138OSM   H12G15099   0.705   5.777   8.046 -0.4037  0.0895 -0.2771
  138OSM   C13F15100   0.906   5.823   7.959  0.2331 -0.1778  1.0631
  138OSM   H13F15101   0.875   5.921   7.917  1.2000 -0.9505 -1.6249
  138OSM   H13G15102   0.976   5.778   7.886 -1.0708 -1.6244  0.6504
  138OSM   C14F15103   0.972   5.828   8.092 -0.3264  0.1856  0.1922
  138OSM   H14F15104   1.082   5.818   8.080 -0.5362 -0.2468 -1.5767
  138OSM   H14G15105   0.943   5.733   8.141 -2.5454  1.5999  1.8057
  138OSM   C15F15106   0.929   5.958   8.169 -0.9056 -0.4158  0.3594
  138OSM   H15F15107   0.844   5.996   8.109 -0.1758 -0.8573 -0.9919
  138OSM   H15G15108   1.008   6.036   8.161 -0.1141 -1.0833  1.3335
  138OSM   C16F15109   0.875   5.929   8.308 -0.1298 -0.0064  0.0967
  138OSM   H16F15110   0.789   5.861   8.289 -0.1156  0.1173 -0.4203
  138OSM   H16G15111   0.828   6.023   8.343  1.3170  0.8082 -0.0899
  138OSM   C17F15112   0.988   5.872   8.402  0.2495 -0.2244 -0.0174
  138OSM   H17F15113   1.047   5.788   8.360  1.6786  1.1078 -0.7719
  138OSM   H17G15114   0.939   5.825   8.490  2.8349 -0.3538  1.4379
  138OSM   C18F15115   1.088   5.988   8.454 -0.4967  1.2007  0.0600
  138OSM   H18F15116   1.026   6.067   8.501 -0.6561  0.3799  1.2853
  138OSM   H18G15117   1.146   6.033   8.371 -1.8160 -1.5420 -2.5229
  138OSM   H18H15118   1.162   5.952   8.529 -0.4911  1.3160  0.1092
  139OSM      N15119   5.646   5.408   6.353  0.0087 -0.1725  0.3280
  139OSM    C1515120   5.699   5.336   6.477 -1.1649  0.4291  0.7519
  139OSM   H15A15121   5.646   5.242   6.485 -0.7380  0.0151 -0.9804
  139OSM   H15B15122   5.680   5.413   6.550  2.6376  2.1243  0.1573
  139OSM   H15C15123   5.804   5.312   6.478 -1.7691 -2.8875 -1.4703
  139OSM    C1415124   5.726   5.533   6.340  0.1256  0.1007  0.1153
  139OSM   H14A15125   5.702   5.590   6.251 -0.2256  0.8459  0.6764
  139OSM   H14B15126   5.832   5.516   6.328 -0.0352  0.7521 -3.2221
  139OSM   H14C15127   5.713   5.598   6.424  3.1785  1.1093 -0.0701
  139OSM    C1315128   5.677   5.326   6.230 -0.5119  0.2456  0.0051
  139OSM   H13A15129   5.785   5.315   6.226 -0.4489  0.5463  0.7358
  139OSM   H13B15130   5.639   5.380   6.145  1.3408  1.6905  0.0133
  139OSM   H13C15131   5.643   5.224   6.239 -2.6194  0.8833 -0.4162
  139OSM    C1215132   5.500   5.443   6.367  0.6800  0.2816 -0.1048
  139OSM   H12A15133   5.436   5.358   6.344  1.9303 -0.8212  0.3881
  139OSM   H12B15134   5.468   5.526   6.305 -1.8351  0.7819  1.6795
  139OSM    C1115135   5.455   5.499   6.508  0.4917 -0.7885 -0.1255
  139OSM   H11A15136   5.473   5.436   6.598  1.5434 -0.6815 -0.2508
  139OSM   H11B15137   5.345   5.511   6.496  0.2190 -1.8116  1.1948
  139OSM      P15138   5.458   5.758   6.481 -0.0752  0.1154  0.3017
  139OSM    O1315139   5.559   5.870   6.486  0.9180 -0.0531  0.0474
  139OSM    O1415140   5.383   5.729   6.358  0.0322  0.6288  0.9082
  139OSM    O1115141   5.347   5.779   6.590 -0.1471  0.5023  0.0323
  139OSM    O1215142   5.529   5.624   6.531  0.5400 -0.0904 -0.3585
  139OSM    C1S15143   5.365   5.749   6.727 -0.0075 -0.3266  0.3059
  139OSM    H1S15144   5.436   5.665   6.739  0.4099  0.0473  0.4780
  139OSM    H1T15145   5.272   5.702   6.765 -0.8293 -0.2220 -1.4392
  139OSM     NF15146   5.462   5.838   6.949 -0.5838 -0.8343  0.6548
  139OSM    HNF15147   5.392   5.831   7.020 -3.2453 -3.3798 -1.9225
  139OSM    C2S15148   5.409   5.870   6.813  0.9018 -0.1633 -0.2099
  139OSM    H2S15149   5.489   5.928   6.761  0.5617 -1.1920 -1.9743
  139OSM    C3S15150   5.291   5.973   6.817  0.2242 -0.1084  0.3470
  139OSM    H3S15151   5.200   5.925   6.860 -1.0555  2.6234  0.9404
  139OSM     O315152   5.250   6.013   6.682 -0.5089  0.4176  0.0793
  139OSM    HO315153   5.291   5.941   6.633 -0.7814 -0.4586  1.1078
  139OSM    C4S15154   5.312   6.099   6.898 -0.0846  0.7160  0.5742
  139OSM    H4S15155   5.410   6.146   6.880  0.2418  0.3612  1.4000
  139OSM    C5S15156   5.225   6.143   6.999 -0.0849 -0.4824 -0.1025
  139OSM    H5S15157   5.135   6.082   7.011 -0.8448  0.4433 -0.9416
  139OSM    C6S15158   5.230   6.272   7.081 -0.5762  0.0853  0.1888
  139OSM    H6S15159   5.130   6.315   7.106 -0.5734  0.9609 -1.1883
  139OSM    H6T15160   5.283   6.350   7.023 -1.4444 -0.1661 -0.9706
  139OSM    C7S15161   5.303   6.259   7.218  0.1149 -0.2828  0.1521
  139OSM    H7S15162   5.405   6.225   7.190  1.2330  1.5346  1.7670
  139OSM    H7T15163   5.253   6.183   7.282  2.2523 -1.3949  0.6127
  139OSM    C8S15164   5.320   6.392   7.285 -0.5397  0.2026  0.0673
  139OSM    H8S15165   5.216   6.416   7.315 -0.5767 -0.8338  0.8421
  139OSM    H8T15166   5.342   6.473   7.213  0.4300  0.2632  0.4184
  139OSM    C9S15167   5.411   6.393   7.406  0.0783  0.3496 -0.6168
  139OSM    H9S15168   5.408   6.483   7.470  1.3980  0.3183 -0.4907
  139OSM    H9T15169   5.517   6.380   7.376  1.0259  0.2463  2.4862
  139OSM   C10S15170   5.380   6.272   7.507  0.2413 -0.7595 -0.2208
  139OSM   H10S15171   5.398   6.175   7.457 -1.3745 -2.5036  2.2944
  139OSM   H10T15172   5.270   6.275   7.526  0.1481  2.0697 -0.7534
  139OSM   C11S15173   5.454   6.264   7.640 -0.8480 -0.1920 -0.6142
  139OSM   H11S15174   5.428   6.359   7.692 -0.0324  0.3072 -1.0981
  139OSM   H11T15175   5.564   6.264   7.628 -0.6227 -1.2528  1.1024
  139OSM   C12S15176   5.422   6.145   7.720  0.4999 -0.2928 -0.0664
  139OSM   H12S15177   5.461   6.052   7.673  0.9865  0.0560 -0.3621
  139OSM   H12T15178   5.311   6.137   7.720  0.4905 -0.1905 -0.4368
  139OSM   C13S15179   5.464   6.151   7.868 -0.4598  0.6571  0.4255
  139OSM   H13S15180   5.463   6.255   7.905  1.9575 -0.1229  3.0633
  139OSM   H13T15181   5.569   6.118   7.884 -1.0281  0.0507  3.4713
  139OSM   C14S15182   5.368   6.078   7.960  0.2454 -0.7835  0.0190
  139OSM   H14S15183   5.369   5.971   7.929 -1.8448 -0.8767  0.0954
  139OSM   H14T15184   5.263   6.103   7.934  0.2941 -1.0757 -0.4752
  139OSM   C15S15185   5.393   6.104   8.105  0.2263  0.7350  0.5597
  139OSM   H15S15186   5.385   6.211   8.133  0.7446  0.4832  1.7468
  139OSM   H15T15187   5.494   6.067   8.133  0.4164 -1.9523 -2.9994
  139OSM   C16S15188   5.299   6.033   8.202 -0.4739  0.5929  0.0111
  139OSM   H16S15189   5.310   5.930   8.164  0.9913 -0.4833  3.0092
  139OSM   H16T15190   5.192   6.058   8.186 -0.8654 -1.7921 -1.6061
  139OSM   C17S15191   5.322   6.044   8.349  0.1403 -0.1163 -0.5998
  139OSM   H17S15192   5.306   6.149   8.383  1.6958 -0.6408  2.0665
  139OSM   H17T15193   5.422   6.015   8.389 -0.7529 -0.6772  1.3643
  139OSM   C18S15194   5.224   5.949   8.431  0.4254  0.6584 -0.7030
  139OSM   H18S15195   5.244   5.842   8.413 -3.0135  0.1195 -1.9945
  139OSM   H18T15196   5.119   5.962   8.397  0.6387 -0.8000 -2.0251
  139OSM   H18U15197   5.229   5.969   8.541 -2.9648 -1.9910  0.1043
  139OSM    C1F15198   5.581   5.778   6.961 -0.2085  0.2188  0.2040
  139OSM     OF15199   5.665   5.781   6.871  0.1223  0.0072  0.2083
  139OSM    C2F15200   5.602   5.721   7.104 -0.7948 -0.7210  0.0021
  139OSM    H2F15201   5.613   5.611   7.093 -1.5042 -0.8312  0.3727
  139OSM    H2G15202   5.526   5.759   7.176 -0.3590 -1.1805  0.7155
  139OSM    C3F15203   5.748   5.755   7.138 -0.1880  0.5945  0.4585
  139OSM    H3F15204   5.761   5.864   7.152  0.4351  0.5347  0.3711
  139OSM    H3G15205   5.814   5.717   7.057 -1.4306  2.4199 -1.5175
  139OSM    C4F15206   5.784   5.680   7.274 -0.0298  0.3250  0.2934
  139OSM    H4F15207   5.892   5.703   7.281 -0.0257 -0.0109  1.6584
  139OSM    H4G15208   5.764   5.572   7.258 -0.5941  0.7138 -2.0204
  139OSM    C5F15209   5.709   5.747   7.398 -0.1976 -0.2746  0.4761
  139OSM    H5F15210   5.617   5.689   7.421 -0.2229 -0.0883  0.8513
  139OSM    H5G15211   5.687   5.847   7.356  2.2565  1.1860  2.3772
  139OSM    C6F15212   5.784   5.781   7.521  0.5971 -0.0158 -0.3783
  139OSM    H6F15213   5.870   5.846   7.491 -0.6290  4.0482  3.6348
  139OSM    H6G15214   5.827   5.693   7.573 -1.5297  0.0825  1.7163
  139OSM    C7F15215   5.717   5.874   7.624 -0.8335  0.8133  0.1330
  139OSM    H7F15216   5.610   5.851   7.641 -0.6161 -0.3543  0.0177
  139OSM    H7G15217   5.724   5.980   7.591 -0.8872  0.9994  0.7170
  139OSM    C8F15218   5.778   5.864   7.768 -0.1144  0.3814  0.6277
  139OSM    H8F15219   5.744   5.954   7.824 -1.9539  0.5146 -0.6050
  139OSM    H8G15220   5.888   5.873   7.752 -0.4276  0.3829 -1.8970
  139OSM    C9F15221   5.749   5.736   7.845 -0.3677 -0.5842 -0.6392
  139OSM    H9F15222   5.770   5.644   7.788  0.2050 -0.2884 -0.9179
  139OSM   C10F15223   5.681   5.734   7.964  0.2544  0.0928 -0.1420
  139OSM   H10F15224   5.659   5.634   8.006  3.6986 -0.7177  0.0762
  139OSM   C11F15225   5.625   5.839   8.051 -0.1259  0.6633 -0.7356
  139OSM   H11F15226   5.525   5.818   8.096 -1.1134 -0.3789 -3.2061
  139OSM   H11G15227   5.609   5.923   7.980 -2.8957  0.6971 -0.1825
  139OSM   C12F15228   5.720   5.888   8.159  0.0579 -0.2198  0.6661
  139OSM   H12F15229   5.768   5.801   8.208 -1.6164  0.3676  3.6135
  139OSM   H12G15230   5.663   5.934   8.243  1.2112  1.3467  0.6297
  139OSM   C13F15231   5.821   5.992   8.106  0.4395 -0.5263 -0.4795
  139OSM   H13F15232   5.760   6.076   8.065 -0.4130 -0.7262  0.3587
  139OSM   H13G15233   5.885   5.957   8.022  0.2890  0.1256 -0.8798
  139OSM   C14F15234   5.916   6.043   8.219  0.9980  0.1021 -0.0509
  139OSM   H14F15235   5.984   6.121   8.179 -0.8663  1.5963 -0.4548
  139OSM   H14G15236   5.983   5.969   8.268  2.9336  2.2322  0.6907
  139OSM   C15F15237   5.833   6.101   8.338 -0.1622  0.2065 -0.1659
  139OSM   H15F15238   5.806   6.019   8.408  1.0154  1.2421  1.5693
  139OSM   H15G15239   5.732   6.139   8.311 -1.6272 -2.1902  1.4897
  139OSM   C16F15240   5.924   6.206   8.406 -0.6463  0.0792  0.1064
  139OSM   H16F15241   5.858   6.267   8.471  0.4636  1.4504 -0.0038
  139OSM   H16G15242   5.970   6.270   8.327 -1.1022 -0.6583 -0.7786
  139OSM   C17F15243   6.029   6.138   8.489  0.0927 -0.2807 -1.0115
  139OSM   H17F15244   6.097   6.072   8.431 -0.8200 -1.6483 -0.5772
  139OSM   H17G15245   5.978   6.064   8.555 -1.4246 -0.8611 -2.7286
  139OSM   C18F15246   6.122   6.229   8.568  0.0702  0.7035  0.5573
  139OSM   H18F15247   6.065   6.297   8.635 -0.0444  0.0213  1.1714
  139OSM   H18G15248   6.179   6.296   8.500 -0.2767  0.6202  0.1814
  139OSM   H18H15249   6.201   6.174   8.623  2.4617  1.8169 -1.5608
  140OSM      N15250   6.360   3.777   6.038 -0.0605  0.2600  0.4091
  140OSM    C1515251   6.360   3.894   5.936  0.8619  0.7465  0.2226
  140OSM   H15A15252   6.258   3.927   5.937  0.5224 -0.2784  0.8074
  140OSM   H15B15253   6.410   3.871   5.842 -1.2870 -2.0141 -0.3838
  140OSM   H15C15254   6.428   3.969   5.973  1.3258 -0.0520  1.0169
  140OSM    C1415255   6.508   3.732   6.065 -0.0127  0.2034  0.6839
  140OSM   H14A15256   6.522   3.636   6.112 -0.4271  0.8263  2.1281
  140OSM   H14B15257   6.561   3.808   6.121  1.2416  1.2589 -1.7786
  140OSM   H14C15258   6.568   3.709   5.978 -0.3337  0.1019  0.4890
  140OSM    C1315259   6.300   3.830   6.162 -0.3338  0.1349 -0.1831
  140OSM   H13A15260   6.200   3.868   6.147 -0.1370  0.3877 -0.8854
  140OSM   H13B15261   6.365   3.910   6.196  1.2307 -1.7422  1.5553
  140OSM   H13C15262   6.296   3.753   6.238  1.2047 -0.7025 -0.9019
  140OSM    C1215263   6.278   3.668   5.981  0.1376  0.0943 -0.1017
  140OSM   H12A15264   6.323   3.639   5.887  1.8367 -1.6466  1.1765
  140OSM   H12B15265   6.176   3.702   5.966  0.7771  0.8168 -3.9320
  140OSM    C1115266   6.269   3.530   6.058  0.9369 -0.2025  0.7080
  140OSM   H11A15267   6.355   3.462   6.037  0.5769 -0.2734 -0.6458
  140OSM   H11B15268   6.182   3.478   6.013  0.4928 -0.0321  1.3533
  140OSM      P15269   6.319   3.469   6.310 -0.1074 -0.2314 -0.1537
  140OSM    O1315270   6.297   3.324   6.280 -0.3587 -0.1130 -0.5323
  140OSM    O1415271   6.457   3.513   6.316  0.5623 -0.0981 -0.5812
  140OSM    O1115272   6.239   3.508   6.436  0.5617 -0.1822  0.0045
  140OSM    O1215273   6.235   3.549   6.201  0.5779 -0.3822  0.6462
  140OSM    C1S15274   6.162   3.418   6.518  0.5959  0.4515  0.0792
  140OSM    H1S15275   6.223   3.326   6.523 -0.2079 -0.1108 -0.2008
  140OSM    H1T15276   6.074   3.406   6.451  1.3881  0.2286 -0.9492
  140OSM     NF15277   6.082   3.349   6.730  0.3628  0.1456  0.3978
  140OSM    HNF15278   5.984   3.341   6.712  0.2850 -0.2778  1.0111
  140OSM    C2S15279   6.138   3.460   6.661 -0.5775  0.3170 -0.1849
  140OSM    H2S15280   6.239   3.490   6.696 -0.1614 -0.7413 -0.4320
  140OSM    C3S15281   6.047   3.585   6.661  0.1060  0.1504 -0.4359
  140OSM    H3S15282   5.966   3.559   6.589 -0.7059  1.5512 -0.0748
  140OSM     O315283   6.111   3.702   6.606 -0.1076 -0.0397 -0.2752
  140OSM    HO315284   6.169   3.655   6.544  0.3641 -0.8996  0.7832
  140OSM    C4S15285   6.002   3.610   6.806  0.1934  0.0428  0.9047
  140OSM    H4S15286   5.904   3.566   6.830 -0.1001  1.4339  2.3981
  140OSM    C5S15287   6.050   3.690   6.903  0.1952  0.2367  0.2458
  140OSM    H5S15288   6.142   3.748   6.887  0.5517 -0.1752  0.7403
  140OSM    C6S15289   5.990   3.710   7.038 -0.1190 -1.0514  0.1131
  140OSM    H6S15290   5.935   3.807   7.036  0.1819 -0.8241  1.6896
  140OSM    H6T15291   6.072   3.714   7.112  0.4852 -0.6714 -0.5651
  140OSM    C7S15292   5.899   3.592   7.079 -0.0533  0.2065 -0.5505
  140OSM    H7S15293   5.952   3.495   7.081  2.1309  1.3305  0.4863
  140OSM    H7T15294   5.820   3.582   7.002 -0.8347 -1.4167  0.4091
  140OSM    C8S15295   5.830   3.616   7.213 -0.1265 -0.0959 -0.1928
  140OSM    H8S15296   5.741   3.552   7.227  0.1449  0.1088  3.1765
  140OSM    H8T15297   5.788   3.718   7.227 -0.8028 -0.2187 -1.2411
  140OSM    C9S15298   5.924   3.583   7.325 -0.1249 -0.3472 -0.0125
  140OSM    H9S15299   6.011   3.652   7.316 -1.0434  0.6520 -1.8244
  140OSM    H9T15300   5.964   3.480   7.314 -0.3085 -0.7081  2.2191
  140OSM   C10S15301   5.854   3.599   7.460  0.2980  0.3418  0.1509
  140OSM   H10S15302   5.765   3.534   7.470 -0.3796  1.0572 -1.0160
  140OSM   H10T15303   5.816   3.703   7.469 -2.0677 -0.4809  0.4221
  140OSM   C11S15304   5.954   3.589   7.576 -0.4564 -0.2499  0.0183
  140OSM   H11S15305   6.026   3.673   7.559 -0.2824 -0.7975 -2.4130
  140OSM   H11T15306   6.013   3.497   7.558 -1.1042 -0.1422 -3.2982
  140OSM   C12S15307   5.873   3.608   7.705 -0.1033  0.0116 -0.0605
  140OSM   H12S15308   5.795   3.530   7.720  1.3599 -1.2009  1.6102
  140OSM   H12T15309   5.815   3.702   7.696 -0.1408 -0.0238 -0.1999
  140OSM   C13S15310   5.963   3.589   7.834 -0.6421  0.4749 -0.3384
  140OSM   H13S15311   5.941   3.668   7.909  1.9777  1.0648 -0.0948
  140OSM   H13T15312   6.068   3.607   7.802 -0.2340  1.8935  1.6382
  140OSM   C14S15313   5.953   3.445   7.892  0.1752  0.1343 -0.9129
  140OSM   H14S15314   6.003   3.374   7.822  2.1683 -0.8473  1.3688
  140OSM   H14T15315   5.846   3.427   7.916  0.4280  0.3535  0.4136
  140OSM   C15S15316   6.031   3.438   8.026 -0.2148 -0.1049 -0.4976
  140OSM   H15S15317   6.137   3.470   8.011 -0.8226  2.2198 -0.2301
  140OSM   H15T15318   6.033   3.331   8.055 -0.7667 -0.2578 -1.0193
  140OSM   C16S15319   5.982   3.523   8.145 -0.0316 -0.6526 -0.1334
  140OSM   H16S15320   5.880   3.484   8.169 -0.3129 -1.2201 -2.1323
  140OSM   H16T15321   5.977   3.633   8.129 -1.3189 -0.5535  0.7923
  140OSM   C17S15322   6.065   3.504   8.276 -0.1681  0.5580  0.1290
  140OSM   H17S15323   6.156   3.568   8.274  0.1490  0.1137  0.2076
  140OSM   H17T15324   6.095   3.398   8.279 -1.0719  0.2617 -0.5080
  140OSM   C18S15325   5.987   3.547   8.400 -0.2257 -0.0903  0.0054
  140OSM   H18S15326   5.979   3.657   8.413  0.9370 -0.1327  1.3804
  140OSM   H18T15327   6.051   3.504   8.481  1.0748 -1.8283 -1.8306
  140OSM   H18U15328   5.886   3.502   8.391 -0.6078  1.0370 -1.9176
  140OSM    C1F15329   6.150   3.247   6.786 -0.2285  0.9719  0.1724
  140OSM     OF15330   6.268   3.253   6.813 -0.3022  0.6143 -0.4264
  140OSM    C2F15331   6.080   3.111   6.801 -0.0930 -0.3502 -0.0453
  140OSM    H2F15332   6.121   3.045   6.722  2.3401  0.8458  0.1472
  140OSM    H2G15333   5.970   3.118   6.784 -0.1206 -2.7244 -1.3003
  140OSM    C3F15334   6.101   3.045   6.935 -0.6787 -0.0538 -0.8464
  140OSM    H3F15335   6.194   2.987   6.922 -1.2740 -1.5358  1.0544
  140OSM    H3G15336   6.018   2.973   6.950  0.7456 -1.7946 -1.0501
  140OSM    C4F15337   6.097   3.136   7.058  0.5291 -0.3057 -0.2411
  140OSM    H4F15338   6.017   3.213   7.057  1.9460  1.2699  1.2304
  140OSM    H4G15339   6.190   3.197   7.069  0.4281 -0.3878  1.1515
  140OSM    C5F15340   6.088   3.063   7.193 -0.2343 -0.2127 -0.1491
  140OSM    H5F15341   6.186   3.012   7.194  0.6292  1.3699  0.0100
  140OSM    H5G15342   6.002   2.993   7.200 -0.2705 -0.2508 -0.8766
  140OSM    C6F15343   6.069   3.164   7.314 -0.0325  0.1654 -0.0467
  140OSM    H6F15344   5.968   3.208   7.300  0.1767  0.2708 -1.3939
  140OSM    H6G15345   6.148   3.242   7.302  1.2322 -0.8100  1.5178
  140OSM    C7F15346   6.083   3.096   7.453 -0.4118  0.1660 -0.1862
  140OSM    H7F15347   6.191   3.073   7.462 -0.3825 -0.3582 -1.6600
  140OSM    H7G15348   6.021   3.004   7.444  1.4737 -1.2737  0.8187
  140OSM    C8F15349   6.018   3.186   7.563 -0.8245  0.1653 -0.0493
  140OSM    H8F15350   5.922   3.225   7.524 -1.2741 -0.4822  0.3834
  140OSM    H8G15351   6.081   3.274   7.586 -0.7226  0.1877 -0.4216
  140OSM    C9F15352   6.003   3.103   7.690  0.5621 -0.3515  0.4087
  140OSM    H9F15353   5.897   3.078   7.704  0.4620 -0.6906 -0.8052
  140OSM   C10F15354   6.091   3.050   7.774 -0.4463 -0.0582 -1.1413
  140OSM   H10F15355   6.051   3.001   7.863 -1.2942 -0.9307 -1.9870
  140OSM   C11F15356   6.240   3.069   7.768 -0.0741 -0.3481  0.1893
  140OSM   H11F15357   6.271   3.120   7.674  0.3051 -1.0540 -0.0770
  140OSM   H11G15358   6.290   2.971   7.785  2.2008  0.6038 -0.5767
  140OSM   C12F15359   6.277   3.167   7.885  0.8975  0.3018 -0.4107
  140OSM   H12F15360   6.232   3.263   7.854 -1.0297 -0.1036  0.9456
  140OSM   H12G15361   6.388   3.162   7.888  0.8827 -0.5529 -0.9294
  140OSM   C13F15362   6.241   3.118   8.029 -0.0759  0.2362 -1.3854
  140OSM   H13F15363   6.288   3.017   8.026 -0.3513  0.1115 -1.4774
  140OSM   H13G15364   6.133   3.106   8.050  0.1382  0.5086 -0.0033
  140OSM   C14F15365   6.315   3.192   8.144  0.7681  0.2763 -0.2826
  140OSM   H14F15366   6.263   3.286   8.172 -0.9383  0.2567 -3.0027
  140OSM   H14G15367   6.417   3.217   8.107  0.8420 -1.6839 -1.5414
  140OSM   C15F15368   6.336   3.093   8.257  0.0089  0.5334 -0.1326
  140OSM   H15F15369   6.362   2.989   8.229  1.7196  1.4073 -2.0195
  140OSM   H15G15370   6.238   3.088   8.310  0.3183 -0.6268  0.3370
  140OSM   C16F15371   6.453   3.123   8.353 -0.6748  0.1081  0.9272
  140OSM   H16F15372   6.555   3.123   8.310 -0.6449  0.0532  0.9989
  140OSM   H16G15373   6.446   3.048   8.435  0.5519 -1.1429 -0.0506
  140OSM   C17F15374   6.445   3.265   8.412  0.5994  0.6116  0.1943
  140OSM   H17F15375   6.347   3.295   8.455  0.1615  6.6806 -3.7199
  140OSM   H17G15376   6.463   3.344   8.335 -1.2168  0.1470 -0.7597
  140OSM   C18F15377   6.564   3.282   8.518  0.1014 -0.5651  0.6567
  140OSM   H18F15378   6.658   3.283   8.458 -1.3969 -0.5177 -1.8332
  140OSM   H18G15379   6.561   3.191   8.581  0.0412 -2.1287 -1.4932
  140OSM   H18H15380   6.561   3.384   8.561  0.3679 -0.5771  0.7067
  141OSM      N15381   6.424   4.709   6.212  0.6421  0.2355  0.0346
  141OSM    C1515382   6.574   4.715   6.174 -0.4717  0.2138 -0.3092
  141OSM   H15A15383   6.606   4.802   6.118  1.6295  0.5356  1.2792
  141OSM   H15B15384   6.607   4.627   6.120  0.7286  0.6820 -0.3764
  141OSM   H15C15385   6.633   4.727   6.263  2.4315  0.3938 -2.1033
  141OSM    C1415386   6.380   4.820   6.299 -0.5935  0.5558 -0.1446
  141OSM   H14A15387   6.436   4.827   6.391  0.8429  0.8371 -1.0045
  141OSM   H14B15388   6.276   4.814   6.328 -0.4879  1.2728  0.4307
  141OSM   H14C15389   6.396   4.913   6.246  3.2293 -1.4301 -2.9223
  141OSM    C1315390   6.346   4.705   6.082  0.1323  0.0582 -0.4883
  141OSM   H13A15391   6.241   4.704   6.104  0.2719 -0.9603  0.2092
  141OSM   H13B15392   6.369   4.618   6.022  0.3465  0.1725 -0.5756
  141OSM   H13C15393   6.379   4.783   6.016 -0.0173 -1.0367 -1.9057
  141OSM    C1215394   6.392   4.576   6.285 -0.2784  0.4156 -0.4676
  141OSM   H12A15395   6.404   4.489   6.223  3.3452  0.1996  0.3386
  141OSM   H12B15396   6.292   4.579   6.325 -0.4256  1.3641 -0.8695
  141OSM    C1115397   6.468   4.539   6.414 -0.1723 -0.0391  0.7983
  141OSM   H11A15398   6.402   4.466   6.465 -0.5754  0.2372  0.6786
  141OSM   H11B15399   6.465   4.628   6.481  0.2109 -0.4565  1.3746
  141OSM      P15400   6.631   4.342   6.370 -0.0204  0.1399  0.3537
  141OSM    O1315401   6.561   4.310   6.248 -0.2878  0.2152 -0.0247
  141OSM    O1415402   6.778   4.314   6.371 -0.0225 -0.0908  0.6986
  141OSM    O1115403   6.564   4.273   6.495  0.4897  0.3847 -0.4337
  141OSM    O1215404   6.607   4.495   6.401  0.5763 -0.4888  0.1295
  141OSM    C1S15405   6.619   4.312   6.628  0.2155  1.0038 -0.1562
  141OSM    H1S15406   6.628   4.422   6.640  2.8231  0.7894  0.2657
  141OSM    H1T15407   6.721   4.269   6.626  0.6769  2.0038 -2.9687
  141OSM     NF15408   6.606   4.283   6.875  0.1776  0.4838 -0.4767
  141OSM    HNF15409   6.635   4.199   6.920 -1.7115 -0.3505 -0.7323
  141OSM    C2S15410   6.531   4.275   6.751 -0.4041 -0.2290  0.6414
  141OSM    H2S15411   6.459   4.358   6.770  0.2180  0.1434  1.4487
  141OSM    C3S15412   6.474   4.132   6.740 -0.2118 -0.3934 -0.2402
  141OSM    H3S15413   6.562   4.065   6.746 -0.1073 -0.3831 -1.3860
  141OSM     O315414   6.411   4.099   6.614  0.1570 -0.1450 -0.0641
  141OSM    HO315415   6.441   4.174   6.562  3.3100 -0.9456  0.4129
  141OSM    C4S15416   6.383   4.107   6.860 -0.3130  0.2289 -0.5949
  141OSM    H4S15417   6.436   4.074   6.951 -0.4570  0.2891 -0.4872
  141OSM    C5S15418   6.249   4.100   6.864  0.3810  0.3240  0.9550
  141OSM    H5S15419   6.189   4.125   6.776  0.2991  0.2434  0.9871
  141OSM    C6S15420   6.165   4.053   6.982  0.2585  0.3792  0.8256
  141OSM    H6S15421   6.145   3.945   6.964  1.5780 -0.3055  3.0956
  141OSM    H6T15422   6.073   4.115   6.973  0.2974  0.2428 -0.7627
  141OSM    C7S15423   6.223   4.066   7.125  0.5565  0.1554 -0.0980
  141OSM    H7S15424   6.232   4.176   7.139 -1.2022  0.0836  2.1606
  141OSM    H7T15425   6.319   4.010   7.129  0.2130 -0.4798 -0.6291
  141OSM    C8S15426   6.133   4.018   7.238 -0.1707  0.0221  0.1426
  141OSM    H8S15427   6.101   3.915   7.216  1.4100 -0.2514 -1.0290
  141OSM    H8T15428   6.041   4.081   7.246 -1.9947 -2.4515 -0.3680
  141OSM    C9S15429   6.191   4.033   7.381  0.4108  0.1577 -0.4784
  141OSM    H9S15430   6.206   4.142   7.399 -0.5755  0.3572 -0.7567
  141OSM    H9T15431   6.291   3.988   7.396 -0.2912 -1.9149 -1.6850
  141OSM   C10S15432   6.100   3.983   7.494  0.9244 -0.4505 -0.8204
  141OSM   H10S15433   6.076   3.876   7.475 -3.9156  0.4474 -1.1589
  141OSM   H10T15434   6.000   4.029   7.478 -0.1738 -1.9703  1.1687
  141OSM   C11S15435   6.136   4.016   7.639 -0.5100  0.2981  0.3995
  141OSM   H11S15436   6.137   4.127   7.635 -0.7723  0.2672 -1.4919
  141OSM   H11T15437   6.231   3.968   7.669  0.5777  1.0595 -1.6718
  141OSM   C12S15438   6.035   3.984   7.754  0.0775  0.1791 -0.4046
  141OSM   H12S15439   6.014   3.875   7.761 -1.3254  0.5190  1.2523
  141OSM   H12T15440   5.936   4.029   7.731 -1.3087 -1.2482  2.3137
  141OSM   C13S15441   6.083   4.034   7.888  0.5777 -0.0490 -0.0427
  141OSM   H13S15442   6.082   4.145   7.881 -0.5164 -0.0576 -0.1840
  141OSM   H13T15443   6.190   4.013   7.909  1.2048  2.8222  0.0303
  141OSM   C14S15444   6.010   3.975   8.010  0.2577  0.3158 -0.0451
  141OSM   H14S15445   6.038   3.868   8.020 -0.7823  0.0912  0.6972
  141OSM   H14T15446   5.900   3.981   7.993  0.0813 -2.0730 -0.0688
  141OSM   C15S15447   6.041   4.037   8.145 -0.2374  0.5512  0.3969
  141OSM   H15S15448   6.034   4.147   8.156 -1.3840  0.5838 -0.5039
  141OSM   H15T15449   6.142   4.007   8.183  0.9119  2.7682 -0.6957
  141OSM   C16S15450   5.949   3.978   8.248 -0.2176 -0.8097 -0.3974
  141OSM   H16S15451   5.979   3.873   8.264 -1.4381 -1.1861 -0.4816
  141OSM   H16T15452   5.844   4.001   8.217 -0.1822  1.1939  0.7430
  141OSM   C17S15453   5.971   4.055   8.385 -0.0997  0.0801 -0.2114
  141OSM   H17S15454   5.918   4.153   8.388  0.3651  0.3319 -0.2157
  141OSM   H17T15455   6.080   4.072   8.381 -0.4713  3.3103  0.3264
  141OSM   C18S15456   5.928   3.972   8.507 -0.0367 -0.1107  0.0142
  141OSM   H18S15457   5.825   3.932   8.494 -0.5099  0.6301  1.3071
  141OSM   H18T15458   5.938   4.028   8.603  0.6920 -0.8486  0.3765
  141OSM   H18U15459   5.991   3.881   8.514  0.6344  0.4207  1.0968
  141OSM    C1F15460   6.665   4.395   6.913  0.6475 -0.4383 -0.1025
  141OSM     OF15461   6.652   4.496   6.852 -0.1548 -0.7410 -0.1131
  141OSM    C2F15462   6.750   4.383   7.038  0.7435 -0.0252  0.2501
  141OSM    H2F15463   6.823   4.300   7.026  0.7250 -0.3065  1.8257
  141OSM    H2G15464   6.689   4.348   7.124 -1.1908  0.0719 -1.0166
  141OSM    C3F15465   6.832   4.504   7.081 -0.3356 -0.0601 -0.2874
  141OSM    H3F15466   6.769   4.596   7.089  2.7683  2.1471  0.6142
  141OSM    H3G15467   6.900   4.533   6.999  1.4730 -1.1709  0.7673
  141OSM    C4F15468   6.905   4.483   7.219 -0.4170  0.0862  0.0486
  141OSM    H4F15469   6.992   4.551   7.212 -1.3200  1.1147 -2.6411
  141OSM    H4G15470   6.927   4.376   7.237 -0.8623 -0.0397 -0.1269
  141OSM    C5F15471   6.817   4.519   7.334  0.3154  0.0612 -0.6089
  141OSM    H5F15472   6.724   4.459   7.322 -0.0142  0.9238 -2.9189
  141OSM    H5G15473   6.793   4.625   7.315  2.1362  0.7803  0.8280
  141OSM    C6F15474   6.885   4.498   7.475  0.3084 -0.1003 -0.8580
  141OSM    H6F15475   6.981   4.552   7.490  0.4961  0.0332 -2.4144
  141OSM    H6G15476   6.900   4.390   7.493 -2.8115 -0.0391  3.9669
  141OSM    C7F15477   6.786   4.539   7.586  0.4331 -0.3860  0.2415
  141OSM    H7F15478   6.692   4.487   7.559  2.4841 -3.5761 -1.4159
  141OSM    H7G15479   6.767   4.649   7.588  1.1376 -0.2549  0.0413
  141OSM    C8F15480   6.824   4.487   7.721  0.0371 -0.6426  0.0390
  141OSM    H8F15481   6.746   4.517   7.795 -0.3165 -0.9580 -0.2053
  141OSM    H8G15482   6.922   4.533   7.748 -0.7069  1.2516 -0.3039
  141OSM    C9F15483   6.837   4.342   7.720  0.2076  0.4297  0.5245
  141OSM    H9F15484   6.767   4.291   7.653  2.2329 -0.9207 -0.6955
  141OSM   C10F15485   6.920   4.274   7.789 -0.5987 -0.5679  0.2669
  141OSM   H10F15486   6.928   4.166   7.767  0.5903 -0.2446 -1.0101
  141OSM   C11F15487   7.016   4.325   7.892  0.6854  0.3756  0.4051
  141OSM   H11F15488   6.965   4.395   7.963 -0.0501 -0.0459  0.3041
  141OSM   H11G15489   7.085   4.392   7.836 -4.0633  2.9427 -3.1091
  141OSM   C12F15490   7.095   4.227   7.982 -0.2739 -0.5603 -0.5646
  141OSM   H12F15491   7.188   4.197   7.929 -0.2751 -2.2431  0.3090
  141OSM   H12G15492   7.038   4.132   7.996  3.5615 -3.2126 -1.4320
  141OSM   C13F15493   7.139   4.286   8.110  0.0478 -0.1106 -0.4805
  141OSM   H13F15494   7.198   4.377   8.086 -1.5488  0.9733 -0.4713
  141OSM   H13G15495   7.208   4.220   8.166  1.9953  0.6599 -1.8460
  141OSM   C14F15496   7.017   4.312   8.197  0.2360 -0.3000  0.1538
  141OSM   H14F15497   6.935   4.243   8.169  0.1486 -1.8260  3.6748
  141OSM   H14G15498   6.989   4.419   8.179  2.1633 -0.0285 -1.6303
  141OSM   C15F15499   7.033   4.301   8.348  0.3048 -0.2747 -0.5351
  141OSM   H15F15500   7.128   4.351   8.375  1.1435 -1.1373 -1.7453
  141OSM   H15G15501   7.042   4.194   8.377 -0.1185  0.1838  1.3579
  141OSM   C16F15502   6.913   4.351   8.426  0.2166  0.0465  0.2008
  141OSM   H16F15503   6.825   4.293   8.389  0.8508 -0.0341 -1.2844
  141OSM   H16G15504   6.897   4.460   8.407 -1.7605  0.2677  2.6898
  141OSM   C17F15505   6.921   4.324   8.577  0.3112  0.1963 -0.3761
  141OSM   H17F15506   7.002   4.382   8.628 -1.4450  0.5586  2.1746
  141OSM   H17G15507   6.945   4.218   8.599 -2.6501 -0.3155  0.7418
  141OSM   C18F15508   6.786   4.363   8.644 -0.1878 -0.5533 -0.0920
  141OSM   H18F15509   6.767   4.473   8.644  0.3224 -0.4610  0.3578
  141OSM   H18G15510   6.798   4.347   8.754 -1.7708 -0.8266  0.0695
  141OSM   H18H15511   6.693   4.309   8.615  0.5817 -2.7588  1.2916
  142OSM      N15512   0.029   5.180   5.933 -0.0643 -0.3940  0.0370
  142OSM    C1515513   0.066   5.278   6.052  0.0133  0.5259 -0.0201
  142OSM   H15A15514   0.015   5.374   6.047  2.1138  1.9301  2.6602
  142OSM   H15B15515   0.171   5.298   6.044 -0.1240  2.1573  1.5511
  142OSM   H15C15516   0.040   5.225   6.143 -1.0922 -0.7109 -1.0112
  142OSM    C1415517   0.072   5.259   5.811  0.9033  0.3147  0.4316
  142OSM   H14A15518   0.180   5.261   5.801  1.0655 -1.2752  1.3904
  142OSM   H14B15519   0.049   5.364   5.820 -1.4326 -0.2657  2.3650
  142OSM   H14C15520   0.037   5.221   5.716  1.8259 -1.7882  0.8617
  142OSM    C1315521   0.110   5.059   5.940  0.3245  0.2634  0.5560
  142OSM   H13A15522   0.086   5.004   5.850  1.7379  2.3900 -1.2003
  142OSM   H13B15523   0.080   4.994   6.021  0.2212 -2.0997 -1.2707
  142OSM   H13C15524   0.217   5.072   5.951  0.4461 -1.8424  3.0345
  142OSM    C1215525  -0.128   5.155   5.931 -0.0053 -0.3605 -0.7951
  142OSM   H12A15526  -0.161   5.096   5.848  3.0292 -1.8188 -1.1250
  142OSM   H12B15527  -0.176   5.251   5.924 -1.0865 -0.8350 -0.0774
  142OSM    C1115528  -0.190   5.088   6.057 -0.5793  0.4776 -0.0693
  142OSM   H11A15529  -0.163   4.982   6.038 -1.6633  0.3576 -1.0536
  142OSM   H11B15530  -0.301   5.083   6.055 -0.5266 -1.7648  0.4820
  142OSM      P15531  -0.206   5.204   6.293  0.0021 -0.1358  0.3451
  142OSM    O1315532  -0.125   5.324   6.329 -0.1366  0.5047  0.5767
  142OSM    O1415533  -0.347   5.236   6.243  0.0455 -0.0167  0.2254
  142OSM    O1115534  -0.214   5.091   6.404  0.3622  0.1222 -0.4441
  142OSM    O1215535  -0.126   5.124   6.181 -0.0564 -0.6199  0.1666
  142OSM    C1S15536  -0.099   5.032   6.462 -0.1855  0.9962  0.1813
  142OSM    H1S15537  -0.006   5.089   6.440 -0.4187  2.5292  2.7653
  142OSM    H1T15538  -0.095   4.928   6.423 -0.4841  1.1362 -0.2313
  142OSM     NF15539   0.017   4.996   6.687  0.2942  0.2385 -0.0925
  142OSM    HNF15540   0.023   4.907   6.733 -0.8285  0.5861  0.7508
  142OSM    C2S15541  -0.112   5.022   6.621  0.6690 -0.3496 -0.0470
  142OSM    H2S15542  -0.136   5.124   6.658  1.4279 -1.1423  2.8462
  142OSM    C3S15543  -0.224   4.931   6.656 -0.0248  0.0194  1.2321
  142OSM    H3S15544  -0.199   4.839   6.599 -1.7527  0.7129 -0.7549
  142OSM     O315545  -0.350   4.972   6.605  0.0510 -0.1754 -0.5962
  142OSM    HO315546  -0.315   5.027   6.534 -1.0274 -0.1860 -1.1482
  142OSM    C4S15547  -0.240   4.900   6.802 -0.6840  0.8140  0.4523
  142OSM    H4S15548  -0.230   4.978   6.879 -1.0462 -0.3213  1.6739
  142OSM    C5S15549  -0.244   4.772   6.848 -0.3687 -0.4042 -0.3569
  142OSM    H5S15550  -0.237   4.683   6.785  0.7105 -0.9981  0.5516
  142OSM    C6S15551  -0.241   4.766   7.001  0.1173  0.5552  0.0788
  142OSM    H6S15552  -0.252   4.864   7.052  1.5848  0.0462  1.4702
  142OSM    H6T15553  -0.139   4.738   7.035 -0.4187 -0.9966  0.5060
  142OSM    C7S15554  -0.316   4.654   7.061  0.0641 -0.0206  0.3892
  142OSM    H7S15555  -0.270   4.557   7.031 -0.7669  0.0360 -1.2117
  142OSM    H7T15556  -0.423   4.655   7.031  0.6119  2.0120 -1.8051
  142OSM    C8S15557  -0.310   4.652   7.211 -0.2813  0.2579  0.0895
  142OSM    H8S15558  -0.357   4.743   7.253 -1.5854  0.2410 -1.2265
  142OSM    H8T15559  -0.202   4.641   7.231  0.2034  1.4329 -1.6846
  142OSM    C9S15560  -0.385   4.537   7.281 -0.3366 -0.0527 -0.5757
  142OSM    H9S15561  -0.340   4.438   7.258  0.3659 -0.4776  2.3196
  142OSM    H9T15562  -0.493   4.539   7.256 -0.7402 -1.7746  0.8330
  142OSM   C10S15563  -0.368   4.538   7.440 -0.1211  0.0185 -0.5245
  142OSM   H10S15564  -0.438   4.619   7.473 -0.1701 -0.7543  1.4205
  142OSM   H10T15565  -0.264   4.558   7.474 -1.5019  2.2022  3.0639
  142OSM   C11S15566  -0.400   4.407   7.503 -0.8228 -0.6044  0.5020
  142OSM   H11S15567  -0.322   4.334   7.471 -0.1865  0.2917 -0.0364
  142OSM   H11T15568  -0.501   4.372   7.472 -1.2858  2.1551 -1.4290
  142OSM   C12S15569  -0.406   4.409   7.654 -0.0196 -0.0655 -0.1975
  142OSM   H12S15570  -0.320   4.471   7.688  0.6547 -0.3470 -1.3329
  142OSM   H12T15571  -0.390   4.308   7.698  2.0559  0.9621  1.5883
  142OSM   C13S15572  -0.531   4.474   7.716 -0.2031  0.5495  0.2870
  142OSM   H13S15573  -0.631   4.437   7.685 -1.7778  2.8469  2.2454
  142OSM   H13T15574  -0.545   4.578   7.677  0.7665  0.2309 -0.9833
  142OSM   C14S15575  -0.513   4.468   7.865  0.3171 -0.1671  0.0987
  142OSM   H14S15576  -0.484   4.365   7.896 -1.9039 -0.6744  0.6484
  142OSM   H14T15577  -0.613   4.484   7.909  1.5629  2.5633  2.2618
  142OSM   C15S15578  -0.414   4.562   7.940 -0.0331 -0.0446  0.3032
  142OSM   H15S15579  -0.443   4.666   7.913  0.6770 -0.3976 -2.1116
  142OSM   H15T15580  -0.317   4.551   7.887 -1.7596 -0.7633 -3.0313
  142OSM   C16S15581  -0.411   4.549   8.088 -0.0927 -0.3842  0.9665
  142OSM   H16S15582  -0.426   4.446   8.126 -0.8556  0.2876  2.6192
  142OSM   H16T15583  -0.503   4.601   8.123 -1.7024 -1.0952 -1.9246
  142OSM   C17S15584  -0.298   4.626   8.154  0.1859 -0.0160 -0.1550
  142OSM   H17S15585  -0.311   4.605   8.262 -1.8826  0.0527 -0.3460
  142OSM   H17T15586  -0.324   4.732   8.132 -0.8824  0.2063  1.9418
  142OSM   C18S15587  -0.149   4.593   8.120  0.0927  0.3169 -0.7759
  142OSM   H18S15588  -0.092   4.678   8.163  2.0657 -0.1987 -2.2596
  142OSM   H18T15589  -0.129   4.591   8.011  0.9834 -2.9672 -0.6618
  142OSM   H18U15590  -0.114   4.500   8.169  0.7923  1.9529  2.0584
  142OSM    C1F15591   0.126   5.078   6.690  0.9349 -0.0908  0.3064
  142OSM     OF15592   0.129   5.189   6.636 -0.5001  0.3213  0.1703
  142OSM    C2F15593   0.239   5.017   6.766 -0.1007  0.0713 -0.5099
  142OSM    H2F15594   0.307   4.959   6.700  0.9989  1.0037 -0.2422
  142OSM    H2G15595   0.191   4.938   6.827 -2.1774 -0.0733 -2.2086
  142OSM    C3F15596   0.291   5.117   6.865 -0.4278 -0.1185 -1.2272
  142OSM    H3F15597   0.323   5.213   6.821  3.6750  0.3013  2.0890
  142OSM    H3G15598   0.378   5.067   6.913 -0.0393 -0.3475 -2.1461
  142OSM    C4F15599   0.181   5.151   6.982 -0.7524 -0.0881  0.9067
  142OSM    H4F15600   0.090   5.189   6.931 -0.0165 -0.6718 -0.9274
  142OSM    H4G15601   0.231   5.231   7.040 -0.2069  0.4372 -0.2599
  142OSM    C5F15602   0.143   5.026   7.063 -0.3287 -0.5406  0.0840
  142OSM    H5F15603   0.079   4.950   7.014 -0.9286 -1.1005  1.6437
  142OSM    H5G15604   0.074   5.052   7.147  1.4711  0.1912  1.4169
  142OSM    C6F15605   0.267   4.953   7.128 -0.4217  0.2981 -0.2411
  142OSM    H6F15606   0.351   5.013   7.169 -1.2819  0.4760  1.3389
  142OSM    H6G15607   0.335   4.902   7.056  2.3385 -0.6264  2.8059
  142OSM    C7F15608   0.227   4.857   7.237 -0.1828  0.2019 -0.1564
  142OSM    H7F15609   0.318   4.796   7.259 -0.6775  0.0688  1.6572
  142OSM    H7G15610   0.160   4.781   7.192  0.0933 -0.4174  0.4601
  142OSM    C8F15611   0.178   4.913   7.368  0.1963 -0.7891 -0.5266
  142OSM    H8F15612   0.138   4.831   7.431 -0.6154 -1.0442 -1.3508
  142OSM    H8G15613   0.087   4.972   7.343  1.1740  1.3535  0.7096
  142OSM    C9F15614   0.275   4.994   7.449  0.0259  0.2881 -0.6246
  142OSM    H9F15615   0.276   5.103   7.433  0.5287  0.1349 -1.7281
  142OSM   C10F15616   0.364   4.944   7.535  0.0444  0.2174 -0.3469
  142OSM   H10F15617   0.446   5.013   7.560 -1.9325  1.8432  2.0881
  142OSM   C11F15618   0.396   4.797   7.559  0.8455  0.3505 -0.0936
  142OSM   H11F15619   0.506   4.787   7.572  0.7894 -0.7279 -0.3805
  142OSM   H11G15620   0.372   4.732   7.472 -0.2410  0.5779  0.0195
  142OSM   C12F15621   0.332   4.736   7.685  0.5500  0.5394 -0.5849
  142OSM   H12F15622   0.338   4.625   7.679  3.4989  0.6528 -1.2061
  142OSM   H12G15623   0.223   4.758   7.676  0.1220 -0.5889  1.2412
  142OSM   C13F15624   0.369   4.789   7.813 -0.5625  0.5388 -0.1131
  142OSM   H13F15625   0.360   4.899   7.825  1.2936  0.8201 -0.9523
  142OSM   H13G15626   0.472   4.752   7.833 -0.4914 -0.3704 -1.9962
  142OSM   C14F15627   0.274   4.728   7.918 -0.5849  0.3511  0.1302
  142OSM   H14F15628   0.275   4.617   7.916 -1.9855  0.3252  0.0709
  142OSM   H14G15629   0.168   4.761   7.907 -0.4107  1.4157  1.3443
  142OSM   C15F15630   0.320   4.784   8.050 -0.4988 -0.3199 -0.5534
  142OSM   H15F15631   0.325   4.895   8.047 -0.8445 -0.3046 -0.5815
  142OSM   H15G15632   0.415   4.736   8.084 -1.1612 -0.6457  0.9143
  142OSM   C16F15633   0.220   4.741   8.161 -0.1591 -0.6453  0.6285
  142OSM   H16F15634   0.220   4.630   8.151  3.0375 -0.8059  1.4311
  142OSM   H16G15635   0.126   4.781   8.116  0.9061  2.4401  0.8759
  142OSM   C17F15636   0.240   4.792   8.303 -0.2935  0.0925 -0.3117
  142OSM   H17F15637   0.142   4.779   8.353  0.0565  1.7232  0.8857
  142OSM   H17G15638   0.266   4.900   8.302  2.1095 -0.4276 -1.3533
  142OSM   C18F15639   0.353   4.713   8.377  0.7996 -0.2126  0.4518
  142OSM   H18F15640   0.332   4.605   8.363 -1.4279  0.4826 -2.6067
  142OSM   H18G15641   0.350   4.744   8.483 -3.4698 -1.1231  0.7748
  142OSM   H18H15642   0.449   4.739   8.326 -0.2433  3.1893  0.0004
  143OSM      N15643   0.324   5.917   5.929  0.5214  0.3423  0.1636
  143OSM    C1515644   0.378   6.026   5.855  0.0779 -0.4059  0.5457
  143OSM   H15A15645   0.419   5.984   5.764 -2.3134 -2.9359  0.5249
  143OSM   H15B15646   0.460   6.055   5.919  0.1637  0.8460 -0.1050
  143OSM   H15C15647   0.319   6.114   5.835 -0.3065 -0.4581  1.4542
  143OSM    C1415648   0.262   5.950   6.060  0.5115 -0.0441 -0.1045
  143OSM   H14A15649   0.335   5.939   6.139  1.0712  2.2314 -0.2513
  143OSM   H14B15650   0.171   5.900   6.088  1.1580 -0.0768  2.1232
  143OSM   H14C15651   0.246   6.057   6.066 -0.6750 -0.1485 -0.9551
  143OSM    C1315652   0.203   5.865   5.855  0.0118  0.3164  0.2597
  143OSM   H13A15653   0.126   5.941   5.853 -0.4853 -0.1596 -1.4069
  143OSM   H13B15654   0.167   5.779   5.909 -1.1354  0.3179 -0.4426
  143OSM   H13C15655   0.227   5.842   5.752  0.3892 -0.2019  0.4617
  143OSM    C1215656   0.432   5.811   5.957 -0.2409 -0.0070 -0.3780
  143OSM   H12A15657   0.479   5.780   5.865  0.0309 -1.4912  0.2190
  143OSM   H12B15658   0.387   5.717   5.987 -0.5880  0.2630 -0.0356
  143OSM    C1115659   0.550   5.849   6.057  0.0665  0.4056  0.1502
  143OSM   H11A15660   0.611   5.756   6.058  1.2333  1.0629 -2.2109
  143OSM   H11B15661   0.525   5.850   6.166  3.3874 -1.2624  1.0881
  143OSM      P15662   0.787   5.983   6.042 -0.1434  0.5586 -0.2713
  143OSM    O1315663   0.871   5.891   5.958 -0.4498 -0.1977 -0.3549
  143OSM    O1415664   0.814   6.128   6.019  0.3205  0.4400  0.5627
  143OSM    O1115665   0.806   5.944   6.191  0.0603 -0.0406  0.1885
  143OSM    O1215666   0.627   5.962   6.016 -0.2380  0.2033  0.7057
  143OSM    C1S15667   0.749   6.037   6.291 -0.0834  0.0670 -0.2660
  143OSM    H1S15668   0.640   6.058   6.281 -0.2587  0.3407  1.8729
  143OSM    H1T15669   0.805   6.132   6.285  0.3572 -0.2572 -2.7492
  143OSM     NF15670   0.710   6.068   6.531 -0.4286 -0.4982 -0.7625
  143OSM    HNF15671   0.769   6.126   6.586 -0.3244 -1.5809  0.3055
  143OSM    C2S15672   0.770   5.979   6.433 -0.0848  1.2620 -0.1515
  143OSM    H2S15673   0.715   5.882   6.440  2.2702 -0.2543 -1.3184
  143OSM    C3S15674   0.921   5.953   6.452 -0.5839  0.0515 -0.7375
  143OSM    H3S15675   0.980   6.047   6.445  0.0605 -0.3209 -0.4192
  143OSM     O315676   0.994   5.873   6.356 -0.9781 -0.4790  0.0250
  143OSM    HO315677   0.940   5.886   6.277  0.3039  1.0303 -0.6729
  143OSM    C4S15678   0.930   5.905   6.597  0.6740 -0.1551 -0.4640
  143OSM    H4S15679   0.898   5.983   6.668  1.4805  1.5822 -1.9104
  143OSM    C5S15680   0.967   5.783   6.628  0.9502  0.8580  0.2323
  143OSM    H5S15681   0.990   5.712   6.547  0.4895 -0.2760  1.0669
  143OSM    C6S15682   0.979   5.730   6.760 -0.4603  0.0979 -0.3490
  143OSM    H6S15683   1.080   5.685   6.753  0.3142  1.9225 -1.9442
  143OSM    H6T15684   0.904   5.651   6.777 -0.2700  0.2918  1.6222
  143OSM    C7S15685   0.986   5.815   6.893  0.1813 -0.4113  0.3479
  143OSM    H7S15686   0.894   5.872   6.917  2.0280  2.1461  1.7295
  143OSM    H7T15687   1.060   5.889   6.857 -0.7007  0.5054  0.3725
  143OSM    C8S15688   1.028   5.751   7.021  0.5533 -0.0004  0.2014
  143OSM    H8S15689   1.041   5.819   7.108  1.5523  0.5104 -0.3250
  143OSM    H8T15690   1.133   5.714   7.019  1.3514  2.1095  0.5070
  143OSM    C9S15691   0.936   5.636   7.062 -0.6881  0.7290 -0.5570
  143OSM    H9S15692   0.929   5.564   6.978  3.5384 -2.3704  1.3223
  143OSM    H9T15693   0.835   5.676   7.082 -1.3262 -0.2487 -1.6869
  143OSM   C10S15694   0.998   5.569   7.192  0.5046 -0.0183 -0.0426
  143OSM   H10S15695   1.004   5.652   7.265  1.6366  2.2442 -2.5387
  143OSM   H10T15696   1.107   5.549   7.179  0.8257  1.5542  0.0834
  143OSM   C11S15697   0.915   5.446   7.243 -0.0902  0.1116  0.3315
  143OSM   H11S15698   0.920   5.365   7.167  0.6898 -1.2561  1.7835
  143OSM   H11T15699   0.812   5.487   7.237 -0.6982 -1.1966  1.2537
  143OSM   C12S15700   0.938   5.398   7.385 -0.6054  0.4253  0.6828
  143OSM   H12S15701   1.027   5.331   7.378 -1.2975 -0.6633  1.9162
  143OSM   H12T15702   0.859   5.328   7.420  0.4120 -1.1437 -0.0384
  143OSM   C13S15703   0.967   5.506   7.490  0.9397  1.6066 -0.6113
  143OSM   H13S15704   0.891   5.586   7.497 -1.4389 -0.6403  2.8934
  143OSM   H13T15705   1.064   5.558   7.478  2.1638 -0.1575  0.9588
  143OSM   C14S15706   0.954   5.444   7.634 -0.0244 -0.1430  0.5161
  143OSM   H14S15707   0.992   5.340   7.637 -0.9858 -0.4837  1.4515
  143OSM   H14T15708   0.845   5.434   7.658 -0.3618 -1.0539 -1.2840
  143OSM   C15S15709   0.998   5.544   7.744  0.0705 -0.2568 -0.4551
  143OSM   H15S15710   0.960   5.500   7.838 -2.8265  1.2141 -0.8088
  143OSM   H15T15711   0.939   5.637   7.728  1.8198  0.9688 -0.0690
  143OSM   C16S15712   1.151   5.572   7.742  0.2275 -0.1824 -0.2843
  143OSM   H16S15713   1.181   5.609   7.641  0.0505  1.1597  0.1248
  143OSM   H16T15714   1.200   5.474   7.761  0.1435 -0.5593 -1.8651
  143OSM   C17S15715   1.208   5.667   7.844 -0.0950  0.3693  0.3334
  143OSM   H17S15716   1.310   5.631   7.871 -0.4927 -0.1715  1.1298
  143OSM   H17T15717   1.154   5.651   7.939 -2.7172 -1.2538 -1.3184
  143OSM   C18S15718   1.223   5.805   7.781  0.1517  0.2025  0.3110
  143OSM   H18S15719   1.128   5.852   7.747  0.3648  0.7525  0.4533
  143OSM   H18T15720   1.295   5.798   7.697  1.1105 -0.4446  1.1630
  143OSM   H18U15721   1.266   5.876   7.856  1.9766  0.4729 -0.9412
  143OSM    C1F15722   0.577   6.074   6.555 -0.2646  0.1579 -0.1667
  143OSM     OF15723   0.491   6.029   6.479  0.1233  1.0126  0.2360
  143OSM    C2F15724   0.530   6.134   6.685  0.0305 -0.2328 -0.1127
  143OSM    H2F15725   0.491   6.233   6.655  1.6030  0.0534 -1.2869
  143OSM    H2G15726   0.602   6.136   6.769 -0.6022 -2.0395  0.5272
  143OSM    C3F15727   0.398   6.073   6.754 -0.3607 -0.4426  0.2219
  143OSM    H3F15728   0.317   6.075   6.678  0.4529 -2.2617 -0.7603
  143OSM    H3G15729   0.366   6.140   6.837 -1.5362  0.0836 -0.6301
  143OSM    C4F15730   0.427   5.937   6.811 -0.5370 -0.0430  0.0162
  143OSM    H4F15731   0.452   5.865   6.730 -1.1081  0.3181 -0.4827
  143OSM    H4G15732   0.332   5.899   6.854 -1.8021  0.7860 -1.9251
  143OSM    C5F15733   0.538   5.919   6.918  0.8149  0.4090 -0.7986
  143OSM    H5F15734   0.526   6.005   6.988 -3.7321  0.2937 -1.1018
  143OSM    H5G15735   0.639   5.929   6.874  1.9312  2.4116  1.9403
  143OSM    C6F15736   0.531   5.780   6.997 -0.7809 -0.0269 -0.4200
  143OSM    H6F15737   0.423   5.757   7.011 -0.8200  0.4803  0.1580
  143OSM    H6G15738   0.587   5.789   7.092  0.6960 -0.8739 -1.1857
  143OSM    C7F15739   0.586   5.666   6.918 -0.1301 -0.0051  0.2034
  143OSM    H7F15740   0.690   5.693   6.890 -0.0584 -1.1999 -0.7742
  143OSM    H7G15741   0.533   5.653   6.821  3.9944  0.3600 -2.3822
  143OSM    C8F15742   0.591   5.537   6.997 -0.3650  0.1450 -0.3530
  143OSM    H8F15743   0.655   5.551   7.086 -0.5662  0.0298 -0.1896
  143OSM    H8G15744   0.646   5.464   6.934  1.8687  1.3486  0.0909
  143OSM    C9F15745   0.447   5.492   7.031 -0.1494  0.0045 -0.4892
  143OSM    H9F15746   0.379   5.509   6.947  1.7219  2.3635 -1.6688
  143OSM   C10F15747   0.405   5.464   7.154  0.3771 -0.2266  0.5217
  143OSM   H10F15748   0.296   5.455   7.162  0.4854 -2.5001  0.1598
  143OSM   C11F15749   0.487   5.464   7.282 -0.2247 -0.1398  0.2052
  143OSM   H11F15750   0.472   5.566   7.324  0.1427 -0.4217  1.0331
  143OSM   H11G15751   0.592   5.440   7.256 -1.0861  0.1621 -4.5556
  143OSM   C12F15752   0.445   5.364   7.393 -0.1070  0.1946 -0.2631
  143OSM   H12F15753   0.457   5.264   7.347  0.0628 -0.5358  1.3087
  143OSM   H12G15754   0.335   5.376   7.409 -0.3112 -0.8062 -0.8575
  143OSM   C13F15755   0.522   5.374   7.522  0.1883 -0.5091  0.2739
  143OSM   H13F15756   0.518   5.479   7.560 -3.0575  0.8273 -3.1374
  143OSM   H13G15757   0.627   5.342   7.506  0.8115  1.3697  0.3511
  143OSM   C14F15758   0.450   5.288   7.628 -0.8065  0.4793 -0.8816
  143OSM   H14F15759   0.446   5.192   7.573 -0.0666 -0.4057  0.5585
  143OSM   H14G15760   0.344   5.312   7.653 -1.5807 -2.8409 -0.4316
  143OSM   C15F15761   0.522   5.266   7.764  0.2584 -0.0799  0.9496
  143OSM   H15F15762   0.616   5.210   7.742  1.1056  2.0085 -1.1781
  143OSM   H15G15763   0.462   5.198   7.828 -1.3489  0.5412  0.1405
  143OSM   C16F15764   0.556   5.399   7.834 -0.9207 -0.0784 -0.8828
  143OSM   H16F15765   0.456   5.446   7.847 -0.2329  0.9262  1.2420
  143OSM   H16G15766   0.614   5.466   7.767  1.4427  0.1572  1.2495
  143OSM   C17F15767   0.624   5.386   7.973  0.3388 -0.0729  0.0280
  143OSM   H17F15768   0.561   5.321   8.038 -0.1662  0.3087 -0.0795
  143OSM   H17G15769   0.621   5.494   7.998 -1.7588 -0.1856  0.4128
  143OSM   C18F15770   0.760   5.317   7.979 -0.9645  0.4138 -0.5268
  143OSM   H18F15771   0.758   5.217   7.931  0.1212 -1.1853  2.4889
  143OSM   H18G15772   0.770   5.287   8.086 -1.1484 -1.2874 -0.9692
  143OSM   H18H15773   0.851   5.371   7.946  0.1730  0.4569  2.3397
  144OSM      N15774   5.343   2.401   6.359  0.4184  0.9506  0.1481
  144OSM    C1515775   5.440   2.360   6.251 -0.4922 -0.1854 -0.2399
  144OSM   H15A15776   5.478   2.450   6.204 -0.8108  1.2893  2.1738
  144OSM   H15B15777   5.397   2.293   6.178  0.9138 -1.0167 -0.3497
  144OSM   H15C15778   5.521   2.309   6.301 -0.2835  1.0723  0.7784
  144OSM    C1415779   5.411   2.513   6.445  0.3706  0.9482  0.1081
  144OSM   H14A15780   5.481   2.459   6.507  1.3994  0.2674 -1.5864
  144OSM   H14B15781   5.338   2.560   6.509  1.4930  0.3819  1.8952
  144OSM   H14C15782   5.454   2.589   6.383 -1.4820  2.1479  0.2073
  144OSM    C1315783   5.227   2.449   6.281 -0.3064  0.2772  0.1531
  144OSM   H13A15784   5.265   2.512   6.202  0.2106 -3.0204 -2.4444
  144OSM   H13B15785   5.152   2.510   6.330 -1.0347  0.0132 -0.6022
  144OSM   H13C15786   5.175   2.369   6.230  0.1348  0.7228 -1.0177
  144OSM    C1215787   5.301   2.285   6.454 -0.9549 -0.2383 -0.0900
  144OSM   H12A15788   5.243   2.215   6.396 -2.7907  0.8703  0.3139
  144OSM   H12B15789   5.228   2.325   6.524 -0.0676  0.2597  0.5740
  144OSM    C1115790   5.411   2.218   6.545 -0.0708  0.2122  0.4830
  144OSM   H11A15791   5.369   2.165   6.633 -1.1019 -2.3854 -1.4414
  144OSM   H11B15792   5.461   2.310   6.581 -1.5046  0.8701  0.8395
  144OSM      P15793   5.473   1.989   6.435 -0.0802 -0.0710  0.0674
  144OSM    O1315794   5.386   1.993   6.315 -0.5942 -0.3822  0.0145
  144OSM    O1415795   5.598   1.915   6.415 -0.3851  0.3610  0.6041
  144OSM    O1115796   5.405   1.929   6.557  0.1483  0.3551  0.5083
  144OSM    O1215797   5.506   2.137   6.474 -0.4311  0.3651  0.4061
  144OSM    C1S15798   5.365   1.789   6.550  0.2542 -0.2760  0.3258
  144OSM    H1S15799   5.448   1.720   6.525 -0.7482 -0.7485 -1.9371
  144OSM    H1T15800   5.281   1.779   6.478  1.0886  0.5298 -0.7993
  144OSM     NF15801   5.308   1.605   6.706  0.2568 -0.0802  0.3761
  144OSM    HNF15802   5.216   1.573   6.726 -0.0546  1.4255  1.5230
  144OSM    C2S15803   5.313   1.747   6.688 -0.5551 -0.2472 -0.3643
  144OSM    H2S15804   5.391   1.779   6.760 -1.9554 -0.3585  1.2675
  144OSM    C3S15805   5.178   1.820   6.726  0.2148 -0.8360 -0.2002
  144OSM    H3S15806   5.098   1.793   6.654 -0.5256  1.4376 -0.3248
  144OSM     O315807   5.204   1.959   6.724  0.2586 -0.4305 -0.0585
  144OSM    HO315808   5.288   1.963   6.678  1.1875  2.0342  1.6589
  144OSM    C4S15809   5.139   1.783   6.863  0.2480 -0.0495 -0.2039
  144OSM    H4S15810   5.059   1.707   6.861 -1.8405  1.9667  0.8502
  144OSM    C5S15811   5.183   1.828   6.981 -0.4764 -0.4771 -0.7090
  144OSM    H5S15812   5.266   1.899   6.990  0.3130 -1.5623  1.1161
  144OSM    C6S15813   5.127   1.778   7.115  0.5501 -0.6832  0.2933
  144OSM    H6S15814   5.034   1.721   7.097 -0.4275  1.3272 -1.4546
  144OSM    H6T15815   5.110   1.871   7.173  1.3161  0.6221 -1.4818
  144OSM    C7S15816   5.236   1.702   7.188 -0.4789  0.7363  0.3113
  144OSM    H7S15817   5.316   1.775   7.212 -0.3756 -0.0482  2.4915
  144OSM    H7T15818   5.267   1.613   7.130 -1.2036  1.3638 -1.0959
  144OSM    C8S15819   5.182   1.647   7.323  0.3910 -0.7591  0.9729
  144OSM    H8S15820   5.228   1.553   7.360 -0.0553 -0.3642  2.5818
  144OSM    H8T15821   5.078   1.609   7.312  0.0246  0.2033  1.0646
  144OSM    C9S15822   5.185   1.753   7.435 -0.3364 -0.5181  0.2295
  144OSM    H9S15823   5.122   1.836   7.397  1.6309  0.4403 -1.1217
  144OSM    H9T15824   5.290   1.786   7.444 -0.7966  0.9855  0.3380
  144OSM   C10S15825   5.122   1.704   7.567  0.0849 -0.2416 -0.3995
  144OSM   H10S15826   5.195   1.629   7.605 -0.0536  0.7927  2.0918
  144OSM   H10T15827   5.018   1.665   7.552 -0.2529  0.1239  0.9250
  144OSM   C11S15828   5.118   1.817   7.672  0.0021  0.2308 -0.4559
  144OSM   H11S15829   5.074   1.910   7.631  1.6146  0.7933 -0.9891
  144OSM   H11T15830   5.221   1.840   7.706 -0.8923  0.4038  2.3226
  144OSM   C12S15831   5.035   1.766   7.791  0.2232 -0.0987 -0.2009
  144OSM   H12S15832   4.973   1.675   7.776  0.3985 -1.0110  3.6127
  144OSM   H12T15833   4.970   1.854   7.812  2.4640  1.7194 -0.4224
  144OSM   C13S15834   5.118   1.760   7.923  0.3281 -0.1922 -0.1276
  144OSM   H13S15835   5.127   1.863   7.965 -1.2036  0.1164 -0.4847
  144OSM   H13T15836   5.221   1.721   7.908  0.2738  0.4209 -2.5817
  144OSM   C14S15837   5.045   1.684   8.037 -0.1896 -0.3028 -0.0614
  144OSM   H14S15838   5.051   1.580   7.999 -1.7159 -0.4441  0.0036
  144OSM   H14T15839   4.941   1.723   8.038  0.0825  0.4501 -0.5262
  144OSM   C15S15840   5.097   1.684   8.181  0.1766  0.6477 -0.2443
  144OSM   H15S15841   5.117   1.785   8.223 -0.1191  0.4211  0.4593
  144OSM   H15T15842   5.197   1.635   8.176  0.8072  1.9753 -1.4593
  144OSM   C16S15843   4.994   1.596   8.261 -0.1825 -0.1057 -0.3160
  144OSM   H16S15844   5.008   1.492   8.227 -0.1530  0.3168 -1.6780
  144OSM   H16T15845   4.891   1.636   8.249 -0.3108 -0.5486 -0.7233
  144OSM   C17S15846   5.017   1.606   8.412  0.1596  0.0619  0.7286
  144OSM   H17S15847   4.977   1.700   8.456 -1.6032 -0.4854  0.3807
  144OSM   H17T15848   5.123   1.587   8.439  2.1248  4.6497 -2.5074
  144OSM   C18S15849   4.942   1.493   8.484 -0.7846 -0.4523  0.8158
  144OSM   H18S15850   4.945   1.404   8.417 -0.0116 -0.5322  0.9407
  144OSM   H18T15851   4.837   1.510   8.514  0.2833 -0.5781  5.2217
  144OSM   H18U15852   4.978   1.461   8.584  1.1137 -0.7929  0.0635
  144OSM    C1F15853   5.412   1.520   6.703  0.2327 -0.2073  0.1760
  144OSM     OF15854   5.524   1.566   6.729 -0.9691  0.0321 -0.1417
  144OSM    C2F15855   5.393   1.370   6.698  0.2262  0.4352  0.2655
  144OSM    H2F15856   5.390   1.336   6.593  1.4826  0.8823  0.0685
  144OSM    H2G15857   5.295   1.344   6.744  0.1339 -1.1285 -0.7376
  144OSM    C3F15858   5.507   1.283   6.767 -0.0407  0.2017 -0.3468
  144OSM    H3F15859   5.600   1.310   6.711 -1.0268  2.1933 -1.1279
  144OSM    H3G15860   5.485   1.176   6.750  1.7398 -0.6625  2.1009
  144OSM    C4F15861   5.521   1.301   6.918  0.7482 -0.0759  0.7273
  144OSM    H4F15862   5.426   1.280   6.973 -0.5244  0.2406 -1.2567
  144OSM    H4G15863   5.559   1.402   6.944  1.3347 -0.2117  0.4095
  144OSM    C5F15864   5.639   1.216   6.963 -0.0159  0.8531  0.4617
  144OSM    H5F15865   5.736   1.255   6.925  0.2019  1.0059  1.1672
  144OSM    H5G15866   5.623   1.115   6.919  0.8769  0.6307  0.6415
  144OSM    C6F15867   5.659   1.196   7.118  0.4598 -0.2512  0.2791
  144OSM    H6F15868   5.565   1.148   7.152 -0.1485  0.9897  0.3885
  144OSM    H6G15869   5.663   1.293   7.172  1.1280  0.1589 -0.4828
  144OSM    C7F15870   5.782   1.099   7.153 -0.3386  0.2225  0.7395
  144OSM    H7F15871   5.878   1.155   7.154 -0.1164 -0.1582  1.0807
  144OSM    H7G15872   5.794   1.025   7.071 -0.5507 -1.4965  2.1880
  144OSM    C8F15873   5.756   1.027   7.284 -0.1918 -0.3486 -0.0203
  144OSM    H8F15874   5.844   0.965   7.311 -1.0386 -1.0261  1.2687
  144OSM    H8G15875   5.665   0.963   7.279 -1.1760  0.8679  1.3257
  144OSM    C9F15876   5.738   1.124   7.397 -0.1825  0.5246 -0.0261
  144OSM    H9F15877   5.779   1.223   7.373  0.2491  0.3625  0.0225
  144OSM   C10F15878   5.688   1.101   7.517 -0.0291 -0.3898 -0.3219
  144OSM   H10F15879   5.698   1.182   7.591  0.7840  0.4862 -1.3756
  144OSM   C11F15880   5.627   0.965   7.557 -0.1941 -0.4769  0.0867
  144OSM   H11F15881   5.706   0.888   7.549  0.4724  0.2119 -0.0080
  144OSM   H11G15882   5.542   0.941   7.489 -0.2402  2.1316 -0.8705
  144OSM   C12F15883   5.579   0.974   7.707  0.2314  0.8849  0.5320
  144OSM   H12F15884   5.533   0.876   7.731 -0.5404  0.8608 -0.9173
  144OSM   H12G15885   5.501   1.053   7.709  0.7819  1.4181  2.0775
  144OSM   C13F15886   5.683   1.015   7.815  0.5638 -0.0805  0.1182
  144OSM   H13F15887   5.726   1.115   7.792 -1.0834  0.9206  1.1615
  144OSM   H13G15888   5.757   0.933   7.805  2.0201  1.1334  0.7008
  144OSM   C14F15889   5.618   1.030   7.949  0.0662 -0.6296 -0.4728
  144OSM   H14F15890   5.696   1.008   8.025  1.1239 -1.8725 -1.8660
  144OSM   H14G15891   5.560   0.936   7.959  0.5284 -1.0208 -1.3105
  144OSM   C15F15892   5.536   1.158   7.974  0.0651  0.2589 -0.5291
  144OSM   H15F15893   5.461   1.184   7.896  0.7140 -1.8951 -1.9528
  144OSM   H15G15894   5.613   1.236   7.987 -1.0439  0.9479  3.2547
  144OSM   C16F15895   5.453   1.152   8.101  0.1822  0.2362  0.0476
  144OSM   H16F15896   5.504   1.116   8.193 -0.4692  1.5104  0.9423
  144OSM   H16G15897   5.367   1.083   8.085 -0.2733  0.5042  1.2051
  144OSM   C17F15898   5.397   1.298   8.134 -0.6842 -0.9005 -0.1808
  144OSM   H17F15899   5.339   1.335   8.046 -0.7115  1.9722  0.9288
  144OSM   H17G15900   5.478   1.373   8.148 -1.3246 -0.0903 -0.6723
  144OSM   C18F15901   5.315   1.306   8.261 -0.1400 -0.5898  0.5559
  144OSM   H18F15902   5.232   1.233   8.266 -0.4660 -0.1360  2.4781
  144OSM   H18G15903   5.273   1.408   8.276  1.3100 -0.1838  2.2413
  144OSM   H18H15904   5.376   1.281   8.351 -0.0785  1.7413  1.2241
  145SAPE     N15905   5.285   1.079  10.720 -0.5770  0.6833  0.6721
  145SAPE   HN115906   5.335   1.029  10.644 -0.2766  1.5946  0.2715
  145SAPE   HN215907   5.343   1.159  10.751  0.9375 -0.1979  0.2401
  145SAPE   HN315908   5.273   1.017  10.803  2.4506  0.7902  1.2810
  145SAPE   C1215909   5.165   1.155  10.668  0.4993  0.3131 -0.4457
  145SAPE  H12A15910   5.080   1.090  10.698  1.5269 -1.3099 -0.8870
  145SAPE  H12B15911   5.158   1.152  10.557  0.4361 -0.0046 -0.4343
  145SAPE   C1115912   5.147   1.305  10.714  0.4277  0.0320  0.6200
  145SAPE  H11A15913   5.241   1.360  10.692 -0.5649  1.4559 -0.2404
  145SAPE  H11B15914   5.129   1.302  10.824  0.2673 -0.8200  0.5750
  145SAPE     P15915   4.890   1.349  10.685 -0.3525 -0.1879  0.5194
  145SAPE   O1315916   4.867   1.204  10.715  0.5740 -0.1444 -0.0107
  145SAPE   O1415917   4.849   1.438  10.794 -0.6555 -0.1406  0.2545
  145SAPE   O1215918   5.041   1.367  10.645  0.4283 -0.3125  0.0466
  145SAPE   O1115919   4.820   1.398  10.548  0.0606  0.1571 -0.1152
  145SAPE    C115920   4.830   1.319  10.425 -0.4780 -0.1256  0.1229
  145SAPE    HA15921   4.936   1.290  10.412  0.6265  3.6980 -0.8586
  145SAPE    HB15922   4.766   1.229  10.428  2.0827 -2.0294  2.6264
  145SAPE    C215923   4.807   1.413  10.304 -0.5975  0.2247  0.5931
  145SAPE    HS15924   4.704   1.454  10.310 -0.8268  0.1990 -2.0594
  145SAPE   O2115925   4.815   1.333  10.180  0.7370 -0.2881  0.3358
  145SAPE   C2115926   4.725   1.240  10.155 -0.3165  0.4087 -0.6593
  145SAPE   O2215927   4.637   1.205  10.229 -0.2714  1.0218 -0.0101
  145SAPE   C2215928   4.741   1.189  10.013  0.1206 -0.4943  0.1385
  145SAPE   H2R15929   4.781   1.275   9.955 -1.4790 -1.0526 -1.9313
  145SAPE   H2S15930   4.810   1.102  10.011  0.8124  0.0297 -1.8918
  145SAPE    C315931   4.907   1.527  10.296 -0.0005  0.1329  0.3311
  145SAPE    HX15932   5.003   1.472  10.298 -0.0447  0.0251 -0.2698
  145SAPE    HY15933   4.905   1.597  10.382  4.5663  0.4832  0.3802
  145SAPE   O3115934   4.896   1.595  10.166 -0.2610 -0.0332 -0.7393
  145SAPE   C3115935   4.788   1.669  10.151 -0.4708 -0.3232  0.6348
  145SAPE   O3215936   4.706   1.695  10.233 -0.0560  0.9288  0.1910
  145SAPE   C3215937   4.788   1.725  10.007  0.7049 -0.0593  0.0213
  145SAPE   H2X15938   4.874   1.794   9.993  1.7068 -1.4579 -1.0693
  145SAPE   H2Y15939   4.692   1.779   9.998  0.3663 -0.5749  0.4715
  145SAPE   C2315940   4.605   1.143   9.955 -0.1620  0.7340 -1.2103
  145SAPE   H3R15941   4.543   1.230   9.922 -3.4004  0.2206  2.7088
  145SAPE   H3S15942   4.553   1.093  10.039 -0.3423 -0.4546 -2.0010
  145SAPE   C2415943   4.638   1.043   9.834  0.3192  0.2793 -0.4429
  145SAPE   H4R15944   4.554   0.974   9.812  0.4101  0.8067 -2.6497
  145SAPE   H4S15945   4.714   0.969   9.866 -0.4341 -1.0591 -1.6393
  145SAPE   C2515946   4.675   1.112   9.707  0.4234  0.3965 -0.8060
  145SAPE   H5R15947   4.593   1.181   9.682 -1.4363 -0.3987  2.4617
  145SAPE   C2615948   4.778   1.084   9.625 -0.4305  0.8679  0.1410
  145SAPE   H6R15949   4.784   1.143   9.532 -1.7613 -1.4305 -1.4967
  145SAPE   C2715950   4.892   0.983   9.645 -1.0277 -0.7038  0.7406
  145SAPE   H7R15951   4.957   0.982   9.555 -1.1445 -3.7022  0.6127
  145SAPE   H7S15952   4.848   0.881   9.644  0.9667 -1.5935 -0.1093
  145SAPE   C2815953   4.981   1.015   9.771 -0.2985 -0.4772  0.3091
  145SAPE   H8R15954   4.948   1.097   9.837  1.6446  0.6221 -0.0040
  145SAPE   C2915955   5.104   0.973   9.789 -0.2129  0.1444 -0.1629
  145SAPE   H9R15956   5.167   1.007   9.873  0.1870 -1.5166  0.2515
  145SAPE  C21015957   5.174   0.882   9.689 -0.4223 -0.0106 -0.4840
  145SAPE  H10R15958   5.111   0.803   9.642 -0.0780 -1.1330  0.8769
  145SAPE  H10S15959   5.267   0.837   9.728  0.2783  1.8468  0.0849
  145SAPE  C21115960   5.239   0.956   9.578  0.1550  0.6766  0.2185
  145SAPE  H11R15961   5.297   1.039   9.622  0.5166  0.0237  1.0035
  145SAPE  C21215962   5.225   0.945   9.445 -0.3840 -0.4484 -0.0037
  145SAPE  H12R15963   5.285   1.004   9.375  1.2315 -0.5603  1.2268
  145SAPE  C21315964   5.133   0.849   9.372  0.4124 -0.2107  0.4458
  145SAPE  H13R15965   5.082   0.908   9.293  0.5114  2.9725  2.5789
  145SAPE  H13S15966   5.049   0.823   9.439 -0.7527 -0.0830 -0.9167
  145SAPE  C21415967   5.197   0.726   9.324 -0.7045  0.0685 -0.3058
  145SAPE  H14R15968   5.214   0.653   9.404  0.4336  1.6293  0.9443
  145SAPE  C21515969   5.262   0.726   9.207  0.4957 -0.3961 -0.3033
  145SAPE  H15R15970   5.329   0.643   9.180  0.9439  0.6033 -2.4801
  145SAPE  C21615971   5.274   0.826   9.088  0.0542 -0.8232 -0.3404
  145SAPE  H16R15972   5.378   0.846   9.054 -0.0402  0.7760  0.2181
  145SAPE  H16S15973   5.227   0.923   9.113  0.4894 -0.6089 -0.3535
  145SAPE  C21715974   5.206   0.770   8.961 -0.0454 -0.2553 -0.2544
  145SAPE  H17R15975   5.245   0.669   8.935 -0.3515  0.2178 -2.8320
  145SAPE  H17S15976   5.234   0.829   8.872 -0.9113  0.4389 -0.0881
  145SAPE  C21815977   5.053   0.758   8.970 -0.3240 -1.3458 -0.3480
  145SAPE  H18R15978   5.015   0.860   8.992  1.8177 -0.6098  0.1955
  145SAPE  H18S15979   5.033   0.681   9.048  0.5555 -1.6715 -0.4392
  145SAPE  C21915980   5.000   0.695   8.844  1.0934 -0.0037  0.6606
  145SAPE  H19R15981   5.049   0.596   8.835  2.1325  0.6783 -2.0312
  145SAPE  H19S15982   5.035   0.757   8.759  2.3129 -1.1671  0.2891
  145SAPE  C22015983   4.848   0.681   8.833  0.6019  0.0418  0.2495
  145SAPE  H20R15984   4.805   0.668   8.934 -1.3581  0.1064 -0.5257
  145SAPE  H20S15985   4.810   0.589   8.783 -1.1548  1.2914 -0.8239
  145SAPE  H20T15986   4.803   0.771   8.785  0.2827 -0.5910 -0.6741
  145SAPE   C3315987   4.784   1.606   9.909 -0.3564 -0.2581  0.1302
  145SAPE   H3X15988   4.703   1.534   9.936 -0.1840 -0.2807  0.5965
  145SAPE   H3Y15989   4.885   1.559   9.903 -0.5051 -0.7699  1.2680
  145SAPE   C3415990   4.735   1.660   9.767 -0.1847 -0.2187 -0.5650
  145SAPE   H4X15991   4.787   1.758   9.766 -0.4555  0.1831  4.0942
  145SAPE   H4Y15992   4.625   1.677   9.773  0.1669  1.7800  1.7094
  145SAPE   C3515993   4.776   1.565   9.660 -0.2661  0.7870  0.3650
  145SAPE   H5X15994   4.740   1.464   9.690 -0.7296 -0.3513 -3.4977
  145SAPE   H5Y15995   4.884   1.567   9.635 -0.0430 -3.1232  0.2922
  145SAPE   C3615996   4.705   1.605   9.531 -0.2836  0.0053  0.3428
  145SAPE   H6X15997   4.756   1.701   9.506 -0.2236  0.7072  2.8249
  145SAPE   H6Y15998   4.597   1.615   9.555 -0.0562  0.2721  1.3019
  145SAPE   C3715999   4.710   1.506   9.407  0.1110  0.2780 -0.3919
  145SAPE   H7X16000   4.628   1.432   9.420 -0.2165  0.6859 -0.0988
  145SAPE   H7Y16001   4.807   1.454   9.421  0.7246  1.1762 -1.1922
  145SAPE   C3816002   4.712   1.571   9.266  0.3750  0.6368 -0.6023
  145SAPE   H8X16003   4.792   1.647   9.258  0.4166  0.7010  0.3539
  145SAPE   H8Y16004   4.614   1.623   9.257 -0.3584 -0.3461  1.1031
  145SAPE   C3916005   4.724   1.464   9.161 -0.4305 -0.1935  0.6408
  145SAPE   H9X16006   4.664   1.376   9.193 -0.3785  0.5273  2.9436
  145SAPE   H9Y16007   4.831   1.434   9.160 -0.4135 -0.1556  1.0217
  145SAPE  C31016008   4.689   1.523   9.025  0.4385  0.3253  0.2336
  145SAPE  H10X16009   4.751   1.614   9.018 -0.1240  0.6452 -0.7651
  145SAPE  H10Y16010   4.586   1.566   9.026  0.4126  0.4258 -2.0663
  145SAPE  C31116011   4.700   1.428   8.914  0.3596 -0.5138  0.3467
  145SAPE  H11X16012   4.693   1.328   8.960 -0.7894 -1.0201 -0.8515
  145SAPE  H11Y16013   4.798   1.443   8.865  0.6223  0.8280  1.2266
  145SAPE  C31216014   4.592   1.430   8.801  0.5601 -0.3764 -0.1749
  145SAPE  H12X16015   4.491   1.427   8.847 -0.4601 -1.6688 -2.3180
  145SAPE  H12Y16016   4.604   1.336   8.742 -2.6663 -1.4792  0.7079
  145SAPE  C31316017   4.588   1.565   8.722  1.2268  0.7403  0.2109
  145SAPE  H13X16018   4.690   1.609   8.720  0.5973  2.2323 -0.9992
  145SAPE  H13Y16019   4.521   1.634   8.777 -2.4979 -2.2500 -0.1735
  145SAPE  C31416020   4.526   1.565   8.580  0.1375 -0.2984 -0.1297
  145SAPE  H14X16021   4.427   1.515   8.580 -0.6464  1.2012 -0.7615
  145SAPE  H14Y16022   4.595   1.502   8.519 -0.1568 -0.0785 -0.7017
  145SAPE  C31516023   4.523   1.704   8.515  0.5932  0.1096  0.3569
  145SAPE  H15X16024   4.626   1.745   8.508  0.8989 -0.5041  1.1907
  145SAPE  H15Y16025   4.450   1.764   8.573  1.7680  1.7645  0.2102
  145SAPE  C31616026   4.457   1.700   8.375  0.5486 -0.5898 -0.0295
  145SAPE  H16X16027   4.532   1.666   8.300 -0.8250 -0.9851 -1.2638
  145SAPE  H16Y16028   4.434   1.808   8.360 -1.0966 -0.3741  3.0932
  145SAPE  C31716029   4.313   1.640   8.360 -0.1111 -0.2521 -0.3054
  145SAPE  H17X16030   4.326   1.530   8.358  0.6032 -0.1845  0.3437
  145SAPE  H17Y16031   4.276   1.663   8.258  0.2540  0.4876 -0.2796
  145SAPE  C31816032   4.210   1.678   8.460 -0.3732 -0.4972 -0.5198
  145SAPE  H18X16033   4.107   1.637   8.457 -0.7763  0.5301 -1.5610
  145SAPE  H18Y16034   4.185   1.784   8.442  1.9429  0.2776  0.3643
  145SAPE  H18Z16035   4.247   1.669   8.565 -1.2255  2.1877  0.0734
  146SAPE     N16036   5.557   3.160  11.014  0.3693 -0.1482  0.0251
  146SAPE   HN116037   5.556   3.097  10.931  0.6589  0.7633 -0.6796
  146SAPE   HN216038   5.583   3.104  11.098  1.5313 -3.1560 -2.1688
  146SAPE   HN316039   5.458   3.189  11.031  0.2452  0.3220 -1.4076
  146SAPE   C1216040   5.657   3.273  10.998  0.6687 -0.3909  0.2166
  146SAPE  H12A16041   5.749   3.236  10.948  2.9010  1.3790  2.7183
  146SAPE  H12B16042   5.691   3.303  11.100  2.3077  0.0582 -0.4305
  146SAPE   C1116043   5.597   3.395  10.918 -0.1687  0.2480 -0.4450
  146SAPE  H11A16044   5.506   3.431  10.970  1.1762  1.4402  1.1956
  146SAPE  H11B16045   5.564   3.364  10.817 -1.3321 -0.7509  0.2130
  146SAPE     P16046   5.673   3.639  10.926 -0.3592 -0.1046  0.3446
  146SAPE   O1316047   5.607   3.670  11.058  0.3750  0.1011 -0.0149
  146SAPE   O1416048   5.792   3.717  10.901 -0.5982  0.1576  0.1493
  146SAPE   O1216049   5.711   3.483  10.927 -0.0350 -0.3435  0.0673
  146SAPE   O1116050   5.564   3.649  10.812 -0.8199  0.5052 -0.0797
  146SAPE    C116051   5.588   3.600  10.680 -0.4392 -0.2104 -0.2703
  146SAPE    HA16052   5.694   3.570  10.664 -1.0266 -2.4618 -0.2844
  146SAPE    HB16053   5.536   3.506  10.649  0.5971 -0.3712 -1.6636
  146SAPE    C216054   5.557   3.717  10.576  0.7218 -0.1994 -0.4456
  146SAPE    HS16055   5.604   3.806  10.622 -1.6674  0.3921  1.0444
  146SAPE   O2116056   5.408   3.717  10.581  0.1361  0.2426 -0.4968
  146SAPE   C2116057   5.363   3.843  10.567  0.2387 -0.2052 -0.4107
  146SAPE   O2216058   5.434   3.945  10.568  0.2588 -0.0622 -0.1988
  146SAPE   C2216059   5.208   3.839  10.558 -0.1023  0.5736 -0.0708
  146SAPE   H2R16060   5.165   3.786  10.646 -0.6724  1.0372 -0.0689
  146SAPE   H2S16061   5.172   3.944  10.560 -0.6547  0.3911  1.9096
  146SAPE    C316062   5.607   3.695  10.431  0.3881  0.7484 -0.3256
  146SAPE    HX16063   5.551   3.608  10.389  1.8257  0.8677 -2.6729
  146SAPE    HY16064   5.708   3.650  10.432 -0.5939 -1.6173 -0.3520
  146SAPE   O3116065   5.585   3.804  10.335  0.0355 -0.7575  0.1424
  146SAPE   C3116066   5.668   3.905  10.348  0.6081 -0.5017  0.1126
  146SAPE   O3216067   5.778   3.895  10.401  0.4919  0.0513  0.1051
  146SAPE   C3216068   5.620   4.028  10.266  0.6171  0.0206  0.2520
  146SAPE   H2X16069   5.510   4.042  10.263  0.7763  1.6355  1.1772
  146SAPE   H2Y16070   5.633   4.013  10.156 -2.4641 -0.3035 -0.1633
  146SAPE   C2316071   5.155   3.759  10.434  0.4677  0.4047  0.2313
  146SAPE   H3R16072   5.200   3.659  10.419  0.3046  0.2582  0.6905
  146SAPE   H3S16073   5.187   3.825  10.350 -1.2393  0.4199 -0.4548
  146SAPE   C2416074   5.000   3.750  10.433  0.7327 -0.1493  0.4878
  146SAPE   H4R16075   4.958   3.847  10.467  5.0618  2.6235 -1.1790
  146SAPE   H4S16076   4.971   3.686  10.519 -1.4510  1.3152  0.9264
  146SAPE   C2516077   4.940   3.708  10.301 -0.1246  0.2328  0.4983
  146SAPE   H5R16078   4.907   3.603  10.294 -1.5684  0.6592  0.7398
  146SAPE   C2616079   4.942   3.784  10.187  0.4906  0.0917  0.3535
  146SAPE   H6R16080   4.888   3.752  10.097  2.7169  1.6390 -1.6439
  146SAPE   C2716081   4.999   3.924  10.175  0.1411 -0.0482  0.5679
  146SAPE   H7R16082   5.071   3.946  10.256  1.5364 -2.5220  0.0981
  146SAPE   H7S16083   4.915   3.997  10.179  0.0813 -0.1866  2.5907
  146SAPE   C2816084   5.076   3.947  10.046 -0.1506 -0.1272 -0.2519
  146SAPE   H8R16085   5.185   3.957  10.062  0.1464 -0.6389 -1.7151
  146SAPE   C2916086   5.019   3.955   9.923  1.2152  0.4570  0.2323
  146SAPE   H9R16087   5.083   3.959   9.835 -0.1531  0.0338 -0.8199
  146SAPE  C21016088   4.873   3.957   9.883  0.1614  0.2733 -1.0713
  146SAPE  H10R16089   4.834   4.055   9.850  0.2966  0.1860 -1.4952
  146SAPE  H10S16090   4.797   3.961   9.964 -0.2250  3.0137 -1.4766
  146SAPE  C21116091   4.828   3.845   9.795  0.1629 -0.4338  0.0109
  146SAPE  H11R16092   4.819   3.745   9.840 -1.2812  0.0145  0.7856
  146SAPE  C21216093   4.819   3.851   9.662 -0.4047  0.0344  0.4348
  146SAPE  H12R16094   4.795   3.763   9.601 -0.1194  1.4446 -1.8280
  146SAPE  C21316095   4.869   3.967   9.584  0.0306 -0.0269  1.5460
  146SAPE  H13R16096   4.970   3.944   9.544 -0.2567  0.7880  0.2774
  146SAPE  H13S16097   4.879   4.058   9.648  0.6960  0.6595  0.5044
  146SAPE  C21416098   4.786   4.008   9.461  0.7277  0.3335  0.1431
  146SAPE  H14R16099   4.760   4.115   9.459 -1.4554 -0.1458  0.3831
  146SAPE  C21516100   4.750   3.940   9.351 -0.2512 -0.7271 -0.6523
  146SAPE  H15R16101   4.682   3.997   9.285 -1.2936  0.2201  1.1464
  146SAPE  C21616102   4.783   3.802   9.306  0.5173 -0.1359 -0.4796
  146SAPE  H16R16103   4.693   3.738   9.323 -1.0498  2.3038  1.0067
  146SAPE  H16S16104   4.866   3.761   9.367 -1.9480 -1.2249  2.3953
  146SAPE  C21716105   4.816   3.787   9.157  0.0659 -0.9465  0.1133
  146SAPE  H17R16106   4.765   3.871   9.105 -0.1108 -0.8210  0.4864
  146SAPE  H17S16107   4.781   3.685   9.131 -2.7358 -0.1736  0.5206
  146SAPE  C21816108   4.961   3.803   9.107 -0.9598 -0.3026 -0.9102
  146SAPE  H18R16109   5.029   3.732   9.160 -0.8023 -0.1351 -0.8874
  146SAPE  H18S16110   5.003   3.900   9.140  1.0208 -1.9003  1.6499
  146SAPE  C21916111   4.971   3.780   8.963 -0.3519  0.0816  0.8715
  146SAPE  H19R16112   4.952   3.872   8.903 -3.2004 -0.0711  1.4193
  146SAPE  H19S16113   4.888   3.718   8.923 -2.0980  1.5615  2.0377
  146SAPE  C22016114   5.107   3.736   8.925  0.5137 -1.0731  0.7403
  146SAPE  H20R16115   5.104   3.713   8.817  1.1756 -0.2649  0.5337
  146SAPE  H20S16116   5.141   3.643   8.975  0.2889 -2.0006 -0.7993
  146SAPE  H20T16117   5.182   3.818   8.936 -1.0249  0.2902  1.4894
  146SAPE   C3316118   5.669   4.163  10.304  0.1737 -0.1887  0.0566
  146SAPE   H3X16119   5.780   4.174  10.300  0.0164  2.5547  1.3641
  146SAPE   H3Y16120   5.634   4.182  10.407 -0.0767 -0.0846 -0.0483
  146SAPE   C3416121   5.606   4.277  10.222  0.1344 -0.2385  1.3569
  146SAPE   H4X16122   5.661   4.369  10.250  0.0798  0.1100  0.3356
  146SAPE   H4Y16123   5.502   4.289  10.260 -1.9604 -1.3383 -3.3333
  146SAPE   C3516124   5.621   4.260  10.070  0.8287 -0.7500 -0.3197
  146SAPE   H5X16125   5.537   4.202  10.028  0.0089 -0.2897  0.6508
  146SAPE   H5Y16126   5.717   4.209  10.046  0.5359 -2.0667  1.1525
  146SAPE   C3616127   5.612   4.406  10.006 -0.8313  0.0377  0.3558
  146SAPE   H6X16128   5.679   4.475  10.059  0.5634  1.8305 -3.3607
  146SAPE   H6Y16129   5.506   4.439  10.009 -1.3481 -1.5559  0.7497
  146SAPE   C3716130   5.656   4.409   9.862  0.5023  0.0616  0.2342
  146SAPE   H7X16131   5.592   4.342   9.800 -1.2924  2.5199 -0.7006
  146SAPE   H7Y16132   5.758   4.375   9.834 -0.0173 -0.6965 -0.8375
  146SAPE   C3816133   5.648   4.555   9.814  0.1268 -0.3196  0.1697
  146SAPE   H8X16134   5.698   4.627   9.883 -1.4176  2.1048 -1.1174
  146SAPE   H8Y16135   5.543   4.588   9.821  0.2414  0.9877 -2.7418
  146SAPE   C3916136   5.704   4.562   9.666  0.3332  0.5491 -0.1301
  146SAPE   H9X16137   5.784   4.485   9.664 -0.5697 -0.4134 -0.3730
  146SAPE   H9Y16138   5.734   4.668   9.657  2.4403  0.2248  2.1067
  146SAPE  C31016139   5.603   4.513   9.556 -0.1902  0.1575 -0.3287
  146SAPE  H10X16140   5.508   4.570   9.562 -1.2930 -1.5379 -0.7555
  146SAPE  H10Y16141   5.575   4.405   9.566  0.0490  0.0337 -0.9276
  146SAPE  C31116142   5.649   4.541   9.415  0.2299  0.7067  0.1264
  146SAPE  H11X16143   5.729   4.469   9.389 -1.1022 -0.6890 -0.2683
  146SAPE  H11Y16144   5.680   4.648   9.413  1.2008  0.4297 -0.4496
  146SAPE  C31216145   5.547   4.516   9.306  0.6722  0.7637  0.0479
  146SAPE  H12X16146   5.455   4.575   9.324 -0.4804 -1.3756  1.6754
  146SAPE  H12Y16147   5.513   4.411   9.318 -1.1002  1.2503 -0.3712
  146SAPE  C31316148   5.594   4.549   9.164 -0.1490 -0.0006 -0.1009
  146SAPE  H13X16149   5.635   4.651   9.180  0.2996 -0.2800  0.5763
  146SAPE  H13Y16150   5.502   4.542   9.102  0.7939 -2.6311 -1.3432
  146SAPE  C31416151   5.698   4.451   9.108  0.4297  0.4765 -0.2236
  146SAPE  H14X16152   5.668   4.347   9.133  0.8179  0.3105 -0.4389
  146SAPE  H14Y16153   5.792   4.470   9.162 -1.1309  0.9185  2.5155
  146SAPE  C31516154   5.727   4.482   8.959  0.0148 -0.1855  0.0131
  146SAPE  H15X16155   5.753   4.589   8.948 -0.3279 -0.2103 -1.1726
  146SAPE  H15Y16156   5.637   4.475   8.894  1.5993 -3.9110 -2.1229
  146SAPE  C31616157   5.828   4.391   8.889 -0.3758 -0.0729 -0.4575
  146SAPE  H16X16158   5.786   4.289   8.902 -0.2390  0.1250  2.0184
  146SAPE  H16Y16159   5.925   4.392   8.943 -0.4437  2.1601 -0.2918
  146SAPE  C31716160   5.830   4.420   8.742 -0.8824  0.6071  0.3425
  146SAPE  H17X16161   5.728   4.415   8.700 -0.2222  0.8820 -1.3656
  146SAPE  H17Y16162   5.880   4.331   8.697 -2.5185 -0.6331  0.8776
  146SAPE  C31816163   5.908   4.555   8.721  0.1963  0.0344 -0.2245
  146SAPE  H18X16164   5.860   4.643   8.769 -1.0652 -1.5560  1.5973
  146SAPE  H18Y16165   5.924   4.573   8.612 -0.0204  1.3651 -0.0536
  146SAPE  H18Z16166   6.009   4.541   8.766  0.2339  3.0548  0.8160
  147SAPE     N16167   0.268   1.670  11.117  0.1562 -0.3277 -0.1536
  147SAPE   HN116168   0.362   1.705  11.142 -0.3626  1.3355 -0.3582
  147SAPE   HN216169   0.208   1.753  11.138  0.4208 -0.7826  2.8762
  147SAPE   HN316170   0.242   1.593  11.181 -0.6407 -1.4416 -1.7524
  147SAPE   C1216171   0.280   1.619  10.978  0.0883  0.4721 -0.2592
  147SAPE  H12A16172   0.352   1.535  10.985 -0.2836  0.1542 -0.1850
  147SAPE  H12B16173   0.308   1.699  10.907 -0.2919 -0.4888 -1.5387
  147SAPE   C1116174   0.150   1.561  10.921  1.0879 -0.5399  0.2068
  147SAPE  H11A16175   0.118   1.473  10.981 -4.4730  1.3013  0.4345
  147SAPE  H11B16176   0.179   1.522  10.821  1.3368  0.9604 -0.3335
  147SAPE     P16177   0.030   1.744  10.787 -0.0713 -0.0892  0.5986
  147SAPE   O1316178  -0.091   1.825  10.785 -0.2349 -0.4415 -0.8102
  147SAPE   O1416179   0.160   1.812  10.770  0.2469 -0.2472 -0.0122
  147SAPE   O1216180   0.043   1.658  10.920 -0.2575 -0.1822  0.3108
  147SAPE   O1116181   0.018   1.635  10.665 -0.0515 -0.3207 -0.1498
  147SAPE    C116182  -0.101   1.552  10.652 -0.1743 -0.0499  0.5145
  147SAPE    HA16183  -0.071   1.446  10.665  1.0612 -0.1343 -2.4629
  147SAPE    HB16184  -0.182   1.559  10.729 -1.4459 -0.7315 -0.7099
  147SAPE    C216185  -0.162   1.572  10.512 -0.2312 -0.0251 -0.8079
  147SAPE    HS16186  -0.088   1.530  10.441 -0.6087  0.3266 -1.4261
  147SAPE   O2116187  -0.202   1.710  10.487  0.7123 -0.6026 -0.3814
  147SAPE   C2116188  -0.130   1.774  10.396 -0.1894 -0.3103 -0.2815
  147SAPE   O2216189  -0.029   1.730  10.342 -0.3219 -0.0981 -0.2109
  147SAPE   C2216190  -0.194   1.913  10.371  0.4130 -0.3427 -0.6886
  147SAPE   H2R16191  -0.298   1.903  10.410  0.3960 -2.2513 -1.1205
  147SAPE   H2S16192  -0.148   1.994  10.432  1.2512 -0.7356 -0.7791
  147SAPE    C316193  -0.294   1.488  10.485 -0.5847 -0.0901  0.0735
  147SAPE    HX16194  -0.379   1.537  10.537 -0.2467 -0.7519  1.3064
  147SAPE    HY16195  -0.286   1.392  10.540 -3.0653  0.4139  1.4497
  147SAPE   O3116196  -0.318   1.471  10.343 -0.2422  0.3030  0.1463
  147SAPE   C3116197  -0.253   1.367  10.291  0.2407  0.1010  0.1808
  147SAPE   O3216198  -0.161   1.315  10.352  0.5911 -0.0510 -0.0534
  147SAPE   C3216199  -0.299   1.336  10.149 -0.0177  0.2184  0.3356
  147SAPE   H2X16200  -0.249   1.401  10.073 -0.5196 -2.2963 -2.3405
  147SAPE   H2Y16201  -0.409   1.347  10.148 -0.5453 -3.5658 -0.7611
  147SAPE   C2316202  -0.202   1.947  10.222 -0.8295  0.5346  0.4751
  147SAPE   H3R16203  -0.263   1.866  10.177 -0.0669  1.0831 -1.6546
  147SAPE   H3S16204  -0.105   1.946  10.168 -1.3803 -1.9528 -0.5977
  147SAPE   C2416205  -0.261   2.079  10.186  0.5926  0.2518  0.2135
  147SAPE   H4R16206  -0.248   2.089  10.076  1.5057 -0.1017  0.2791
  147SAPE   H4S16207  -0.211   2.158  10.247 -0.2285  1.0717 -0.1470
  147SAPE   C2516208  -0.407   2.071  10.216  0.3140 -0.2295 -0.6229
  147SAPE   H5R16209  -0.425   2.049  10.322  1.5932 -0.9101 -0.5229
  147SAPE   C2616210  -0.513   2.102  10.135 -0.7880 -0.6635  1.0199
  147SAPE   H6R16211  -0.611   2.065  10.168 -1.3230 -2.2085 -1.9825
  147SAPE   C2716212  -0.510   2.133   9.982 -0.6075  0.2313 -0.4805
  147SAPE   H7R16213  -0.421   2.193   9.956 -0.8513  1.2952  0.9907
  147SAPE   H7S16214  -0.596   2.198   9.959 -0.7527  1.0230  1.9835
  147SAPE   C2816215  -0.518   2.010   9.900  0.0599  0.5886  0.3110
  147SAPE   H8R16216  -0.487   1.919   9.954 -0.1810  2.3489  3.7012
  147SAPE   C2916217  -0.531   1.996   9.772 -0.5088 -0.1521  0.9394
  147SAPE   H9R16218  -0.553   1.897   9.729  0.8501  1.1779 -3.3229
  147SAPE  C21016219  -0.537   2.108   9.666  0.8992 -0.0632 -0.8976
  147SAPE  H10R16220  -0.432   2.143   9.658  1.0474 -0.3172 -0.1470
  147SAPE  H10S16221  -0.606   2.190   9.696  1.8599  0.1531  0.8275
  147SAPE  C21116222  -0.584   2.049   9.535 -0.3314  0.2840  0.7889
  147SAPE  H11R16223  -0.694   2.041   9.531 -0.2549 -0.5210 -0.6518
  147SAPE  C21216224  -0.513   2.005   9.423  0.3820 -0.2157  0.2661
  147SAPE  H12R16225  -0.564   1.957   9.338 -2.2041  1.7262  0.6079
  147SAPE  C21316226  -0.364   2.024   9.411  0.5229  0.0174 -0.7665
  147SAPE  H13R16227  -0.324   1.922   9.429  0.0462  0.0583  0.6245
  147SAPE  H13S16228  -0.319   2.082   9.494 -1.4193  1.0588 -0.3725
  147SAPE  C21416229  -0.324   2.082   9.277  0.3086  0.4519  0.2696
  147SAPE  H14R16230  -0.315   2.192   9.282  0.5745  0.5404 -1.4051
  147SAPE  C21516231  -0.281   2.014   9.167 -0.0388  0.1514 -0.4173
  147SAPE  H15R16232  -0.253   2.060   9.071  1.1079 -1.9071 -1.1249
  147SAPE  C21616233  -0.279   1.862   9.168 -0.7232  0.2030  0.1207
  147SAPE  H16R16234  -0.354   1.822   9.097 -0.7477  0.6223 -0.0957
  147SAPE  H16S16235  -0.304   1.815   9.266  0.5313  0.8805  0.8067
  147SAPE  C21716236  -0.137   1.811   9.129 -0.0499 -0.4817 -0.1196
  147SAPE  H17R16237  -0.060   1.860   9.193 -0.1217 -0.2054 -0.2435
  147SAPE  H17S16238  -0.113   1.843   9.026  0.2958  2.7359  0.8374
  147SAPE  C21816239  -0.115   1.654   9.153  0.7218 -0.8380  0.3386
  147SAPE  H18R16240  -0.177   1.601   9.077  2.0861  0.2152 -1.6192
  147SAPE  H18S16241  -0.134   1.619   9.256  0.0963 -2.6314 -0.3309
  147SAPE  C21916242   0.024   1.612   9.128 -0.0159 -1.0239 -0.0365
  147SAPE  H19R16243   0.084   1.675   9.197 -0.8350  0.4541 -0.6452
  147SAPE  H19S16244   0.064   1.654   9.034  0.0825  1.0986  0.8867
  147SAPE  C22016245   0.054   1.464   9.149 -0.2307 -0.7470 -1.0577
  147SAPE  H20R16246   0.040   1.402   9.058  2.2709 -1.6804 -0.8796
  147SAPE  H20S16247  -0.013   1.422   9.227  2.1805 -1.0337  1.0075
  147SAPE  H20T16248   0.158   1.442   9.181 -0.8728 -0.5588  1.3271
  147SAPE   C3316249  -0.275   1.189  10.113  0.3061  0.2416  0.2796
  147SAPE   H3X16250  -0.335   1.158  10.025  0.5276 -3.0175  1.1731
  147SAPE   H3Y16251  -0.320   1.125  10.192 -3.0720  0.7664 -1.0683
  147SAPE   C3416252  -0.126   1.158  10.073  0.5392  0.0115  0.0632
  147SAPE   H4X16253  -0.115   1.048  10.080 -0.4217 -0.1299 -0.5763
  147SAPE   H4Y16254  -0.064   1.206  10.152 -0.5583  0.3259  0.7594
  147SAPE   C3516255  -0.086   1.209   9.935 -0.0761  0.8400  0.1898
  147SAPE   H5X16256   0.024   1.219   9.923 -0.2542  1.0986 -1.4193
  147SAPE   H5Y16257  -0.128   1.303   9.895 -2.9699 -1.1187 -1.7786
  147SAPE   C3616258  -0.127   1.095   9.834 -0.1084  0.7856 -0.9311
  147SAPE   H6X16259  -0.231   1.065   9.861  0.7333 -1.1040  0.4600
  147SAPE   H6Y16260  -0.058   1.009   9.850 -0.5956  0.7813  1.5913
  147SAPE   C3716261  -0.124   1.137   9.693 -0.5594  0.6035  0.5092
  147SAPE   H7X16262  -0.032   1.197   9.673 -1.2814  1.5674 -0.0000
  147SAPE   H7Y16263  -0.204   1.205   9.656  0.9150  1.9584 -0.3063
  147SAPE   C3816264  -0.120   1.005   9.605 -0.2750  0.4170  0.2332
  147SAPE   H8X16265  -0.217   0.954   9.594 -0.9203  1.8779 -1.2821
  147SAPE   H8Y16266  -0.049   0.933   9.652 -0.3883 -0.0833 -0.3545
  147SAPE   C3916267  -0.077   1.032   9.463 -0.5826 -0.2652  0.0468
  147SAPE   H9X16268   0.031   1.058   9.465 -0.5508 -0.4424  1.5225
  147SAPE   H9Y16269  -0.138   1.110   9.412 -1.9872 -1.6881 -0.5491
  147SAPE  C31016270  -0.114   0.907   9.374  0.4362 -0.0636 -0.8980
  147SAPE  H10X16271  -0.181   0.846   9.438 -0.7258  3.3797  1.4056
  147SAPE  H10Y16272  -0.022   0.850   9.347  0.0668 -1.4623  0.6260
  147SAPE  C31116273  -0.204   0.942   9.250  0.2927  0.1711  0.1166
  147SAPE  H11X16274  -0.154   1.027   9.198 -0.3907  0.1002 -0.6716
  147SAPE  H11Y16275  -0.304   0.977   9.282 -0.7171 -3.7455  1.8337
  147SAPE  C31216276  -0.220   0.818   9.161  0.8888  1.1910 -0.1770
  147SAPE  H12X16277  -0.125   0.761   9.166 -0.2140 -0.7214 -0.2027
  147SAPE  H12Y16278  -0.245   0.847   9.056  1.8340 -0.9817 -1.0440
  147SAPE  C31316279  -0.322   0.711   9.212  0.1839  0.6005 -0.4359
  147SAPE  H13X16280  -0.301   0.691   9.320 -1.5260 -2.9296 -0.6203
  147SAPE  H13Y16281  -0.313   0.610   9.168 -0.9214  1.0172 -1.6948
  147SAPE  C31416282  -0.472   0.752   9.198 -0.4123  0.1297 -0.7529
  147SAPE  H14X16283  -0.499   0.847   9.249 -2.8843  0.7290 -2.9886
  147SAPE  H14Y16284  -0.532   0.673   9.248 -0.3774  0.5193 -0.0870
  147SAPE  C31516285  -0.520   0.769   9.051 -0.7289  0.3922 -0.6906
  147SAPE  H15X16286  -0.451   0.829   8.987  0.8168  2.8280  2.9483
  147SAPE  H15Y16287  -0.608   0.837   9.051 -0.9514  0.1252  0.3329
  147SAPE  C31616288  -0.564   0.640   8.982  0.2945  0.8678  1.2419
  147SAPE  H16X16289  -0.661   0.602   9.019 -1.9089  1.4146 -3.3290
  147SAPE  H16Y16290  -0.481   0.567   8.994 -1.8799 -1.6980  1.5124
  147SAPE  C31716291  -0.583   0.667   8.837  0.4263  0.1550  0.4659
  147SAPE  H17X16292  -0.592   0.565   8.793  0.2057  0.5101 -0.3172
  147SAPE  H17Y16293  -0.484   0.706   8.806  0.6750  1.0684  2.2400
  147SAPE  C31816294  -0.704   0.751   8.793 -0.2315 -0.0469 -0.1705
  147SAPE  H18X16295  -0.796   0.701   8.829  0.3607 -0.5181  0.7398
  147SAPE  H18Y16296  -0.697   0.761   8.682 -0.6833 -1.7265 -0.3900
  147SAPE  H18Z16297  -0.696   0.851   8.840  2.1039  0.4779 -1.5205
  148SAPE     N16298   0.588   2.440  10.845  0.0271 -0.2421 -0.1703
  148SAPE   HN116299   0.606   2.338  10.857  0.7547  0.1617  3.2405
  148SAPE   HN216300   0.667   2.490  10.891  0.3009 -0.6721 -0.1746
  148SAPE   HN316301   0.497   2.457  10.893  0.4625  2.1133 -0.0768
  148SAPE   C1216302   0.590   2.494  10.706  0.3786 -0.2673  0.5035
  148SAPE  H12A16303   0.515   2.430  10.653  0.7402  1.1066 -1.7769
  148SAPE  H12B16304   0.690   2.473  10.663 -0.3089 -0.4418 -1.0851
  148SAPE   C1116305   0.552   2.648  10.703 -0.0368  0.8687 -0.9248
  148SAPE  H11A16306   0.456   2.650  10.758 -0.2456  0.9569 -1.2934
  148SAPE  H11B16307   0.542   2.665  10.594  0.0346 -1.1341 -1.2772
  148SAPE     P16308   0.784   2.763  10.682  0.0581  0.4057 -0.1387
  148SAPE   O1316309   0.855   2.851  10.767 -0.0054 -0.4357 -0.0779
  148SAPE   O1416310   0.857   2.640  10.643  0.3340 -0.1771 -0.0550
  148SAPE   O1216311   0.653   2.724  10.767  0.4811  0.0093  0.1896
  148SAPE   O1116312   0.740   2.831  10.543  0.3586 -0.7307 -0.5490
  148SAPE    C116313   0.698   2.968  10.539 -0.6139 -0.4248 -0.3792
  148SAPE    HA16314   0.766   3.022  10.608 -1.1714  0.9080 -0.8415
  148SAPE    HB16315   0.717   3.006  10.436  1.7963  0.8363  0.4612
  148SAPE    C216316   0.554   2.991  10.587  0.8505  0.0538  0.4119
  148SAPE    HS16317   0.549   2.969  10.696  1.4030 -0.8774  0.2507
  148SAPE   O2116318   0.468   2.912  10.500 -0.1385 -0.2244  0.4328
  148SAPE   C2116319   0.349   2.863  10.529 -0.0044  0.4675 -0.5993
  148SAPE   O2216320   0.292   2.895  10.633  1.0312 -0.1509 -0.1295
  148SAPE   C2216321   0.301   2.772  10.424 -0.3224 -0.9008 -0.3639
  148SAPE   H2R16322   0.266   2.837  10.341 -0.1682  0.1154  0.3517
  148SAPE   H2S16323   0.383   2.705  10.390  1.7554  0.9507  0.7187
  148SAPE    C316324   0.508   3.139  10.565  0.2754 -0.4134 -0.2190
  148SAPE    HX16325   0.566   3.203  10.634 -1.3303  1.0009 -0.1196
  148SAPE    HY16326   0.401   3.146  10.596  0.2201 -0.4218 -0.4057
  148SAPE   O3116327   0.542   3.183  10.434 -0.0970 -0.2639 -0.0718
  148SAPE   C3116328   0.446   3.174  10.344  0.1664 -0.3096 -0.0684
  148SAPE   O3216329   0.329   3.128  10.367 -0.5256  0.3111  0.6874
  148SAPE   C3216330   0.491   3.221  10.208  0.0298  0.0362 -0.9008
  148SAPE   H2X16331   0.524   3.327  10.218  1.0537 -0.4845  2.2351
  148SAPE   H2Y16332   0.402   3.212  10.141 -0.3435 -1.6550 -0.2180
  148SAPE   C2316333   0.178   2.692  10.462 -0.2802 -0.8681  0.4397
  148SAPE   H3R16334   0.105   2.756  10.516  1.9314  1.6546  0.6053
  148SAPE   H3S16335   0.197   2.614  10.540 -2.5253 -2.3483 -0.3746
  148SAPE   C2416336   0.107   2.628  10.338 -0.5829 -0.4075 -0.3882
  148SAPE   H4R16337   0.077   2.709  10.267  0.0473 -0.0621 -0.2740
  148SAPE   H4S16338   0.011   2.596  10.384  0.4080 -0.9205  1.4092
  148SAPE   C2516339   0.188   2.523  10.271  0.2957  0.4903  0.0640
  148SAPE   H5R16340   0.234   2.450  10.339  1.9206  0.2822 -1.2112
  148SAPE   C2616341   0.214   2.504  10.143 -0.2305  0.5073  1.4936
  148SAPE   H6R16342   0.282   2.423  10.115 -0.9705  1.3451 -3.6559
  148SAPE   C2716343   0.164   2.585  10.024  0.9780  0.0548  0.0939
  148SAPE   H7R16344   0.084   2.654  10.059  0.8445 -0.3944  0.6991
  148SAPE   H7S16345   0.126   2.522   9.941  2.7481  0.7064 -1.2867
  148SAPE   C2816346   0.277   2.666   9.976 -0.0779  0.2204  0.4400
  148SAPE   H8R16347   0.283   2.764  10.025  1.0069 -0.9235  2.7746
  148SAPE   C2916348   0.381   2.627   9.896  0.5613  0.2809  0.1660
  148SAPE   H9R16349   0.460   2.700   9.873  3.1017 -2.2563  0.2659
  148SAPE  C21016350   0.384   2.486   9.829 -0.0021 -0.3395 -0.4123
  148SAPE  H10R16351   0.323   2.488   9.736  0.9744 -0.1157 -1.0654
  148SAPE  H10S16352   0.338   2.413   9.900 -1.2478 -1.3003 -2.1427
  148SAPE  C21116353   0.522   2.435   9.806  0.1618  0.1244 -0.4794
  148SAPE  H11R16354   0.570   2.395   9.897  0.4385  2.6359  0.5683
  148SAPE  C21216355   0.600   2.444   9.698  0.3695 -0.4929 -0.6859
  148SAPE  H12R16356   0.705   2.410   9.697  0.8646  0.8435  1.1294
  148SAPE  C21316357   0.547   2.503   9.562  0.3985  0.3119  0.4127
  148SAPE  H13R16358   0.533   2.612   9.574 -0.8638  0.1546  0.5049
  148SAPE  H13S16359   0.445   2.464   9.540 -0.1370  2.0437 -0.3811
  148SAPE  C21416360   0.645   2.472   9.452  0.0380  1.5862  0.0899
  148SAPE  H14R16361   0.739   2.425   9.484 -0.4373 -0.5749 -1.4076
  148SAPE  C21516362   0.627   2.496   9.322 -0.2184 -0.1905 -0.4636
  148SAPE  H15R16363   0.713   2.474   9.258 -0.7950 -0.7012 -1.0646
  148SAPE  C21616364   0.512   2.568   9.247 -0.0406  0.5486 -0.6240
  148SAPE  H16R16365   0.557   2.656   9.197  2.0818  1.0692  1.9558
  148SAPE  H16S16366   0.440   2.612   9.320 -3.4578 -0.3450 -3.2093
  148SAPE  C21716367   0.449   2.478   9.138  0.3253  0.5412  0.6635
  148SAPE  H17R16368   0.365   2.527   9.083  0.1486  2.2043  2.3152
  148SAPE  H17S16369   0.399   2.398   9.196 -1.2395  0.8016 -0.2608
  148SAPE  C21816370   0.546   2.409   9.046  0.1459 -0.3530  0.2537
  148SAPE  H18R16371   0.499   2.344   8.969  0.3126 -0.7762  0.5019
  148SAPE  H18S16372   0.621   2.348   9.101 -1.5109 -1.1017  1.7667
  148SAPE  C21916373   0.619   2.509   8.956 -0.0403 -0.0306  0.5665
  148SAPE  H19R16374   0.669   2.584   9.021  1.1826 -0.9441  0.7102
  148SAPE  H19S16375   0.537   2.561   8.901 -0.2190  2.1243  2.6733
  148SAPE  C22016376   0.726   2.465   8.866 -0.4029  0.5778 -0.2021
  148SAPE  H20R16377   0.821   2.465   8.923 -0.7362 -2.4013  0.5174
  148SAPE  H20S16378   0.742   2.527   8.776 -0.3523  3.2637  1.5444
  148SAPE  H20T16379   0.719   2.361   8.828  1.5714 -0.0635  1.0239
  148SAPE   C3316380   0.616   3.149  10.158  0.1297 -0.2196  0.9721
  148SAPE   H3X16381   0.676   3.117  10.246  2.1763 -0.4147 -0.4086
  148SAPE   H3Y16382   0.676   3.228  10.107 -0.0125 -0.1640  0.8929
  148SAPE   C3416383   0.588   3.035  10.063 -0.2460  0.8526 -0.0751
  148SAPE   H4X16384   0.515   3.061   9.983  3.3806 -1.6857 -4.7703
  148SAPE   H4Y16385   0.549   2.955  10.128 -1.1100  2.2653  1.2116
  148SAPE   C3516386   0.716   2.994   9.992  0.2190 -0.7513  0.7298
  148SAPE   H5X16387   0.771   2.918  10.051 -1.0013 -1.8085  0.5389
  148SAPE   H5Y16388   0.773   3.089   9.986 -1.1881  0.0981  0.4079
  148SAPE   C3616389   0.686   2.949   9.841  0.0624 -0.3736 -0.5406
  148SAPE   H6X16390   0.653   3.039   9.784  1.5393 -0.6520 -1.8808
  148SAPE   H6Y16391   0.611   2.868   9.836  0.4402 -0.6580 -1.8999
  148SAPE   C3716392   0.817   2.916   9.765  0.3672 -0.0146 -0.0902
  148SAPE   H7X16393   0.870   2.829   9.810  1.0650  1.3491  1.8768
  148SAPE   H7Y16394   0.899   2.990   9.772  0.9301 -0.3084 -2.7346
  148SAPE   C3816395   0.786   2.871   9.619 -0.0496 -0.0912  1.0715
  148SAPE   H8X16396   0.720   2.947   9.571  0.5047 -0.2729 -0.0241
  148SAPE   H8Y16397   0.747   2.768   9.606  1.7091 -0.7594  0.8171
  148SAPE   C3916398   0.912   2.880   9.525  0.2717  0.3863  0.4648
  148SAPE   H9X16399   0.987   2.804   9.559  0.6658 -1.3891 -3.8010
  148SAPE   H9Y16400   0.944   2.985   9.543 -2.8871  1.7137 -0.8817
  148SAPE  C31016401   0.871   2.851   9.384 -0.2558  0.2951 -0.0037
  148SAPE  H10X16402   0.806   2.932   9.344  0.5674  0.4970 -0.9854
  148SAPE  H10Y16403   0.817   2.755   9.391  3.0444 -1.8600 -1.5037
  148SAPE  C31116404   0.992   2.820   9.294  0.4386 -0.0393  0.1052
  148SAPE  H11X16405   1.056   2.741   9.340  0.1781 -0.8465 -0.8836
  148SAPE  H11Y16406   1.064   2.905   9.292  1.8803 -1.2417 -1.3754
  148SAPE  C31216407   0.956   2.794   9.153  0.3689 -0.3307  0.5100
  148SAPE  H12X16408   0.890   2.706   9.135 -1.4739  0.9325  0.7518
  148SAPE  H12Y16409   1.038   2.777   9.081  0.4552 -0.2388  0.5863
  148SAPE  C31316410   0.866   2.910   9.097  0.3894  0.2122  0.4379
  148SAPE  H13X16411   0.911   3.006   9.129  1.4447 -0.6101  1.4989
  148SAPE  H13Y16412   0.768   2.898   9.149  0.5832 -0.4446  0.6675
  148SAPE  C31416413   0.857   2.891   8.952 -0.0023 -0.7376 -0.3864
  148SAPE  H14X16414   0.804   2.795   8.939 -2.1866  0.5102 -1.3994
  148SAPE  H14Y16415   0.951   2.893   8.893  0.2691  0.0205  0.0512
  148SAPE  C31516416   0.782   3.009   8.888  0.0164 -0.1389  0.3718
  148SAPE  H15X16417   0.676   3.022   8.918  0.2650  0.4749  1.0116
  148SAPE  H15Y16418   0.771   2.967   8.786  0.0935  1.7282 -0.4447
  148SAPE  C31616419   0.871   3.133   8.879  0.4074 -0.1879  0.6579
  148SAPE  H16X16420   0.980   3.112   8.888  0.3080 -0.5762  1.0128
  148SAPE  H16Y16421   0.853   3.187   8.975 -0.6036 -0.3410  0.5608
  148SAPE  C31716422   0.855   3.230   8.762  0.0296 -0.1619  0.0750
  148SAPE  H17X16423   0.842   3.330   8.809  0.0699 -0.2816  0.3492
  148SAPE  H17Y16424   0.760   3.208   8.709  1.2081 -2.8422 -1.1181
  148SAPE  C31816425   0.985   3.229   8.674  1.1164 -0.4368  0.0580
  148SAPE  H18X16426   1.071   3.238   8.744 -0.5860  2.1986  2.0073
  148SAPE  H18Y16427   0.976   3.313   8.602 -2.0010  0.6269  1.4997
  148SAPE  H18Z16428   0.995   3.134   8.618 -1.4142 -1.5909  1.3641
  149SAPE     N16429   2.652   4.285  11.136  0.1444  0.0576 -0.3391
  149SAPE   HN116430   2.571   4.350  11.144 -0.5396 -0.7734 -0.3303
  149SAPE   HN216431   2.607   4.203  11.089 -2.0127  1.2168 -0.4081
  149SAPE   HN316432   2.671   4.249  11.232  0.6212  0.9886 -0.0795
  149SAPE   C1216433   2.775   4.322  11.053 -0.1912  0.3658  0.5592
  149SAPE  H12A16434   2.745   4.321  10.946  1.2947  0.7313  0.1273
  149SAPE  H12B16435   2.857   4.249  11.069 -1.0598 -0.8064 -0.0665
  149SAPE   C1116436   2.822   4.464  11.094 -0.4641  0.6634  0.8821
  149SAPE  H11A16437   2.915   4.487  11.038 -1.7744  0.4441 -1.4823
  149SAPE  H11B16438   2.857   4.462  11.200  1.8216 -1.8052  0.2028
  149SAPE     P16439   2.745   4.679  10.977  0.0308 -0.3578  0.0495
  149SAPE   O1316440   2.745   4.803  11.057 -0.1923 -0.4879  0.6408
  149SAPE   O1416441   2.868   4.660  10.895 -0.0626  0.0393 -0.4826
  149SAPE   O1216442   2.720   4.556  11.073  0.4574 -0.0856 -0.6107
  149SAPE   O1116443   2.630   4.676  10.877  0.5225 -0.1905  0.0148
  149SAPE    C116444   2.525   4.581  10.869  0.0303 -0.7644  0.0246
  149SAPE    HA16445   2.518   4.514  10.957 -1.0545  1.0530  1.3804
  149SAPE    HB16446   2.431   4.638  10.856  1.6027  1.6153 -1.7244
  149SAPE    C216447   2.554   4.498  10.746  0.1377 -0.0742  0.0818
  149SAPE    HS16448   2.651   4.444  10.758 -0.8324 -1.5461  1.8394
  149SAPE   O2116449   2.547   4.575  10.624 -0.0419 -0.1562  0.4313
  149SAPE   C2116450   2.655   4.592  10.559 -0.0867  0.2052 -0.0619
  149SAPE   O2216451   2.766   4.548  10.590 -0.3300 -0.2405  0.1038
  149SAPE   C2216452   2.625   4.657  10.426  0.3301 -0.1828 -0.1958
  149SAPE   H2R16453   2.565   4.579  10.375 -1.7007  0.7355  0.7093
  149SAPE   H2S16454   2.567   4.750  10.446  0.7742  0.5004 -1.9037
  149SAPE    C316455   2.434   4.395  10.742 -0.6407 -0.4740 -0.4654
  149SAPE    HX16456   2.346   4.460  10.722  0.4719  1.3546  0.3440
  149SAPE    HY16457   2.433   4.355  10.845  0.7697  0.5548 -0.0126
  149SAPE   O3116458   2.441   4.287  10.647 -0.2336  0.2833 -0.1862
  149SAPE   C3116459   2.344   4.198  10.656 -0.0118  0.8032 -0.4727
  149SAPE   O3216460   2.244   4.198  10.729  0.2059 -0.3007  0.1959
  149SAPE   C3216461   2.381   4.082  10.566 -0.4263 -0.0835  0.4678
  149SAPE   H2X16462   2.477   4.034  10.593  0.1534  1.0780  0.5334
  149SAPE   H2Y16463   2.393   4.115  10.460 -0.2903 -1.3018  0.0896
  149SAPE   C2316464   2.748   4.701  10.342 -0.6110 -0.1021 -0.1569
  149SAPE   H3R16465   2.822   4.619  10.349 -0.7182 -0.1113  1.2370
  149SAPE   H3S16466   2.788   4.785  10.404 -3.3471 -1.0168  3.1299
  149SAPE   C2416467   2.730   4.745  10.194 -0.5857 -0.2227 -0.0432
  149SAPE   H4R16468   2.719   4.653  10.133 -3.1184 -0.6371  0.8779
  149SAPE   H4S16469   2.819   4.804  10.164  0.1052 -2.3910 -2.6780
  149SAPE   C2516470   2.609   4.834  10.165  0.6409 -0.0769  0.6661
  149SAPE   H5R16471   2.586   4.905  10.245  0.0343  1.0665 -0.4907
  149SAPE   C2616472   2.529   4.831  10.057  0.1101  0.6865  0.7682
  149SAPE   H6R16473   2.443   4.900  10.051  0.8763  1.5557 -1.5800
  149SAPE   C2716474   2.546   4.741   9.938 -0.0345 -1.3704  0.7240
  149SAPE   H7R16475   2.444   4.718   9.901 -0.4080  1.2931 -0.1063
  149SAPE   H7S16476   2.591   4.642   9.962  0.9433 -1.0729  0.1222
  149SAPE   C2816477   2.627   4.815   9.825 -0.4764 -0.1684  0.7991
  149SAPE   H8R16478   2.736   4.806   9.833 -0.3393 -1.0429 -1.3591
  149SAPE   C2916479   2.585   4.904   9.734  0.0398 -0.0307 -1.0595
  149SAPE   H9R16480   2.654   4.955   9.665  1.3829 -1.3978 -0.7673
  149SAPE  C21016481   2.444   4.955   9.732 -0.2036  0.4089  0.0041
  149SAPE  H10R16482   2.371   4.910   9.803  1.6786 -0.3954  1.5355
  149SAPE  H10S16483   2.405   4.941   9.629  1.9421 -0.2363 -0.7707
  149SAPE  C21116484   2.449   5.106   9.757 -0.0262  0.4128 -0.1568
  149SAPE  H11R16485   2.437   5.136   9.863 -1.9973  0.0497 -0.2269
  149SAPE  C21216486   2.448   5.193   9.666  0.9761 -0.3900  0.0636
  149SAPE  H12R16487   2.433   5.299   9.691 -2.4360 -0.9285  0.7525
  149SAPE  C21316488   2.438   5.168   9.512 -0.1506 -1.1357  0.7696
  149SAPE  H13R16489   2.341   5.121   9.485 -0.6733  0.8749 -1.1292
  149SAPE  H13S16490   2.518   5.094   9.489 -0.3942 -1.7055  1.7077
  149SAPE  C21416491   2.463   5.295   9.429 -0.4252  0.8178 -0.2500
  149SAPE  H14R16492   2.514   5.379   9.479 -1.4503  1.6941 -0.6445
  149SAPE  C21516493   2.426   5.310   9.298  0.0645 -0.0039 -0.7559
  149SAPE  H15R16494   2.452   5.403   9.245 -0.3119  0.2276 -0.5387
  149SAPE  C21616495   2.349   5.210   9.216  0.8645 -0.4782  0.1255
  149SAPE  H16R16496   2.240   5.219   9.236  0.6084 -2.4914 -0.1504
  149SAPE  H16S16497   2.383   5.105   9.231 -0.2143 -0.8107  0.3294
  149SAPE  C21716498   2.372   5.234   9.064  0.4081  0.0392  0.0452
  149SAPE  H17R16499   2.349   5.336   9.025 -1.4454 -0.7057 -0.9940
  149SAPE  H17S16500   2.308   5.162   9.009  0.5614  0.5872 -0.8766
  149SAPE  C21816501   2.519   5.215   9.021  0.0836 -0.7436  0.4497
  149SAPE  H18R16502   2.541   5.108   9.042  1.1302 -0.4569  0.8790
  149SAPE  H18S16503   2.589   5.284   9.074  1.7872 -2.3054  0.3595
  149SAPE  C21916504   2.551   5.239   8.867  0.1991 -0.1341 -0.0638
  149SAPE  H19R16505   2.656   5.208   8.845  0.3884 -1.6667  2.5089
  149SAPE  H19S16506   2.545   5.347   8.839 -0.2699 -0.5973 -1.8702
  149SAPE  C22016507   2.463   5.175   8.763  0.0411  0.3133  0.0824
  149SAPE  H20R16508   2.505   5.175   8.660  0.0378 -0.8284  0.0761
  149SAPE  H20S16509   2.366   5.229   8.764 -0.1151  0.1603 -1.9124
  149SAPE  H20T16510   2.445   5.072   8.799 -0.5276  0.4712  0.2568
  149SAPE   C3316511   2.263   3.980  10.559 -0.2495 -0.3721 -0.2299
  149SAPE   H3X16512   2.195   4.050  10.506 -0.8138  0.2159  1.2358
  149SAPE   H3Y16513   2.220   3.974  10.661 -1.4170  2.5411 -0.4554
  149SAPE   C3416514   2.290   3.850  10.501  0.5388  0.5213 -0.5354
  149SAPE   H4X16515   2.203   3.781  10.510  0.6228  0.4656 -0.0876
  149SAPE   H4Y16516   2.373   3.793  10.549  0.8167 -0.0077 -1.6056
  149SAPE   C3516517   2.317   3.848  10.352  0.1151  0.3670 -0.0505
  149SAPE   H5X16518   2.320   3.740  10.329 -2.9733  0.4973 -1.5437
  149SAPE   H5Y16519   2.424   3.877  10.342  1.0684 -2.6350  0.3036
  149SAPE   C3616520   2.226   3.942  10.276 -0.0859 -0.1470 -0.6052
  149SAPE   H6X16521   2.266   4.044  10.295  1.0168 -1.1217  2.9954
  149SAPE   H6Y16522   2.127   3.929  10.324  0.0633  0.0506 -0.2401
  149SAPE   C3716523   2.225   3.924  10.120 -0.4490  0.4682 -0.6295
  149SAPE   H7X16524   2.150   3.992  10.074 -0.9029 -0.2473 -0.9570
  149SAPE   H7Y16525   2.202   3.819  10.093  0.0722  0.5468 -1.4039
  149SAPE   C3816526   2.368   3.948  10.063  0.2300 -0.4469 -0.4737
  149SAPE   H8X16527   2.441   3.878  10.107  0.3357 -1.9227 -2.8256
  149SAPE   H8Y16528   2.396   4.053  10.086 -1.8568 -0.5251  3.3200
  149SAPE   C3916529   2.371   3.934   9.915 -0.2229  0.1641  0.6273
  149SAPE   H9X16530   2.282   3.977   9.863  0.1002 -1.2042 -1.1941
  149SAPE   H9Y16531   2.355   3.824   9.916 -0.8615  0.2423  2.2895
  149SAPE  C31016532   2.507   3.977   9.853 -0.1994  0.3629 -0.2518
  149SAPE  H10X16533   2.587   3.957   9.928 -0.0574 -1.3357 -0.8137
  149SAPE  H10Y16534   2.499   4.085   9.829  1.1232  0.0992 -2.1062
  149SAPE  C31116535   2.538   3.909   9.718 -0.8197  0.9716  0.4837
  149SAPE  H11X16536   2.539   3.798   9.722 -0.1886  0.9563  0.0476
  149SAPE  H11Y16537   2.640   3.942   9.689 -0.7834  0.3728 -0.1008
  149SAPE  C31216538   2.458   3.949   9.594 -0.2061 -0.1586  0.2195
  149SAPE  H12X16539   2.460   4.060   9.584  0.8613 -0.1040  0.8192
  149SAPE  H12Y16540   2.351   3.934   9.618 -0.3736  1.7873  0.8682
  149SAPE  C31316541   2.505   3.904   9.448  0.1181  0.3846 -0.4600
  149SAPE  H13X16542   2.503   3.793   9.452 -0.0581  0.4020 -0.1017
  149SAPE  H13Y16543   2.613   3.924   9.430  1.0492 -1.3435  2.5100
  149SAPE  C31416544   2.417   3.961   9.336 -0.6668 -0.2745  0.2808
  149SAPE  H14X16545   2.475   3.941   9.243 -1.8725 -0.5306 -0.4393
  149SAPE  H14Y16546   2.420   4.072   9.343 -0.5788 -0.3672  2.0209
  149SAPE  C31516547   2.275   3.911   9.319 -0.0315  0.0771 -0.1473
  149SAPE  H15X16548   2.219   3.968   9.242  0.5142  0.7649 -0.0482
  149SAPE  H15Y16549   2.232   3.931   9.420  0.0114  1.4611 -0.3857
  149SAPE  C31616550   2.268   3.764   9.291 -0.2987 -0.4053  0.4578
  149SAPE  H16X16551   2.314   3.709   9.376  2.2956  0.7862 -0.0786
  149SAPE  H16Y16552   2.339   3.733   9.211  2.5988 -0.6145  2.9359
  149SAPE  C31716553   2.126   3.715   9.270 -0.1388  0.5097  0.2749
  149SAPE  H17X16554   2.130   3.607   9.244 -0.3145  0.5437  0.1023
  149SAPE  H17Y16555   2.091   3.774   9.182  2.7531  1.1756 -0.5348
  149SAPE  C31816556   2.034   3.734   9.391 -0.5837  0.3700 -0.0892
  149SAPE  H18X16557   2.087   3.709   9.485 -0.3457 -1.1086 -0.6007
  149SAPE  H18Y16558   1.951   3.661   9.388 -0.5030  0.2679  0.1275
  149SAPE  H18Z16559   1.996   3.839   9.393 -0.5691  0.3717  0.3216
  150SAPE     N16560   2.896   1.753  10.981 -0.4671 -0.1655 -0.3084
  150SAPE   HN116561   2.901   1.673  11.047  1.2892  1.3762  1.5539
  150SAPE   HN216562   2.938   1.831  11.036  1.8537  0.3467 -2.5953
  150SAPE   HN316563   2.795   1.777  10.967 -0.3766  0.2845 -0.2257
  150SAPE   C1216564   2.982   1.738  10.858  0.2899  0.4833  0.1963
  150SAPE  H12A16565   3.049   1.825  10.842  0.8032  0.0560 -0.0265
  150SAPE  H12B16566   2.927   1.714  10.765  0.8501 -1.9450  0.4254
  150SAPE   C1116567   3.081   1.617  10.876  0.3720 -0.0360  0.1171
  150SAPE  H11A16568   3.141   1.631  10.783 -2.1417  1.5470 -1.3931
  150SAPE  H11B16569   3.034   1.516  10.868 -0.1232  0.1682  0.4390
  150SAPE     P16570   3.299   1.701  11.007  0.4200  0.4900  0.2483
  150SAPE   O1316571   3.277   1.851  11.004 -1.1090  0.3615 -0.3254
  150SAPE   O1416572   3.374   1.646  11.123 -0.0344 -0.1223  0.3753
  150SAPE   O1216573   3.154   1.623  10.998 -0.6638  0.1981 -0.5513
  150SAPE   O1116574   3.382   1.659  10.879 -0.3456 -0.2705 -0.2014
  150SAPE    C116575   3.519   1.705  10.860 -0.6371  0.3872 -0.1334
  150SAPE    HA16576   3.573   1.700  10.957 -0.6891  2.3686  0.0457
  150SAPE    HB16577   3.561   1.627  10.793 -3.4080  0.0944 -1.7229
  150SAPE    C216578   3.532   1.838  10.785  0.4089 -0.7203  0.4564
  150SAPE    HS16579   3.513   1.917  10.861  0.4392  1.2082 -1.4223
  150SAPE   O2116580   3.424   1.858  10.685  0.5099 -0.4793  0.0012
  150SAPE   C2116581   3.408   1.988  10.645 -0.2043  0.3879 -0.2964
  150SAPE   O2216582   3.462   2.089  10.678  0.1191 -0.2854 -0.3837
  150SAPE   C2216583   3.299   1.979  10.541 -0.2316 -0.0776 -0.1168
  150SAPE   H2R16584   3.323   1.901  10.466 -0.5643 -1.1437  0.8596
  150SAPE   H2S16585   3.206   1.940  10.588 -0.2162  0.0820  0.0499
  150SAPE    C316586   3.672   1.874  10.732 -0.2843 -0.5105  0.6557
  150SAPE    HX16587   3.740   1.882  10.820 -0.6227  0.1917  0.8551
  150SAPE    HY16588   3.681   1.971  10.678  0.2787 -1.4067 -0.9318
  150SAPE   O3116589   3.713   1.762  10.647 -0.1453  0.3806 -0.0694
  150SAPE   C3116590   3.665   1.757  10.520  0.5062 -0.8169  0.5412
  150SAPE   O3216591   3.595   1.846  10.471 -0.4882  0.0886 -0.4198
  150SAPE   C3216592   3.681   1.615  10.465  0.4110 -0.5983  0.1148
  150SAPE   H2X16593   3.593   1.552  10.493  1.8243 -1.5486  2.7728
  150SAPE   H2Y16594   3.775   1.586  10.516  1.0465  2.1313  0.6801
  150SAPE   C2316595   3.261   2.116  10.478 -0.1127  0.2650  0.7928
  150SAPE   H3R16596   3.340   2.140  10.403 -1.2170 -1.4288 -1.0128
  150SAPE   H3S16597   3.246   2.197  10.552  0.7193  1.2532 -0.0996
  150SAPE   C2416598   3.128   2.103  10.394 -0.0532 -0.9078 -0.2854
  150SAPE   H4R16599   3.099   2.205  10.361  0.8167  0.6828  3.3464
  150SAPE   H4S16600   3.056   2.062  10.468  0.4973 -1.5370 -0.0810
  150SAPE   C2516601   3.141   1.996  10.287 -0.0677  0.6377  0.2723
  150SAPE   H5R16602   3.142   1.892  10.323 -0.4005  0.2290 -0.8551
  150SAPE   C2616603   3.155   2.009  10.155  0.3299  0.1756  0.0409
  150SAPE   H6R16604   3.172   1.921  10.092  1.1926 -0.4521  1.1140
  150SAPE   C2716605   3.167   2.145  10.079  0.2302  0.2610  0.2599
  150SAPE   H7R16606   3.246   2.151  10.001  0.4017  0.9696  0.4735
  150SAPE   H7S16607   3.178   2.232  10.147 -1.1628  1.0345 -0.4567
  150SAPE   C2816608   3.024   2.158  10.021  0.1147  0.0092  0.0257
  150SAPE   H8R16609   2.942   2.194  10.084 -1.2381  0.1579 -1.7485
  150SAPE   C2916610   2.992   2.134   9.888 -0.4533  0.0904 -0.0263
  150SAPE   H9R16611   2.888   2.155   9.859 -1.3222 -0.9644  2.1385
  150SAPE  C21016612   3.079   2.068   9.788  0.2938  0.2204 -0.0675
  150SAPE  H10R16613   3.018   1.989   9.738  0.0092  0.5787 -0.2990
  150SAPE  H10S16614   3.164   2.012   9.832 -0.4725 -3.3339 -2.6184
  150SAPE  C21116615   3.131   2.169   9.689 -0.5847 -0.0301 -0.0591
  150SAPE  H11R16616   3.228   2.216   9.709 -1.3661  1.5534  0.1257
  150SAPE  C21216617   3.070   2.214   9.578  0.5034  0.0067 -1.2648
  150SAPE  H12R16618   3.113   2.298   9.521 -0.4985 -0.6366 -3.0522
  150SAPE  C21316619   2.935   2.159   9.525 -0.3005 -0.1809 -0.0151
  150SAPE  H13R16620   2.903   2.240   9.456 -0.9454  0.6893  1.2641
  150SAPE  H13S16621   2.868   2.155   9.613 -0.1208 -1.7536  0.0741
  150SAPE  C21416622   2.951   2.026   9.458  0.4687 -0.1942  0.1002
  150SAPE  H14R16623   2.957   1.941   9.527 -1.4251 -0.5514 -0.1105
  150SAPE  C21516624   2.964   1.997   9.329 -0.5954  0.0706  0.0295
  150SAPE  H15R16625   2.986   1.892   9.303  2.5913  0.6702 -0.1214
  150SAPE  C21616626   2.961   2.102   9.219 -0.7497  0.3506 -0.6669
  150SAPE  H16R16627   2.890   2.182   9.247  0.1319  1.0880 -0.4829
  150SAPE  H16S16628   2.925   2.055   9.125 -1.0748 -1.2190  0.2065
  150SAPE  C21716629   3.099   2.170   9.189 -0.4265  0.0296  0.2318
  150SAPE  H17R16630   3.180   2.094   9.174  0.2709  0.9220 -0.6089
  150SAPE  H17S16631   3.127   2.236   9.274 -3.8477 -0.1814  1.6997
  150SAPE  C21816632   3.097   2.255   9.060 -0.0185 -0.1954 -0.5516
  150SAPE  H18R16633   3.053   2.185   8.985  0.1336 -0.3079 -0.5373
  150SAPE  H18S16634   3.200   2.289   9.035  0.6072 -1.1651  0.6137
  150SAPE  C21916635   3.003   2.373   9.066  0.0636  0.1512  0.0613
  150SAPE  H19R16636   3.053   2.449   9.129 -2.5481  0.6149  1.7061
  150SAPE  H19S16637   2.908   2.343   9.114  0.2144 -2.6955 -1.2559
  150SAPE  C22016638   2.992   2.453   8.926  0.6042  0.0498  0.1603
  150SAPE  H20R16639   3.094   2.475   8.886  0.1128  2.5749  0.1115
  150SAPE  H20S16640   2.933   2.547   8.936  0.0553 -0.3368  0.6076
  150SAPE  H20T16641   2.935   2.391   8.854 -1.7944  0.5806  1.4999
  150SAPE   C3316642   3.715   1.611  10.312  0.2780  0.5546 -0.4083
  150SAPE   H3X16643   3.676   1.702  10.262 -0.7284 -0.2323 -1.0944
  150SAPE   H3Y16644   3.674   1.517  10.270  0.0520  0.4404  0.0611
  150SAPE   C3416645   3.865   1.602  10.282  0.4255 -0.3843 -0.2570
  150SAPE   H4X16646   3.910   1.518  10.339 -2.1478  0.2254  2.9154
  150SAPE   H4Y16647   3.915   1.698  10.307  0.2556 -0.1511 -0.7966
  150SAPE   C3516648   3.886   1.576  10.133  0.0098  0.6177  0.0490
  150SAPE   H5X16649   3.843   1.477  10.107  0.9283  0.1737  0.1629
  150SAPE   H5Y16650   3.995   1.567  10.112  0.4109 -0.9307  2.3930
  150SAPE   C3616651   3.826   1.684  10.031  0.4365 -0.2658 -0.7365
  150SAPE   H6X16652   3.862   1.787  10.052 -1.5217  0.8622 -2.4805
  150SAPE   H6Y16653   3.716   1.680  10.047  0.4722  1.0318  0.0755
  150SAPE   C3716654   3.867   1.652   9.884  0.1989 -0.0561 -0.2902
  150SAPE   H7X16655   3.832   1.548   9.866 -1.2098  0.8069 -3.0580
  150SAPE   H7Y16656   3.978   1.645   9.893  0.0916 -0.6287  0.7924
  150SAPE   C3816657   3.834   1.745   9.765  0.5458 -0.3700  0.6295
  150SAPE   H8X16658   3.853   1.854   9.779  0.6368  0.5073 -4.3413
  150SAPE   H8Y16659   3.726   1.738   9.739  1.0225 -0.7208 -1.4643
  150SAPE   C3916660   3.891   1.710   9.626  0.1875 -0.0854 -0.8155
  150SAPE   H9X16661   3.836   1.623   9.583 -3.3210  1.6156 -0.0997
  150SAPE   H9Y16662   3.994   1.673   9.643  0.6385  1.6002  0.3436
  150SAPE  C31016663   3.881   1.829   9.536 -0.2026 -0.1397 -0.0241
  150SAPE  H10X16664   3.938   1.914   9.577 -1.5416  0.5015  0.5538
  150SAPE  H10Y16665   3.772   1.847   9.535 -0.2330 -0.3000 -1.2231
  150SAPE  C31116666   3.922   1.806   9.393  0.2793 -0.3508  0.5170
  150SAPE  H11X16667   3.834   1.852   9.343  0.1019 -1.6624 -0.4469
  150SAPE  H11Y16668   3.934   1.699   9.365  0.5723  0.2801 -2.0196
  150SAPE  C31216669   4.051   1.879   9.347  0.8413 -0.2573  0.6020
  150SAPE  H12X16670   4.134   1.814   9.383  1.3504 -0.3893 -0.7372
  150SAPE  H12Y16671   4.053   1.982   9.389 -0.0716 -0.1142  0.2979
  150SAPE  C31316672   4.069   1.891   9.195  0.7124 -0.9160  0.5775
  150SAPE  H13X16673   4.075   1.793   9.143 -0.8335  0.5455 -2.6292
  150SAPE  H13Y16674   4.163   1.949   9.184 -0.2425  0.6289  0.3718
  150SAPE  C31416675   3.963   1.985   9.122  0.1860 -0.0807 -0.2631
  150SAPE  H14X16676   3.963   2.082   9.176 -1.4907 -1.0515  1.6079
  150SAPE  H14Y16677   3.859   1.947   9.133  0.7279 -1.5385  0.1155
  150SAPE  C31516678   3.990   1.988   8.971  0.1400 -0.5479 -0.0695
  150SAPE  H15X16679   3.908   2.045   8.922 -0.1750  0.1305  1.1755
  150SAPE  H15Y16680   3.983   1.885   8.932 -1.1294 -0.1748 -0.8930
  150SAPE  C31616681   4.128   2.041   8.917 -0.2398 -0.7684 -0.1177
  150SAPE  H16X16682   4.203   1.960   8.912  1.1223  0.5213 -1.5555
  150SAPE  H16Y16683   4.153   2.136   8.970  0.6780  0.6078 -2.8148
  150SAPE  C31716684   4.120   2.098   8.773 -0.1450 -0.3038  0.6804
  150SAPE  H17X16685   4.212   2.160   8.768 -1.0492  1.1778  1.6810
  150SAPE  H17Y16686   4.031   2.159   8.746  1.1237  1.7561  0.9698
  150SAPE  C31816687   4.136   1.991   8.666  0.1674 -0.3525  0.0874
  150SAPE  H18X16688   4.050   1.925   8.643 -1.6100  2.2540 -1.2300
  150SAPE  H18Y16689   4.227   1.930   8.683 -0.6795 -1.0321  2.7081
  150SAPE  H18Z16690   4.148   2.045   8.570 -2.8006  1.5468  0.6498
  151SAPE     N16691   0.791   0.005  10.855 -0.0175 -0.0625  0.0224
  151SAPE   HN116692   0.713   0.014  10.786  1.4325  1.4504 -1.4979
  151SAPE   HN216693   0.795   0.090  10.914  1.6779  0.0740 -0.2538
  151SAPE   HN316694   0.876   0.010  10.795  1.0550 -1.8343  1.2797
  151SAPE   C1216695   0.770  -0.135  10.911  0.0043  0.5318 -0.1041
  151SAPE  H12A16696   0.679  -0.125  10.974  0.4939  0.4788  0.6164
  151SAPE  H12B16697   0.858  -0.162  10.974  0.3482  0.7807 -0.4728
  151SAPE   C1116698   0.757  -0.236  10.796 -0.8513  0.0459 -0.2199
  151SAPE  H11A16699   0.752  -0.338  10.841  0.9919  0.1059  0.1779
  151SAPE  H11B16700   0.849  -0.225  10.736 -0.9669  2.0571 -0.0972
  151SAPE     P16701   0.564  -0.289  10.615  0.0302 -0.1543  0.0347
  151SAPE   O1316702   0.566  -0.426  10.654  0.2134  0.2155 -0.5273
  151SAPE   O1416703   0.432  -0.228  10.584 -0.4532 -0.0733  0.1545
  151SAPE   O1216704   0.635  -0.202  10.733 -0.0161  0.4907  0.4626
  151SAPE   O1116705   0.674  -0.264  10.502 -0.3452 -0.0364 -0.2061
  151SAPE    C116706   0.682  -0.130  10.440 -0.4347  0.1483 -0.0039
  151SAPE    HA16707   0.658  -0.045  10.507  0.6595  1.2788 -0.9957
  151SAPE    HB16708   0.789  -0.124  10.412 -0.2332 -0.3598  0.6156
  151SAPE    C216709   0.591  -0.131  10.320 -0.3745 -0.2644  0.9396
  151SAPE    HS16710   0.488  -0.150  10.355 -0.6882  0.0534  0.2041
  151SAPE   O2116711   0.632  -0.240  10.221  0.0624  0.3616  0.2266
  151SAPE   C2116712   0.555  -0.339  10.217 -0.2880 -0.4161  0.3153
  151SAPE   O2216713   0.452  -0.363  10.277 -0.3132 -0.1922  0.1406
  151SAPE   C2216714   0.611  -0.426  10.097 -0.6139  0.2557  0.3161
  151SAPE   H2R16715   0.632  -0.350  10.019  2.2340  1.3174  1.9467
  151SAPE   H2S16716   0.703  -0.470  10.139  0.6500  2.0881 -0.4067
  151SAPE    C316717   0.599   0.012  10.257 -0.5353  0.6311 -0.5109
  151SAPE    HX16718   0.705   0.044  10.258 -0.9992  2.2621 -1.0281
  151SAPE    HY16719   0.541   0.084  10.319 -0.2231 -0.3845  1.0041
  151SAPE   O3116720   0.555   0.011  10.121  0.1315 -0.1467 -0.3668
  151SAPE   C3116721   0.429  -0.015  10.102 -0.2635  0.4043  0.0021
  151SAPE   O3216722   0.349  -0.032  10.187  0.6500  0.6769  0.6406
  151SAPE   C3216723   0.400  -0.017   9.954  0.2679 -0.5932 -0.0274
  151SAPE   H2X16724   0.421   0.079   9.902  4.2560 -2.4781 -2.3400
  151SAPE   H2Y16725   0.290  -0.035   9.947  0.0161 -0.9011  3.2962
  151SAPE   C2316726   0.511  -0.532  10.046 -0.5965 -0.2836  0.4578
  151SAPE   H3R16727   0.419  -0.475  10.020  0.3416  2.0926  2.0006
  151SAPE   H3S16728   0.483  -0.608  10.123  0.8088 -0.4949  0.7833
  151SAPE   C2416729   0.563  -0.608   9.921 -0.0714 -0.9798  0.3740
  151SAPE   H4R16730   0.559  -0.543   9.831 -0.2841  1.5280  2.0933
  151SAPE   H4S16731   0.492  -0.692   9.906 -0.1638 -0.8320 -0.0365
  151SAPE   C2516732   0.703  -0.663   9.931  0.4648 -0.4650 -0.0862
  151SAPE   H5R16733   0.780  -0.595   9.968 -0.9167  2.1881 -1.7842
  151SAPE   C2616734   0.741  -0.794   9.923  1.0999 -1.2333 -0.2290
  151SAPE   H6R16735   0.849  -0.815   9.934  0.8789 -3.3804 -1.5474
  151SAPE   C2716736   0.664  -0.922   9.903  0.1156 -0.4172  0.3135
  151SAPE   H7R16737   0.565  -0.892   9.864  0.6791 -0.2727 -1.0710
  151SAPE   H7S16738   0.644  -0.973  10.000  0.6361 -2.2558 -0.4914
  151SAPE   C2816739   0.737  -1.024   9.824  0.4232 -0.5553  0.3579
  151SAPE   H8R16740   0.772  -1.101   9.894  0.4589  0.4626  1.5070
  151SAPE   C2916741   0.747  -1.033   9.688 -0.3017 -0.0649 -0.0099
  151SAPE   H9R16742   0.784  -1.125   9.639 -1.2668  0.3535 -1.6226
  151SAPE  C21016743   0.696  -0.929   9.592  0.9279 -0.6966  0.2883
  151SAPE  H10R16744   0.694  -0.827   9.635  0.5599 -0.0199 -1.2858
  151SAPE  H10S16745   0.589  -0.953   9.575  0.6620  1.5334 -1.7224
  151SAPE  C21116746   0.771  -0.914   9.467  0.3156  0.5256  0.2390
  151SAPE  H11R16747   0.879  -0.924   9.484  0.2421 -0.6768  0.0866
  151SAPE  C21216748   0.718  -0.894   9.342 -0.2807  0.9673 -0.0729
  151SAPE  H12R16749   0.791  -0.892   9.259  0.0006 -1.8053  0.0192
  151SAPE  C21316750   0.567  -0.882   9.313  0.4220  0.7107  0.6625
  151SAPE  H13R16751   0.554  -0.792   9.249 -1.1263  0.3775  0.4603
  151SAPE  H13S16752   0.503  -0.874   9.403 -0.8439  2.7519 -0.3418
  151SAPE  C21416753   0.505  -1.001   9.245  0.8663 -0.2094 -0.0063
  151SAPE  H14R16754   0.519  -1.094   9.301  0.8346  1.0562  2.2173
  151SAPE  C21516755   0.456  -1.007   9.118  0.3058 -0.0473 -0.0456
  151SAPE  H15R16756   0.424  -1.103   9.074 -0.6682  0.7329 -1.1156
  151SAPE  C21616757   0.427  -0.900   9.015  0.3277 -0.3145 -0.1553
  151SAPE  H16R16758   0.474  -0.800   9.028  0.3101 -0.2802 -0.3474
  151SAPE  H16S16759   0.318  -0.886   9.003  0.4228  0.5656 -0.0448
  151SAPE  C21716760   0.478  -0.952   8.876  0.1624 -0.6858  0.1752
  151SAPE  H17R16761   0.427  -0.899   8.793  0.4748 -0.5124  0.0895
  151SAPE  H17S16762   0.452  -1.059   8.863  1.1112 -0.7824 -1.2160
  151SAPE  C21816763   0.630  -0.932   8.844 -0.1188  1.0292  0.4531
  151SAPE  H18R16764   0.637  -1.002   8.758 -2.8266  0.4713  0.6168
  151SAPE  H18S16765   0.690  -0.971   8.930  2.1556 -1.1970 -1.9808
  151SAPE  C21916766   0.679  -0.790   8.812  0.0856 -0.2551  0.2196
  151SAPE  H19R16767   0.661  -0.724   8.900 -2.6581  0.7146 -0.9609
  151SAPE  H19S16768   0.613  -0.753   8.731  0.3052 -1.0428 -0.3322
  151SAPE  C22016769   0.824  -0.770   8.771 -0.2356  0.2062 -0.2615
  151SAPE  H20R16770   0.844  -0.672   8.722  2.0211 -0.4992 -0.8698
  151SAPE  H20S16771   0.850  -0.848   8.697 -1.9385 -1.1809  0.5251
  151SAPE  H20T16772   0.886  -0.778   8.863  2.2020  0.9340 -1.7458
  151SAPE   C3316773   0.487  -0.119   9.883  0.3793 -0.0635  0.5213
  151SAPE   H3X16774   0.432  -0.211   9.914  0.1780 -1.2075 -2.8571
  151SAPE   H3Y16775   0.590  -0.126   9.924  0.4635  1.9918  0.7317
  151SAPE   C3416776   0.477  -0.124   9.728  0.0422  0.0205 -0.2858
  151SAPE   H4X16777   0.530  -0.037   9.684  2.9864  0.1432  3.0230
  151SAPE   H4Y16778   0.369  -0.116   9.703  0.1855 -0.3813 -1.0538
  151SAPE   C3516779   0.532  -0.263   9.677 -0.2848 -0.1812 -0.2848
  151SAPE   H5X16780   0.475  -0.342   9.730 -0.2199  2.2340  3.7542
  151SAPE   H5Y16781   0.637  -0.278   9.711  0.5766  2.0995 -1.7121
  151SAPE   C3616782   0.527  -0.272   9.526 -0.5622 -0.4152  0.3910
  151SAPE   H6X16783   0.594  -0.193   9.487 -0.2488 -0.2125  1.3214
  151SAPE   H6Y16784   0.426  -0.244   9.488 -0.8161 -0.3483  1.1035
  151SAPE   C3716785   0.576  -0.404   9.469 -0.7579  0.5886  1.1189
  151SAPE   H7X16786   0.513  -0.487   9.509  0.8405 -2.2360 -1.7448
  151SAPE   H7Y16787   0.680  -0.425   9.502 -1.2309 -2.7158  0.8952
  151SAPE   C3816788   0.555  -0.397   9.316  0.3329  0.2337  0.1546
  151SAPE   H8X16789   0.454  -0.358   9.293  1.2245 -0.0823 -5.6045
  151SAPE   H8Y16790   0.569  -0.503   9.285 -1.0165 -0.5868  2.1100
  151SAPE   C3916791   0.649  -0.303   9.235 -0.1342  0.1344  1.3898
  151SAPE   H9X16792   0.755  -0.314   9.265  0.1060  1.2012  0.9906
  151SAPE   H9Y16793   0.626  -0.196   9.255  1.7603  1.3765 -2.0772
  151SAPE  C31016794   0.648  -0.334   9.085 -0.2083  0.1816 -0.6550
  151SAPE  H10X16795   0.550  -0.295   9.050  0.0189  1.8963  0.4890
  151SAPE  H10Y16796   0.663  -0.444   9.074 -0.8833  0.2229 -2.2664
  151SAPE  C31116797   0.752  -0.254   9.015 -0.3513 -0.1208  0.0671
  151SAPE  H11X16798   0.843  -0.241   9.077  1.6248  1.2845 -2.8451
  151SAPE  H11Y16799   0.713  -0.150   9.012  0.7551  0.3056 -0.4592
  151SAPE  C31216800   0.788  -0.325   8.881 -0.1396 -0.2236  0.1460
  151SAPE  H12X16801   0.815  -0.430   8.906 -0.5026 -0.2195  0.5915
  151SAPE  H12Y16802   0.878  -0.271   8.847 -1.1099  1.8162  0.6205
  151SAPE  C31316803   0.679  -0.319   8.779 -0.1535 -0.3719  0.0830
  151SAPE  H13X16804   0.665  -0.210   8.769  0.9529 -0.3466 -1.4615
  151SAPE  H13Y16805   0.580  -0.353   8.817  0.3247  1.1171  2.9622
  151SAPE  C31416806   0.702  -0.391   8.641 -0.0782  0.9696 -0.0190
  151SAPE  H14X16807   0.698  -0.501   8.657 -3.2248  1.2987  2.6323
  151SAPE  H14Y16808   0.802  -0.363   8.601  0.6900  0.1455  1.2546
  151SAPE  C31516809   0.607  -0.354   8.529 -0.4258 -0.0609  0.3301
  151SAPE  H15X16810   0.608  -0.244   8.517 -0.1481 -0.2302 -1.3081
  151SAPE  H15Y16811   0.505  -0.391   8.554  0.8476 -2.5724  2.2551
  151SAPE  C31616812   0.650  -0.412   8.399  0.0395 -0.1238  0.7343
  151SAPE  H16X16813   0.688  -0.516   8.412  1.8617  0.3399 -0.5195
  151SAPE  H16Y16814   0.732  -0.349   8.359 -0.2641 -1.5519 -2.3860
  151SAPE  C31716815   0.535  -0.419   8.299  0.4046 -0.0612  0.5586
  151SAPE  H17X16816   0.480  -0.323   8.293  1.8464  0.8118  0.6938
  151SAPE  H17Y16817   0.465  -0.487   8.353  0.0145  0.9162  1.3160
  151SAPE  C31816818   0.600  -0.476   8.180 -0.3422  0.1355  0.1907
  151SAPE  H18X16819   0.700  -0.435   8.156  1.7242 -4.2051  0.4696
  151SAPE  H18Y16820   0.543  -0.441   8.091  3.3789  1.7730 -1.7682
  151SAPE  H18Z16821   0.605  -0.586   8.195 -2.0227  0.1772  1.3863
  152SAPE     N16822   5.790   1.202  11.109  0.2638  0.4377  0.5090
  152SAPE   HN116823   5.776   1.270  11.187  1.9791  1.8262 -0.3199
  152SAPE   HN216824   5.779   1.242  11.013  0.7529  0.4827  0.4695
  152SAPE   HN316825   5.716   1.130  11.113  1.4595 -0.8712 -0.0923
  152SAPE   C1216826   5.939   1.149  11.122  0.4694 -0.9060  0.1537
  152SAPE  H12A16827   5.966   1.146  11.230 -1.4999 -0.3168  0.7017
  152SAPE  H12B16828   5.997   1.224  11.065 -2.3325 -1.3565 -3.6338
  152SAPE   C1116829   5.950   1.005  11.067 -0.3573  0.0524 -0.0982
  152SAPE  H11A16830   5.882   0.944  11.131 -2.3230  2.7760  0.6335
  152SAPE  H11B16831   6.051   0.970  11.093 -0.7990 -0.3752  1.1010
  152SAPE     P16832   5.956   0.870  10.847 -0.3627 -0.4194 -0.2994
  152SAPE   O1316833   6.106   0.851  10.854  0.4910  0.2978 -0.7451
  152SAPE   O1416834   5.869   0.759  10.894 -0.0607 -0.2243 -0.3499
  152SAPE   O1216835   5.916   0.995  10.931 -0.2359  0.4606 -0.1842
  152SAPE   O1116836   5.916   0.917  10.696  0.0345  0.7428  0.3428
  152SAPE    C116837   5.839   1.037  10.666  0.3848 -0.2942 -0.1180
  152SAPE    HA16838   5.752   1.052  10.734  0.4261  4.2559 -0.7342
  152SAPE    HB16839   5.888   1.136  10.655 -0.3982  0.3021  1.4378
  152SAPE    C216840   5.752   1.017  10.540 -1.8468  0.0934 -0.3011
  152SAPE    HS16841   5.674   0.945  10.572 -0.5253 -0.8255  0.9317
  152SAPE   O2116842   5.840   0.962  10.439  0.5740 -0.0173 -0.1037
  152SAPE   C2116843   5.780   0.880  10.353  0.6521 -0.6532 -0.1842
  152SAPE   O2216844   5.663   0.840  10.358 -0.6010 -0.3417  0.1848
  152SAPE   C2216845   5.878   0.847  10.247  0.4378  0.2364  0.2476
  152SAPE   H2R16846   5.961   0.919  10.262  0.1208  0.2629  2.2241
  152SAPE   H2S16847   5.928   0.754  10.283  3.1342  1.2798 -0.5686
  152SAPE    C316848   5.677   1.151  10.504 -0.7292  1.0420 -0.2156
  152SAPE    HX16849   5.760   1.224  10.497  1.0359 -0.7910  0.7391
  152SAPE    HY16850   5.610   1.173  10.590  0.0203 -0.7750  0.9097
  152SAPE   O3116851   5.607   1.133  10.380 -0.4438 -0.3178  0.3885
  152SAPE   C3116852   5.481   1.072  10.383  0.0628 -0.0234 -0.0260
  152SAPE   O3216853   5.423   1.052  10.484  0.0610 -0.5185 -0.4999
  152SAPE   C3216854   5.431   1.047  10.249  1.2482  0.7907 -0.7177
  152SAPE   H2X16855   5.457   0.941  10.228  0.3913  0.2425  0.8398
  152SAPE   H2Y16856   5.479   1.115  10.175  0.3927  0.1607 -1.8857
  152SAPE   C2316857   5.825   0.816  10.109  0.1690  0.5228 -0.0813
  152SAPE   H3R16858   5.767   0.903  10.071 -0.0676  0.4383  0.0827
  152SAPE   H3S16859   5.765   0.722  10.108  2.0691 -0.7722  1.1867
  152SAPE   C2416860   5.949   0.791  10.015  0.2690 -0.2911 -1.0280
  152SAPE   H4R16861   5.908   0.724   9.936 -1.7134 -0.7405  0.3054
  152SAPE   H4S16862   6.014   0.724  10.075 -1.1071 -1.1126 -0.4046
  152SAPE   C2516863   6.016   0.913   9.961 -0.3758 -0.5025  0.6611
  152SAPE   H5R16864   6.025   1.003  10.023 -0.1776 -0.0539 -0.0142
  152SAPE   C2616865   6.059   0.920   9.837  0.1055  0.1858 -0.4613
  152SAPE   H6R16866   6.110   1.010   9.800 -0.5552  0.6695 -0.2070
  152SAPE   C2716867   6.064   0.798   9.745 -0.3034  0.0025  0.0013
  152SAPE   H7R16868   5.965   0.783   9.697 -0.5756 -2.0490  1.0909
  152SAPE   H7S16869   6.076   0.704   9.802  0.3222  0.4827  0.6854
  152SAPE   C2816870   6.174   0.800   9.650 -0.0550  0.1747  0.8449
  152SAPE   H8R16871   6.273   0.761   9.678  1.1931  3.1395  0.9633
  152SAPE   C2916872   6.183   0.875   9.541  0.1956  0.6361 -1.1548
  152SAPE   H9R16873   6.262   0.844   9.471 -1.9585 -0.2923 -3.3243
  152SAPE  C21016874   6.068   0.956   9.484 -0.1896 -0.2241  1.0479
  152SAPE  H10R16875   5.974   0.929   9.536 -0.0036  0.2109  1.6164
  152SAPE  H10S16876   6.050   0.923   9.379  2.7057  1.8405 -0.2626
  152SAPE  C21116877   6.102   1.104   9.476  0.4346 -1.0522  0.3500
  152SAPE  H11R16878   6.121   1.152   9.573 -2.2405  1.8148 -0.3876
  152SAPE  C21216879   6.109   1.181   9.364  0.7453 -0.1173 -0.0234
  152SAPE  H12R16880   6.113   1.289   9.385  1.2484 -0.0523 -0.4465
  152SAPE  C21316881   6.079   1.134   9.224 -0.2439  0.3835  0.4911
  152SAPE  H13R16882   5.995   1.061   9.218 -0.3663  0.4447  1.4107
  152SAPE  H13S16883   6.156   1.069   9.178  0.4151  2.3665 -1.3608
  152SAPE  C21416884   6.056   1.249   9.135  0.0312 -0.1717  0.0625
  152SAPE  H14R16885   5.963   1.303   9.155 -0.7206 -0.9595 -1.1467
  152SAPE  C21516886   6.121   1.286   9.020  0.2619 -1.2005 -0.2955
  152SAPE  H15R16887   6.079   1.374   8.970 -0.3605 -2.1414 -1.5053
  152SAPE  C21616888   6.241   1.220   8.959 -0.7572 -0.1434  0.3296
  152SAPE  H16R16889   6.246   1.228   8.848 -0.1036 -1.4303  0.2399
  152SAPE  H16S16890   6.228   1.110   8.971 -2.0064 -0.2079 -1.3078
  152SAPE  C21716891   6.373   1.275   9.011 -0.3444  0.3513  0.3543
  152SAPE  H17R16892   6.366   1.276   9.122  0.6130  1.4429  0.4191
  152SAPE  H17S16893   6.379   1.383   8.989 -2.0676  0.0920 -1.7083
  152SAPE  C21816894   6.505   1.199   8.976  0.4562 -0.0116 -1.1064
  152SAPE  H18R16895   6.487   1.089   8.979  1.6751 -0.2189  1.0800
  152SAPE  H18S16896   6.570   1.210   9.066  0.2211 -0.2652 -0.9036
  152SAPE  C21916897   6.579   1.241   8.846 -0.2388 -0.1495 -0.1623
  152SAPE  H19R16898   6.601   1.350   8.856 -0.6050 -0.1306  0.4717
  152SAPE  H19S16899   6.520   1.215   8.755  0.4371 -0.1480 -0.6159
  152SAPE  C22016900   6.718   1.174   8.825  0.2909 -0.0283  0.4209
  152SAPE  H20R16901   6.715   1.064   8.810  1.0766  0.1126 -0.9317
  152SAPE  H20S16902   6.791   1.187   8.908  2.6177 -2.2443 -1.1585
  152SAPE  H20T16903   6.760   1.222   8.735 -0.9614  1.8783  0.7948
  152SAPE   C3316904   5.279   1.059  10.247 -0.0663 -0.1595  0.1335
  152SAPE   H3X16905   5.232   1.005  10.333  1.5491 -2.2682 -0.2332
  152SAPE   H3Y16906   5.242   0.993  10.166 -0.7887 -0.6961  0.8822
  152SAPE   C3416907   5.224   1.203  10.234  0.2703 -0.4749 -0.0214
  152SAPE   H4X16908   5.258   1.257  10.324  2.1292 -0.5284 -0.6437
  152SAPE   H4Y16909   5.113   1.199  10.229  0.1539  0.6504  1.3871
  152SAPE   C3516910   5.276   1.282  10.108 -0.7445  0.1731 -0.4703
  152SAPE   H5X16911   5.305   1.200  10.038  0.2818 -0.6514  0.8674
  152SAPE   H5Y16912   5.353   1.359  10.132  0.1244 -0.8862  0.2800
  152SAPE   C3616913   5.149   1.340  10.046 -0.9980 -0.3545  0.0538
  152SAPE   H6X16914   5.094   1.407  10.116 -0.8297  0.8070 -0.8908
  152SAPE   H6Y16915   5.072   1.261  10.034 -0.0331 -1.0856 -1.8103
  152SAPE   C3716916   5.177   1.424   9.918  0.5803  0.2657 -0.3720
  152SAPE   H7X16917   5.255   1.500   9.942  0.0176  0.9569 -0.6900
  152SAPE   H7Y16918   5.073   1.457   9.899  0.4064  1.4544  2.2402
  152SAPE   C3816919   5.232   1.342   9.796  0.2517 -0.3933  0.1703
  152SAPE   H8X16920   5.190   1.240   9.811 -1.1140  0.2643  0.9801
  152SAPE   H8Y16921   5.342   1.354   9.810  0.3393 -0.2677 -0.6003
  152SAPE   C3916922   5.200   1.404   9.657 -0.6086  0.3606  0.5108
  152SAPE   H9X16923   5.271   1.379   9.576 -2.9122  1.3614 -1.9847
  152SAPE   H9Y16924   5.177   1.513   9.654  2.8112  1.1582 -0.8318
  152SAPE  C31016925   5.074   1.332   9.615 -0.0532 -0.2950 -0.3967
  152SAPE  H10X16926   4.984   1.349   9.678  0.8938  3.5472  0.1224
  152SAPE  H10Y16927   5.097   1.224   9.602  3.2414  0.4743 -2.0945
  152SAPE  C31116928   5.039   1.378   9.467  0.2133  0.1139  0.0121
  152SAPE  H11X16929   5.026   1.488   9.464 -0.6635  0.0051 -0.9949
  152SAPE  H11Y16930   4.940   1.330   9.451  0.1159 -0.4977  2.2396
  152SAPE  C31216931   5.129   1.327   9.348 -0.2170  0.1992 -0.6181
  152SAPE  H12X16932   5.157   1.223   9.378  0.9747  0.7567  0.2844
  152SAPE  H12Y16933   5.217   1.392   9.332  0.1036  1.0471  3.4131
  152SAPE  C31316934   5.052   1.314   9.214  0.3770  0.0762 -1.0830
  152SAPE  H13X16935   5.024   1.420   9.195  1.6525  0.1476 -2.7467
  152SAPE  H13Y16936   4.958   1.261   9.237  0.1616 -0.2554 -2.6473
  152SAPE  C31416937   5.128   1.245   9.106  0.1393 -0.0366  0.3210
  152SAPE  H14X16938   5.189   1.159   9.142  2.1263  0.6779 -1.1378
  152SAPE  H14Y16939   5.207   1.318   9.077 -0.5238  0.8012  0.6118
  152SAPE  C31516940   5.042   1.212   8.980  0.1553 -0.9293  0.1911
  152SAPE  H15X16941   4.992   1.304   8.942 -1.2037 -0.1020  3.6526
  152SAPE  H15Y16942   4.961   1.141   9.006  0.8453 -1.6339  0.4422
  152SAPE  C31616943   5.126   1.151   8.868 -0.0643  0.7359  1.4227
  152SAPE  H16X16944   5.190   1.069   8.908  1.1385  0.8114 -0.2533
  152SAPE  H16Y16945   5.193   1.222   8.815  0.3405 -0.3287  0.4490
  152SAPE  C31716946   5.020   1.089   8.773  0.6332 -0.3846 -0.1068
  152SAPE  H17X16947   4.940   1.035   8.827 -1.2451  0.4807 -1.8767
  152SAPE  H17Y16948   5.074   1.011   8.715 -0.0004 -2.1338  1.5783
  152SAPE  C31816949   4.951   1.188   8.675  0.4088  0.0648 -0.3115
  152SAPE  H18X16950   4.858   1.140   8.638 -0.0779  1.7452 -1.3519
  152SAPE  H18Y16951   5.028   1.218   8.600  0.9598 -0.9936 -0.1921
  152SAPE  H18Z16952   4.915   1.267   8.744  2.5907 -0.7231  1.8841
  153SAPE     N16953   1.605   0.275  10.695  0.4336 -0.3670  0.5254
  153SAPE   HN116954   1.622   0.243  10.597  1.3690 -0.5245  0.7238
  153SAPE   HN216955   1.514   0.237  10.727  0.1647  2.3962  3.4638
  153SAPE   HN316956   1.598   0.378  10.690  1.2923 -0.3577 -2.3179
  153SAPE   C1216957   1.727   0.219  10.761  0.4304 -0.5978  0.2035
  153SAPE  H12A16958   1.740   0.114  10.727  0.7894 -0.0444 -1.4426
  153SAPE  H12B16959   1.707   0.220  10.871  0.7574 -0.1594  0.2632
  153SAPE   C1116960   1.854   0.286  10.732 -1.1119  0.0580 -0.8528
  153SAPE  H11A16961   1.871   0.290  10.622  0.5245 -2.8119 -0.8152
  153SAPE  H11B16962   1.935   0.229  10.783 -1.1402  2.0657  1.6045
  153SAPE     P16963   1.940   0.528  10.734  0.5692  0.3866 -0.1288
  153SAPE   O1316964   1.881   0.587  10.612  0.5070 -0.0940 -0.2007
  153SAPE   O1416965   1.982   0.621  10.842  0.3962  0.4803  0.0635
  153SAPE   O1216966   1.839   0.414  10.791  0.3616 -0.3810 -0.0201
  153SAPE   O1116967   2.063   0.424  10.693 -0.0581  0.3025 -0.3990
  153SAPE    C116968   2.201   0.458  10.695 -0.0053  0.6443 -0.2151
  153SAPE    HA16969   2.215   0.563  10.727 -2.1704  0.7092  0.7175
  153SAPE    HB16970   2.253   0.399  10.773 -0.8975 -0.9140 -0.7617
  153SAPE    C216971   2.274   0.420  10.557  0.4013 -0.4490 -0.7294
  153SAPE    HS16972   2.382   0.416  10.584  0.0612  1.2104  1.1473
  153SAPE   O2116973   2.266   0.522  10.459  0.1059  0.0004 -0.1261
  153SAPE   C2116974   2.318   0.634  10.490  0.1896  0.7925  0.4056
  153SAPE   O2216975   2.385   0.657  10.589 -0.1263  0.1860 -0.0822
  153SAPE   C2216976   2.278   0.743  10.382  0.2339 -0.3617  0.2353
  153SAPE   H2R16977   2.285   0.704  10.278  0.9237  1.9754 -0.6576
  153SAPE   H2S16978   2.170   0.764  10.393 -0.0752 -1.2488 -0.8796
  153SAPE    C316979   2.228   0.288  10.503  0.4451  0.7641  0.9002
  153SAPE    HX16980   2.124   0.281  10.463  0.8718 -1.7430  0.0386
  153SAPE    HY16981   2.220   0.212  10.584 -1.1933 -0.6297 -0.4873
  153SAPE   O3116982   2.320   0.240  10.399  0.0994 -0.2600 -0.3517
  153SAPE   C3116983   2.423   0.173  10.443  0.3358 -0.0026 -0.2576
  153SAPE   O3216984   2.453   0.155  10.558  0.5808  0.4829  0.1626
  153SAPE   C3216985   2.512   0.122  10.322  0.8099  0.1163 -0.1847
  153SAPE   H2X16986   2.528   0.014  10.343  1.9663  0.8997  3.7268
  153SAPE   H2Y16987   2.608   0.174  10.341 -0.1258  0.9098  2.8945
  153SAPE   C2316988   2.357   0.879  10.397 -0.4193 -0.0741  0.1213
  153SAPE   H3R16989   2.464   0.862  10.374  0.1332  2.1605  0.7593
  153SAPE   H3S16990   2.359   0.913  10.502  1.6477  1.1626 -0.2559
  153SAPE   C2416991   2.289   0.987  10.309  0.3151  0.3391 -1.1288
  153SAPE   H4R16992   2.369   1.063  10.300  1.0719 -0.1187  1.1885
  153SAPE   H4S16993   2.209   1.032  10.372  1.8593 -0.7664  1.7910
  153SAPE   C2516994   2.238   0.949  10.170 -0.2639  0.3580 -0.3581
  153SAPE   H5R16995   2.142   0.895  10.174  0.1407 -0.2996  3.1067
  153SAPE   C2616996   2.302   0.975  10.052  0.1639 -0.3070 -0.6003
  153SAPE   H6R16997   2.258   0.936   9.959  2.2072  0.7892 -2.1099
  153SAPE   C2716998   2.428   1.054  10.026  0.0145  0.6473  0.1830
  153SAPE   H7R16999   2.500   1.055  10.111  0.6717 -0.6046 -0.3394
  153SAPE   H7S17000   2.391   1.159  10.018 -0.8799  0.7908  4.0403
  153SAPE   C2817001   2.504   1.001   9.904 -0.3166 -0.5680 -0.1335
  153SAPE   H8R17002   2.590   0.933   9.914  0.2663 -0.0210 -1.2564
  153SAPE   C2917003   2.490   1.042   9.777  0.5813  0.0224 -0.4509
  153SAPE   H9R17004   2.545   1.002   9.690  1.6148  0.7260 -0.1353
  153SAPE  C21017005   2.390   1.146   9.737 -0.0200 -0.1132  0.3282
  153SAPE  H10R17006   2.393   1.243   9.790 -1.6824  0.5545 -0.7236
  153SAPE  H10S17007   2.287   1.112   9.764  0.1165 -2.0066 -1.2878
  153SAPE  C21117008   2.402   1.184   9.593  0.3947 -0.0744  0.3097
  153SAPE  H11R17009   2.496   1.239   9.580  0.2613  0.8240  2.6985
  153SAPE  C21217010   2.309   1.172   9.497  0.1177 -0.0392  0.0067
  153SAPE  H12R17011   2.335   1.200   9.394 -1.1363  0.3747 -0.2138
  153SAPE  C21317012   2.173   1.105   9.512  0.1687 -0.0088  0.0823
  153SAPE  H13R17013   2.093   1.176   9.480  1.1670  1.1366  0.0357
  153SAPE  H13S17014   2.147   1.087   9.619  0.0321  0.7496  0.1858
  153SAPE  C21417015   2.161   0.971   9.446  0.8492  0.2526  0.6063
  153SAPE  H14R17016   2.243   0.925   9.390  1.1462  2.4777 -0.9286
  153SAPE  C21517017   2.044   0.904   9.439  0.0320 -0.2295 -0.4906
  153SAPE  H15R17018   2.050   0.807   9.388  0.5617 -0.8674  0.7434
  153SAPE  C21617019   1.911   0.941   9.489 -0.7759  0.2157  0.1799
  153SAPE  H16R17020   1.839   0.924   9.405 -1.0714  1.7029  0.1015
  153SAPE  H16S17021   1.903   1.045   9.527 -1.5253 -0.3429  1.6003
  153SAPE  C21717022   1.878   0.848   9.602  0.9300 -0.1155  0.2237
  153SAPE  H17R17023   1.939   0.886   9.687 -2.2113  2.1210  1.6855
  153SAPE  H17S17024   1.898   0.741   9.580  0.5333  0.3532 -2.7444
  153SAPE  C21817025   1.727   0.859   9.646 -0.2150 -0.5444  0.3446
  153SAPE  H18R17026   1.653   0.819   9.574  0.0392 -0.1256 -0.1581
  153SAPE  H18S17027   1.710   0.968   9.654  1.4572 -0.1839 -0.4396
  153SAPE  C21917028   1.714   0.786   9.781 -0.4081 -0.0469  0.2406
  153SAPE  H19R17029   1.766   0.847   9.858 -0.2882 -2.1911  1.9484
  153SAPE  H19S17030   1.759   0.685   9.786 -0.8728 -0.2420  0.6346
  153SAPE  C22017031   1.567   0.773   9.833 -0.0704  1.0821  0.1410
  153SAPE  H20R17032   1.530   0.680   9.786 -0.1923  0.9014  0.5873
  153SAPE  H20S17033   1.505   0.863   9.812 -1.3261  0.3374  0.5578
  153SAPE  H20T17034   1.564   0.753   9.942 -0.9664  1.8995  0.2720
  153SAPE   C3317035   2.440   0.150  10.186 -0.0449  0.3977 -0.0876
  153SAPE   H3X17036   2.424   0.259  10.174 -0.5591  0.2332 -0.9654
  153SAPE   H3Y17037   2.338   0.108  10.170 -0.3218  0.4129  1.4046
  153SAPE   C3417038   2.505   0.079  10.066  0.1734 -0.0228  0.1526
  153SAPE   H4X17039   2.472  -0.027  10.070  0.2027 -0.2047 -2.5913
  153SAPE   H4Y17040   2.616   0.086  10.056  0.2664 -2.7445 -2.0817
  153SAPE   C3517041   2.454   0.138   9.928 -0.1251  0.1126  1.1284
  153SAPE   H5X17042   2.492   0.242   9.920 -0.2799  0.2152  1.7410
  153SAPE   H5Y17043   2.343   0.141   9.924 -0.3028 -2.1266  2.5569
  153SAPE   C3617044   2.510   0.051   9.807  0.2284 -0.3509 -0.4211
  153SAPE   H6X17045   2.453  -0.045   9.811 -1.8030  0.8389  0.5228
  153SAPE   H6Y17046   2.620   0.036   9.819  0.1857  0.3310  0.9953
  153SAPE   C3717047   2.490   0.126   9.679  0.7571  1.1962  0.5452
  153SAPE   H7X17048   2.538   0.224   9.702  2.1599  1.1680 -1.9750
  153SAPE   H7Y17049   2.385   0.147   9.649  1.1268  0.0493 -1.7256
  153SAPE   C3817050   2.564   0.055   9.567 -0.0272  0.1884 -0.5227
  153SAPE   H8X17051   2.523  -0.043   9.537 -1.8939  0.4305  1.0434
  153SAPE   H8Y17052   2.660   0.027   9.615  1.5078  2.5343 -2.0263
  153SAPE   C3917053   2.563   0.148   9.442 -0.4370 -0.6633 -0.7236
  153SAPE   H9X17054   2.640   0.109   9.372 -0.8845 -0.3857 -1.3848
  153SAPE   H9Y17055   2.593   0.253   9.462  0.4687 -1.0395 -0.0425
  153SAPE  C31017056   2.433   0.148   9.374 -0.7716  0.0682  0.5861
  153SAPE  H10X17057   2.365   0.225   9.416 -0.0990  0.3540  1.1743
  153SAPE  H10Y17058   2.383   0.049   9.382 -0.9704  0.2905  2.7998
  153SAPE  C31117059   2.449   0.185   9.227 -0.2142 -0.9316 -0.2837
  153SAPE  H11X17060   2.505   0.101   9.181  0.0887 -1.7356  1.4437
  153SAPE  H11Y17061   2.515   0.274   9.217  0.1486 -1.2910 -1.1985
  153SAPE  C31217062   2.318   0.205   9.157 -0.2913 -0.0355  0.3650
  153SAPE  H12X17063   2.253   0.276   9.212  0.1691 -2.6372  4.7059
  153SAPE  H12Y17064   2.263   0.109   9.144 -0.1413  0.1743 -2.5605
  153SAPE  C31317065   2.339   0.246   9.013  0.4782 -0.5181 -0.3961
  153SAPE  H13X17066   2.419   0.179   8.976 -0.2177 -2.7939  1.9701
  153SAPE  H13Y17067   2.386   0.347   9.014 -0.1582 -0.2056 -0.8643
  153SAPE  C31417068   2.226   0.238   8.912  1.2421 -0.2623  0.3082
  153SAPE  H14X17069   2.196   0.131   8.914  0.0359  0.0473 -0.2260
  153SAPE  H14Y17070   2.265   0.263   8.811  1.7179 -1.3875  0.1898
  153SAPE  C31517071   2.098   0.323   8.944 -0.5071  0.4354 -0.3706
  153SAPE  H15X17072   2.109   0.410   9.013 -1.8398  0.6999 -0.4607
  153SAPE  H15Y17073   2.027   0.262   9.004 -0.6594  0.9251 -0.0516
  153SAPE  C31617074   2.028   0.355   8.815  0.3710  0.5842 -0.0679
  153SAPE  H16X17075   1.995   0.261   8.767 -0.3873  0.5364  0.5238
  153SAPE  H16Y17076   2.100   0.416   8.757 -0.4687  0.9270 -0.7799
  153SAPE  C31717077   1.908   0.442   8.827 -0.3793  0.0886 -0.3970
  153SAPE  H17X17078   1.943   0.544   8.854 -2.8287  0.4118  2.0237
  153SAPE  H17Y17079   1.840   0.415   8.910  0.5771  0.6566  0.5828
  153SAPE  C31817080   1.825   0.446   8.697  0.3174 -0.5078  0.2315
  153SAPE  H18X17081   1.741   0.517   8.712 -1.0146 -1.2061 -3.0432
  153SAPE  H18Y17082   1.775   0.349   8.680 -0.3546 -0.0358 -0.5296
  153SAPE  H18Z17083   1.875   0.483   8.604  0.5723  0.9509  0.9103
  154SAPE     N17084   3.153   6.567  10.936  0.9387  0.1649 -0.4853
  154SAPE   HN117085   3.061   6.611  10.919 -0.1973 -1.2321  1.5098
  154SAPE   HN217086   3.212   6.576  10.851  2.1333 -1.2423  0.1390
  154SAPE   HN317087   3.141   6.464  10.951 -0.2164 -0.1317 -2.9241
  154SAPE   C1217088   3.218   6.628  11.062  0.3055 -0.5423 -0.7023
  154SAPE  H12A17089   3.327   6.612  11.045  0.8863  1.9349  0.1541
  154SAPE  H12B17090   3.178   6.571  11.149 -0.3106 -0.2400 -0.7812
  154SAPE   C1117091   3.186   6.779  11.083  0.3706 -1.0394 -0.0646
  154SAPE  H11A17092   3.242   6.822  11.168 -1.3910  2.8085 -0.6288
  154SAPE  H11B17093   3.078   6.792  11.104  0.7165  0.1589  1.1220
  154SAPE     P17094   3.327   6.940  10.931 -0.0430 -0.3273  0.1930
  154SAPE   O1317095   3.365   7.023  11.045 -0.6178 -0.4075  0.2643
  154SAPE   O1417096   3.430   6.839  10.904 -0.0035 -0.0964 -0.0444
  154SAPE   O1217097   3.198   6.856  10.964 -0.8747 -0.2667 -0.0508
  154SAPE   O1117098   3.289   7.031  10.809  0.3065  0.0285  0.5744
  154SAPE    C117099   3.162   7.022  10.737 -0.9528  0.5382 -0.0364
  154SAPE    HA17100   3.082   6.963  10.786 -3.2743 -0.2329 -4.2785
  154SAPE    HB17101   3.125   7.127  10.739  0.4629  1.0861 -1.0539
  154SAPE    C217102   3.183   6.976  10.585 -0.0134 -0.3238  0.0276
  154SAPE    HS17103   3.258   7.043  10.536 -0.9026 -0.6550 -1.8697
  154SAPE   O2117104   3.063   6.989  10.520 -0.8242  0.1017  0.3340
  154SAPE   C2117105   3.020   7.108  10.495 -0.8995 -0.8937 -0.0962
  154SAPE   O2217106   3.071   7.214  10.524  0.1468 -0.1365  0.1180
  154SAPE   C2217107   2.879   7.105  10.424 -0.2027  0.4579 -0.2444
  154SAPE   H2R17108   2.828   7.009  10.447  1.6638 -0.0819  2.0753
  154SAPE   H2S17109   2.814   7.182  10.470 -2.2298 -2.2821  1.7855
  154SAPE    C317110   3.241   6.833  10.578  0.2272  0.0562 -0.3660
  154SAPE    HX17111   3.165   6.764  10.619  1.5800 -1.2328  0.0817
  154SAPE    HY17112   3.334   6.817  10.638  1.1972  2.0495 -1.2371
  154SAPE   O3117113   3.262   6.799  10.438  0.4749  0.3230 -0.1585
  154SAPE   C3117114   3.349   6.861  10.363 -0.2000  0.1932 -0.1420
  154SAPE   O3217115   3.425   6.946  10.407 -0.0874 -0.0708 -0.1550
  154SAPE   C3217116   3.339   6.801  10.220 -0.5235  0.6241 -0.7395
  154SAPE   H2X17117   3.233   6.771  10.209 -1.1417  2.5729 -0.6149
  154SAPE   H2Y17118   3.400   6.710  10.238 -3.2202 -1.1106  0.2486
  154SAPE   C2317119   2.873   7.116  10.274 -0.2923 -0.0236  0.9566
  154SAPE   H3R17120   2.778   7.069  10.242 -0.0105  1.4515 -2.5010
  154SAPE   H3S17121   2.962   7.067  10.229 -1.1862  0.6543 -1.7724
  154SAPE   C2417122   2.868   7.266  10.215 -0.3162  0.6656 -0.5272
  154SAPE   H4R17123   2.883   7.248  10.107  0.0429 -0.2648 -0.3310
  154SAPE   H4S17124   2.958   7.309  10.265 -0.4615  2.6888 -1.9192
  154SAPE   C2517125   2.745   7.340  10.251 -0.0053  0.1150 -0.4512
  154SAPE   H5R17126   2.755   7.387  10.350 -0.2395 -0.7598  0.0024
  154SAPE   C2617127   2.629   7.335  10.184  0.1872  0.2718 -0.2240
  154SAPE   H6R17128   2.553   7.400  10.231  1.7094  1.9314  0.0633
  154SAPE   C2717129   2.591   7.264  10.053  0.2429 -0.2944  0.1541
  154SAPE   H7R17130   2.503   7.200  10.075  0.4130 -0.8679 -0.7758
  154SAPE   H7S17131   2.675   7.195  10.029 -0.2163 -0.6187 -0.5504
  154SAPE   C2817132   2.558   7.359   9.932  0.6946  0.5290 -0.7233
  154SAPE   H8R17133   2.495   7.440   9.971  2.0692  0.0395  2.9273
  154SAPE   C2917134   2.607   7.365   9.811 -0.4239 -0.3078  0.5376
  154SAPE   H9R17135   2.569   7.437   9.738  0.6131 -1.1453 -0.8839
  154SAPE  C21017136   2.709   7.264   9.759 -0.2213  0.4832 -0.6218
  154SAPE  H10R17137   2.672   7.222   9.663  0.2788  0.0409 -0.6283
  154SAPE  H10S17138   2.720   7.182   9.833  0.2788  1.2303  0.1371
  154SAPE  C21117139   2.846   7.331   9.733  0.2782  0.1442  0.0725
  154SAPE  H11R17140   2.925   7.304   9.804 -0.6677 -0.8743  0.7513
  154SAPE  C21217141   2.881   7.399   9.623 -0.7694 -0.1579 -0.1473
  154SAPE  H12R17142   2.978   7.450   9.631 -1.3575  0.7200  2.1271
  154SAPE  C21317143   2.793   7.441   9.512  0.0591  0.1158  0.1678
  154SAPE  H13R17144   2.708   7.370   9.500 -1.5540  2.0289 -0.2495
  154SAPE  H13S17145   2.852   7.447   9.418  2.7994 -0.0984  1.7933
  154SAPE  C21417146   2.737   7.577   9.528  0.0502  0.5043  0.1792
  154SAPE  H14R17147   2.732   7.602   9.635  3.2282  1.4972  0.1965
  154SAPE  C21517148   2.684   7.661   9.445  0.2370  0.4279  0.2680
  154SAPE  H15R17149   2.633   7.749   9.487 -2.0461 -1.1104  0.8884
  154SAPE  C21617150   2.671   7.637   9.296 -0.2737 -0.4572  0.3244
  154SAPE  H16R17151   2.562   7.633   9.275 -0.5934  2.1385  1.1666
  154SAPE  H16S17152   2.716   7.539   9.268  0.3904 -0.0860  0.0777
  154SAPE  C21717153   2.734   7.752   9.203  0.4086  0.6362 -0.7381
  154SAPE  H17R17154   2.839   7.728   9.176  0.2634 -0.3101 -0.5148
  154SAPE  H17S17155   2.720   7.850   9.253 -0.9027  0.2104 -0.2232
  154SAPE  C21817156   2.672   7.747   9.061 -1.2558 -0.9769  0.1138
  154SAPE  H18R17157   2.561   7.757   9.055 -1.2965 -2.1303 -1.9401
  154SAPE  H18S17158   2.691   7.647   9.017  2.0159 -0.6985  0.6813
  154SAPE  C21917159   2.750   7.846   8.973 -0.3334  0.1599 -1.0969
  154SAPE  H19R17160   2.793   7.795   8.884 -0.6441  1.1611 -1.8307
  154SAPE  H19S17161   2.840   7.882   9.027  0.0827 -1.8190 -0.3848
  154SAPE  C22017162   2.655   7.960   8.932 -0.5190  0.3630  0.4104
  154SAPE  H20R17163   2.711   8.042   8.883 -0.4447  0.6251  0.9194
  154SAPE  H20S17164   2.615   8.006   9.026  1.7750  2.1304  0.5980
  154SAPE  H20T17165   2.575   7.927   8.863  0.7032 -2.0700  0.0735
  154SAPE   C3317166   3.378   6.896  10.109 -0.7662  0.1708  0.1119
  154SAPE   H3X17167   3.475   6.941  10.137 -0.9124 -0.8239  2.5089
  154SAPE   H3Y17168   3.298   6.971  10.090 -1.1614 -0.7163 -2.1791
  154SAPE   C3417169   3.386   6.839   9.965  0.3396  0.3182 -0.0204
  154SAPE   H4X17170   3.285   6.803   9.938 -0.1436  1.0517  0.7745
  154SAPE   H4Y17171   3.451   6.748   9.965 -2.4669 -1.8375  1.1161
  154SAPE   C3517172   3.417   6.937   9.852 -0.0201  0.8192 -0.6368
  154SAPE   H5X17173   3.526   6.957   9.854  0.4070 -1.3438  0.2148
  154SAPE   H5Y17174   3.365   7.033   9.874 -0.8942  0.3699 -0.6917
  154SAPE   C3617175   3.395   6.895   9.709 -0.5659 -0.2095  0.3870
  154SAPE   H6X17176   3.294   6.863   9.675 -0.1867 -0.4943 -0.5029
  154SAPE   H6Y17177   3.462   6.809   9.689 -0.2272 -0.3200  1.8451
  154SAPE   C3717178   3.438   7.012   9.620  0.7056 -0.2308 -0.1073
  154SAPE   H7X17179   3.543   7.034   9.651  0.7196 -0.1045 -0.2450
  154SAPE   H7Y17180   3.372   7.098   9.644 -2.4403 -2.7020  0.7365
  154SAPE   C3817181   3.422   6.971   9.470 -0.7429  0.8602 -0.9633
  154SAPE   H8X17182   3.323   6.920   9.465 -0.0290 -0.7898  0.5667
  154SAPE   H8Y17183   3.500   6.893   9.455  1.8649  3.4213 -1.7489
  154SAPE   C3917184   3.429   7.098   9.384  0.2407  0.2761  0.0062
  154SAPE   H9X17185   3.528   7.147   9.398  0.0669  1.2402 -1.7998
  154SAPE   H9Y17186   3.359   7.181   9.409  0.0281  0.5129 -1.3138
  154SAPE  C31017187   3.408   7.086   9.230  0.2427 -0.8785  0.6265
  154SAPE  H10X17188   3.300   7.084   9.202 -0.3400 -2.1604  2.7817
  154SAPE  H10Y17189   3.443   6.990   9.188 -1.2556 -0.5002 -1.7052
  154SAPE  C31117190   3.472   7.208   9.166 -0.0023  0.1151  0.3169
  154SAPE  H11X17191   3.579   7.217   9.195  0.3475 -3.2470  0.4561
  154SAPE  H11Y17192   3.417   7.292   9.213 -0.0984 -0.6566  1.6404
  154SAPE  C31217193   3.467   7.208   9.012  0.8033 -0.6870  0.4352
  154SAPE  H12X17194   3.362   7.176   8.998  0.3535  1.7202 -2.6977
  154SAPE  H12Y17195   3.532   7.134   8.961  1.1337 -0.1795  0.1097
  154SAPE  C31317196   3.496   7.345   8.947 -0.1820  0.1296  0.4496
  154SAPE  H13X17197   3.605   7.361   8.935 -0.6125  1.6959 -2.3609
  154SAPE  H13Y17198   3.452   7.431   9.004 -1.8510  0.1763 -0.8134
  154SAPE  C31417199   3.432   7.363   8.803 -0.1197  0.1335 -0.0926
  154SAPE  H14X17200   3.322   7.375   8.809 -0.0538  0.3412  0.9279
  154SAPE  H14Y17201   3.445   7.264   8.754  2.7447 -0.6883  2.0257
  154SAPE  C31517202   3.481   7.482   8.728  0.4907  0.2282 -0.1389
  154SAPE  H15X17203   3.590   7.467   8.712  0.3811 -1.3613  0.4538
  154SAPE  H15Y17204   3.465   7.579   8.780 -0.6483 -1.1344  2.2261
  154SAPE  C31617205   3.420   7.482   8.587 -0.3147  0.1938 -0.4072
  154SAPE  H16X17206   3.309   7.484   8.590 -0.3189 -0.6665  0.9327
  154SAPE  H16Y17207   3.453   7.391   8.533  0.0825 -0.0673  0.2540
  154SAPE  C31717208   3.459   7.609   8.520  0.4952 -0.0795  0.6092
  154SAPE  H17X17209   3.569   7.623   8.525  0.3556  2.7434 -1.6455
  154SAPE  H17Y17210   3.408   7.693   8.572 -0.4965  0.1049 -0.6197
  154SAPE  C31817211   3.405   7.602   8.374 -0.1758  0.1465  0.3344
  154SAPE  H18X17212   3.294   7.608   8.381 -0.0269  3.4379  1.0765
  154SAPE  H18Y17213   3.421   7.509   8.315  1.3888  1.2889 -1.1245
  154SAPE  H18Z17214   3.426   7.691   8.313 -3.4285 -0.9432 -2.7238
  155SAPE     N17215   6.733   1.148  10.849 -0.1803 -0.2332 -0.2432
  155SAPE   HN117216   6.674   1.212  10.907 -1.4912 -0.9431 -0.7529
  155SAPE   HN217217   6.781   1.091  10.922  0.3416  2.6142  1.8206
  155SAPE   HN317218   6.807   1.203  10.800  1.2046 -1.9106 -0.1346
  155SAPE   C1217219   6.647   1.077  10.745  0.3090  0.6867 -0.7209
  155SAPE  H12A17220   6.579   1.013  10.806  0.5360  0.4230 -0.7407
  155SAPE  H12B17221   6.703   1.009  10.678 -0.8733  0.5134 -1.5648
  155SAPE   C1117222   6.557   1.168  10.663 -0.4084 -0.5744  0.4081
  155SAPE  H11A17223   6.474   1.117  10.611 -1.6771  1.8643 -0.1108
  155SAPE  H11B17224   6.626   1.213  10.588  0.3056 -0.5457  1.0678
  155SAPE     P17225   6.365   1.296  10.793  0.0836 -0.3924  0.0827
  155SAPE   O1317226   6.336   1.204  10.904  0.5173 -0.0268  0.4463
  155SAPE   O1417227   6.345   1.443  10.805 -0.2850  0.7438  0.0005
  155SAPE   O1217228   6.514   1.277  10.741 -0.1206 -0.0587 -0.1459
  155SAPE   O1117229   6.282   1.244  10.666  0.3868 -0.1460  0.0421
  155SAPE    C117230   6.212   1.123  10.653 -0.5060  0.1203 -0.2721
  155SAPE    HA17231   6.266   1.050  10.717  0.7526  0.3354 -1.0638
  155SAPE    HB17232   6.109   1.136  10.694 -0.8212 -1.9678 -0.2681
  155SAPE    C217233   6.192   1.082  10.504 -0.1575  0.0285 -0.0015
  155SAPE    HS17234   6.291   1.107  10.462 -0.3904  0.5122 -0.2658
  155SAPE   O2117235   6.080   1.159  10.454  0.0940 -0.4351  0.7482
  155SAPE   C2117236   6.093   1.195  10.332  0.2656  0.4012  0.1697
  155SAPE   O2217237   6.198   1.196  10.268  0.7497 -0.2068  0.0228
  155SAPE   C2217238   5.960   1.246  10.283 -0.4102 -0.4514  0.1135
  155SAPE   H2R17239   5.891   1.159  10.289 -1.4474  0.2305 -1.3407
  155SAPE   H2S17240   5.930   1.333  10.346  0.5382  0.0158 -0.0641
  155SAPE    C317241   6.169   0.925  10.480 -0.0489 -0.0857 -0.2735
  155SAPE    HX17242   6.068   0.899  10.518 -0.5437 -0.3709 -1.6994
  155SAPE    HY17243   6.244   0.877  10.546 -0.3716  1.9228  1.6782
  155SAPE   O3117244   6.189   0.888  10.340 -0.3626 -0.0927  0.0728
  155SAPE   C3117245   6.308   0.876  10.294  0.3284 -0.1800  0.7571
  155SAPE   O3217246   6.413   0.915  10.342 -0.1611 -0.3021 -0.1963
  155SAPE   C3217247   6.317   0.794  10.162 -0.6315 -0.9260  0.2290
  155SAPE   H2X17248   6.274   0.863  10.086  0.5128  0.2835  0.6433
  155SAPE   H2Y17249   6.248   0.707  10.171 -1.5314 -0.2359  0.1679
  155SAPE   C2317250   5.980   1.286  10.132 -0.3576  0.1335 -0.2030
  155SAPE   H3R17251   6.012   1.195  10.076  0.0853  0.6275 -0.7695
  155SAPE   H3S17252   6.050   1.370  10.110 -0.1492 -0.3075 -1.2581
  155SAPE   C2417253   5.850   1.336  10.052 -0.0341  0.4111 -0.6146
  155SAPE   H4R17254   5.876   1.361   9.947  0.2800 -0.0764 -0.6606
  155SAPE   H4S17255   5.825   1.431  10.103  3.0715 -0.0091  2.0151
  155SAPE   C2517256   5.737   1.234  10.072  0.9824  0.2609 -0.2476
  155SAPE   H5R17257   5.702   1.229  10.176  3.5172  0.7733  0.7162
  155SAPE   C2617258   5.676   1.165   9.973  0.8601 -0.4507  0.0963
  155SAPE   H6R17259   5.588   1.106  10.000 -1.1678  1.5729 -1.7220
  155SAPE   C2717260   5.716   1.167   9.824  0.0469  0.3898 -0.0377
  155SAPE   H7R17261   5.750   1.064   9.800  1.5540  1.4416 -2.9162
  155SAPE   H7S17262   5.799   1.237   9.800  0.0856  0.5676  0.5857
  155SAPE   C2817263   5.603   1.203   9.732  0.0736 -0.0989  0.1620
  155SAPE   H8R17264   5.512   1.204   9.793  1.0844 -0.3110  1.7466
  155SAPE   C2917265   5.604   1.223   9.597 -0.7266  0.5582  0.8046
  155SAPE   H9R17266   5.510   1.253   9.548 -0.5217 -0.4578 -0.2428
  155SAPE  C21017267   5.725   1.219   9.503 -0.1183 -0.9684  0.0401
  155SAPE  H10R17268   5.755   1.116   9.474 -2.2165 -1.4601 -0.5645
  155SAPE  H10S17269   5.813   1.260   9.557 -1.8275 -0.5220  2.6433
  155SAPE  C21117270   5.697   1.309   9.389 -0.3819  0.0939 -0.2056
  155SAPE  H11R17271   5.754   1.403   9.390  1.2591 -0.8089 -1.8830
  155SAPE  C21217272   5.631   1.278   9.275 -0.7766  0.1356  0.3009
  155SAPE  H12R17273   5.624   1.362   9.204  1.2361  0.7471  0.7613
  155SAPE  C21317274   5.566   1.147   9.232 -0.2179 -0.0582  0.3764
  155SAPE  H13R17275   5.466   1.157   9.185 -0.0276 -1.3048 -0.3466
  155SAPE  H13S17276   5.545   1.081   9.319 -1.4320 -2.1139 -1.3604
  155SAPE  C21417277   5.655   1.075   9.143  0.9958 -0.0413 -0.5368
  155SAPE  H14R17278   5.728   1.013   9.198 -0.2808 -0.1286  1.1633
  155SAPE  C21517279   5.659   1.069   9.008 -0.2598 -0.8131 -0.0050
  155SAPE  H15R17280   5.738   1.010   8.960  0.2320 -0.8177  0.7929
  155SAPE  C21617281   5.573   1.148   8.914 -0.1043 -0.2079  1.2502
  155SAPE  H16R17282   5.603   1.255   8.921  2.2404 -0.6898 -0.2038
  155SAPE  H16S17283   5.468   1.148   8.951 -0.9867  0.2850 -1.0721
  155SAPE  C21717284   5.584   1.103   8.770  0.2998 -0.5562  0.1640
  155SAPE  H17R17285   5.682   1.056   8.745  0.5092 -0.3197  0.5257
  155SAPE  H17S17286   5.561   1.187   8.702 -1.0414 -1.2681 -0.3083
  155SAPE  C21817287   5.485   0.988   8.736 -0.4368  0.4063  0.9094
  155SAPE  H18R17288   5.386   1.034   8.716  0.5355  2.1352 -0.2183
  155SAPE  H18S17289   5.497   0.915   8.819  0.5278 -0.1979  0.2662
  155SAPE  C21917290   5.511   0.918   8.597  0.2754 -0.8590 -0.1698
  155SAPE  H19R17291   5.451   0.826   8.581  0.4649 -1.1340  0.6428
  155SAPE  H19S17292   5.619   0.897   8.583  1.3253  3.7850 -0.7392
  155SAPE  C22017293   5.478   1.010   8.471  0.0792  0.7775 -0.8031
  155SAPE  H20R17294   5.373   1.045   8.483 -0.8136 -2.0086  0.2958
  155SAPE  H20S17295   5.503   0.957   8.377  0.8991  0.7436 -0.5739
  155SAPE  H20T17296   5.552   1.093   8.478 -0.1820  0.9027  1.4109
  155SAPE   C3317297   6.462   0.746  10.114  0.7260 -0.1998 -0.2909
  155SAPE   H3X17298   6.500   0.683  10.197 -0.6926  0.7016  1.0989
  155SAPE   H3Y17299   6.523   0.837  10.093  0.6291 -0.4386 -1.7395
  155SAPE   C3417300   6.448   0.661   9.987  0.2919  0.1837  0.0853
  155SAPE   H4X17301   6.393   0.724   9.913  0.4726 -1.2716 -1.3318
  155SAPE   H4Y17302   6.378   0.577  10.004  0.0561  0.2323 -0.6138
  155SAPE   C3517303   6.576   0.603   9.926 -0.0989 -0.6091  0.1920
  155SAPE   H5X17304   6.589   0.496   9.952 -0.1039 -0.6916 -0.1423
  155SAPE   H5Y17305   6.654   0.663   9.977 -1.8227  0.7406  1.3640
  155SAPE   C3617306   6.585   0.633   9.774  0.2821  0.0612 -0.0230
  155SAPE   H6X17307   6.589   0.744   9.761 -3.2228  0.3558  0.5467
  155SAPE   H6Y17308   6.499   0.595   9.716 -1.4286  1.6928  1.2999
  155SAPE   C3717309   6.704   0.562   9.719 -0.0699 -0.9159 -0.2733
  155SAPE   H7X17310   6.682   0.454   9.732 -1.7048 -0.5126  0.5575
  155SAPE   H7Y17311   6.792   0.587   9.781  0.3501 -0.4946 -1.0207
  155SAPE   C3817312   6.732   0.599   9.573  0.0180  1.1211  0.0729
  155SAPE   H8X17313   6.808   0.679   9.564  1.5009 -0.3619 -1.2622
  155SAPE   H8Y17314   6.642   0.639   9.522 -0.1856 -0.0258 -0.4971
  155SAPE   C3917315   6.775   0.478   9.482  0.0699  0.8789  0.0856
  155SAPE   H9X17316   6.690   0.406   9.487 -1.0763  2.2488  1.4031
  155SAPE   H9Y17317   6.853   0.417   9.532 -0.0494  0.7987  0.1764
  155SAPE  C31017318   6.788   0.511   9.329  0.4077  0.3106  0.0067
  155SAPE  H10X17319   6.855   0.599   9.322 -0.7231  1.0595 -2.1123
  155SAPE  H10Y17320   6.698   0.527   9.265  0.4738 -1.4807 -0.5784
  155SAPE  C31117321   6.861   0.394   9.260  0.1406  0.2736 -0.5131
  155SAPE  H11X17322   6.789   0.311   9.248  0.6687 -0.8705  2.9724
  155SAPE  H11Y17323   6.948   0.360   9.321 -1.0756  1.0901  1.7973
  155SAPE  C31217324   6.899   0.422   9.117  0.2086  0.0129  0.3874
  155SAPE  H12X17325   6.922   0.530   9.105 -1.8352  0.5798  1.0941
  155SAPE  H12Y17326   6.806   0.396   9.060 -0.3734 -0.9255  1.7094
  155SAPE  C31317327   7.017   0.338   9.060  0.0580 -0.9079  1.2640
  155SAPE  H13X17328   7.006   0.231   9.088 -1.9414 -0.9707  0.3701
  155SAPE  H13Y17329   7.104   0.386   9.109  0.3933  0.4202 -0.5327
  155SAPE  C31417330   7.029   0.345   8.904  0.1958  0.3565 -0.2182
  155SAPE  H14X17331   7.020   0.452   8.875 -0.0841  0.9587  1.9272
  155SAPE  H14Y17332   6.939   0.296   8.861 -0.0477  0.1320  0.5304
  155SAPE  C31517333   7.160   0.284   8.852  0.2175  0.4590 -1.2042
  155SAPE  H15X17334   7.173   0.179   8.885  1.6015  0.8869 -0.2759
  155SAPE  H15Y17335   7.245   0.331   8.906  1.1196 -3.5689  1.2821
  155SAPE  C31617336   7.166   0.300   8.703 -0.6665 -0.3961 -0.0301
  155SAPE  H16X17337   7.151   0.407   8.677  2.5421  0.0682 -0.3170
  155SAPE  H16Y17338   7.078   0.245   8.663 -2.3552  2.6306 -0.8021
  155SAPE  C31717339   7.293   0.254   8.640 -0.0260  0.1625  0.9106
  155SAPE  H17X17340   7.316   0.153   8.680 -0.0485  0.0605  0.6635
  155SAPE  H17Y17341   7.376   0.327   8.652 -0.6258  1.3314 -1.3993
  155SAPE  C31817342   7.271   0.251   8.488 -0.2777  0.6060 -0.2131
  155SAPE  H18X17343   7.200   0.326   8.447 -1.1734  0.1383  0.4489
  155SAPE  H18Y17344   7.237   0.148   8.466 -1.9822  1.2241 -0.6304
  155SAPE  H18Z17345   7.370   0.259   8.438 -0.2568  1.4954 -0.0517
  156SAPE     N17346   3.390   5.897  10.941 -0.6915 -0.0019  0.4986
  156SAPE   HN117347   3.291   5.930  10.938 -0.6055  0.7403  3.1676
  156SAPE   HN217348   3.440   5.919  11.029 -2.9577  1.3942  1.5299
  156SAPE   HN317349   3.440   5.922  10.854 -1.5937 -1.8987 -0.6361
  156SAPE   C1217350   3.377   5.748  10.925  0.4545  0.5453  0.4091
  156SAPE  H12A17351   3.301   5.722  10.848 -0.1012 -0.5511  1.2854
  156SAPE  H12B17352   3.348   5.711  11.027 -0.6907  1.6050  0.4928
  156SAPE   C1117353   3.509   5.679  10.898 -0.4486  0.2220 -0.9999
  156SAPE  H11A17354   3.494   5.569  10.891 -1.5774  0.2203  1.0196
  156SAPE  H11B17355   3.582   5.699  10.979 -1.2222  0.4004 -0.3469
  156SAPE     P17356   3.656   5.835  10.738 -0.4580 -0.0616 -0.1972
  156SAPE   O1317357   3.570   5.958  10.767  0.5251  0.3900 -0.3587
  156SAPE   O1417358   3.780   5.817  10.819  0.0790 -0.0246  0.4179
  156SAPE   O1217359   3.557   5.709  10.768  0.2892  0.0988  0.1613
  156SAPE   O1117360   3.679   5.820  10.582 -0.1340 -0.1202  0.0410
  156SAPE    C117361   3.739   5.709  10.517  0.4343 -0.4379 -0.7240
  156SAPE    HA17362   3.704   5.608  10.548  2.0408 -0.4307  1.3521
  156SAPE    HB17363   3.708   5.717  10.410 -1.4672  0.2903 -0.1616
  156SAPE    C217364   3.891   5.724  10.529 -0.6850 -0.2389 -0.0458
  156SAPE    HS17365   3.922   5.708  10.634 -1.0997  2.9030  0.6498
  156SAPE   O2117366   3.923   5.858  10.485  0.2096 -0.5393 -0.1271
  156SAPE   C2117367   4.038   5.913  10.510  0.4889  0.8595  0.1131
  156SAPE   O2217368   4.126   5.857  10.572  0.4895 -0.1886 -0.5715
  156SAPE   C2217369   4.048   6.052  10.450 -0.7544  0.4201 -0.0289
  156SAPE   H2R17370   3.968   6.118  10.489  0.1522  1.2039  0.5292
  156SAPE   H2S17371   4.140   6.099  10.491 -1.1870  2.6970 -1.4892
  156SAPE    C317372   3.950   5.615  10.444 -0.9120  0.1001  0.2823
  156SAPE    HX17373   3.914   5.525  10.498  0.0208 -0.4345  0.0286
  156SAPE    HY17374   4.060   5.616  10.460 -1.1333 -1.3107  2.2786
  156SAPE   O3117375   3.909   5.615  10.307  0.6081 -0.2553  0.2725
  156SAPE   C3117376   3.992   5.674  10.227  0.3186 -0.3296 -0.9592
  156SAPE   O3217377   4.107   5.711  10.256  0.2088 -0.6210  1.1152
  156SAPE   C3217378   3.927   5.679  10.090 -0.1950 -0.1865  0.1008
  156SAPE   H2X17379   3.843   5.753  10.090  2.1916  2.8247  2.8034
  156SAPE   H2Y17380   3.879   5.585  10.054  1.6033 -0.8176 -0.7460
  156SAPE   C2317381   4.063   6.054  10.299  0.4562  1.1650  0.1619
  156SAPE   H3R17382   4.127   5.967  10.273  0.3129  0.1954  2.7229
  156SAPE   H3S17383   4.114   6.140  10.251  0.5652  0.3084 -1.2920
  156SAPE   C2417384   3.928   6.029  10.231  0.2132 -0.0146  0.1845
  156SAPE   H4R17385   3.867   5.950  10.278 -2.1562  1.3746 -0.3574
  156SAPE   H4S17386   3.943   5.988  10.128 -1.4207  0.5927 -0.3227
  156SAPE   C2517387   3.852   6.160  10.225  0.1013  0.1777 -0.1279
  156SAPE   H5R17388   3.859   6.226  10.313  1.6113 -1.0344  0.7103
  156SAPE   C2617389   3.788   6.210  10.119  0.4675  0.4093  1.0465
  156SAPE   H6R17390   3.746   6.311  10.128  0.7009  0.5556  0.5314
  156SAPE   C2717391   3.792   6.137   9.985 -0.1436 -0.7245 -0.3390
  156SAPE   H7R17392   3.892   6.096   9.961  0.7458  0.0301  1.8314
  156SAPE   H7S17393   3.776   6.204   9.897 -2.1477 -0.1886  0.3665
  156SAPE   C2817394   3.699   6.024   9.964 -0.1496  0.6307  0.4415
  156SAPE   H8R17395   3.691   5.958  10.052 -0.7576  1.2231  0.8411
  156SAPE   C2917396   3.627   5.999   9.847 -0.1352  1.1131  0.1536
  156SAPE   H9R17397   3.566   5.910   9.828 -0.3894  1.1870  0.6020
  156SAPE  C21017398   3.643   6.072   9.712 -0.2112  1.0129 -0.7581
  156SAPE  H10R17399   3.617   5.987   9.647 -0.1917  0.7910 -0.4766
  156SAPE  H10S17400   3.749   6.097   9.691  1.1946 -2.0172  1.8602
  156SAPE  C21117401   3.537   6.177   9.696 -0.5101 -0.5907  0.6129
  156SAPE  H11R17402   3.526   6.235   9.789  1.0413 -0.5449  0.8021
  156SAPE  C21217403   3.472   6.209   9.582 -0.8194  0.2824  0.5610
  156SAPE  H12R17404   3.398   6.290   9.580 -0.4430  0.6464  1.2971
  156SAPE  C21317405   3.497   6.133   9.450 -0.2313 -0.4109  0.8470
  156SAPE  H13R17406   3.405   6.135   9.388 -0.9492  2.4182  1.8763
  156SAPE  H13S17407   3.509   6.024   9.471 -0.8295 -1.2533 -2.6543
  156SAPE  C21417408   3.616   6.176   9.369 -0.1373 -0.3173  0.2185
  156SAPE  H14R17409   3.709   6.201   9.423  0.3647 -2.2396  0.3120
  156SAPE  C21517410   3.615   6.188   9.237  0.3917  0.2386 -0.6709
  156SAPE  H15R17411   3.703   6.237   9.192  0.0524 -0.0629 -1.7053
  156SAPE  C21617412   3.509   6.160   9.137 -0.0694 -0.1368 -1.1404
  156SAPE  H16R17413   3.417   6.133   9.193  0.9098 -0.2188  0.4880
  156SAPE  H16S17414   3.523   6.074   9.067 -0.7130 -2.5477  1.4773
  156SAPE  C21717415   3.468   6.280   9.056  0.3970 -0.2480 -0.2150
  156SAPE  H17R17416   3.438   6.371   9.113  1.3109 -0.4109  0.5409
  156SAPE  H17S17417   3.375   6.258   9.000 -0.5947 -1.1730  1.6792
  156SAPE  C21817418   3.582   6.317   8.958  0.2022 -0.1449 -0.2442
  156SAPE  H18R17419   3.614   6.237   8.888  1.7192  1.0096 -0.9172
  156SAPE  H18S17420   3.663   6.359   9.021 -0.4207  2.5387 -1.1051
  156SAPE  C21917421   3.541   6.428   8.866 -0.4017 -0.1024 -0.7557
  156SAPE  H19R17422   3.633   6.479   8.828 -0.2371 -0.0535 -0.2930
  156SAPE  H19S17423   3.475   6.498   8.922 -0.7642 -0.0350 -1.2614
  156SAPE  C22017424   3.471   6.373   8.742  0.4701 -0.2262 -0.0733
  156SAPE  H20R17425   3.546   6.326   8.675 -0.2236 -1.5110 -0.0000
  156SAPE  H20S17426   3.437   6.464   8.689 -1.4358 -0.2709  0.9848
  156SAPE  H20T17427   3.377   6.319   8.767 -0.7752  2.3404  1.1603
  156SAPE   C3317428   4.028   5.738   9.987  0.9342 -0.3453 -0.7564
  156SAPE   H3X17429   4.119   5.673   9.981  1.9503  0.3745  3.6908
  156SAPE   H3Y17430   4.061   5.838  10.023 -0.4804  0.1936 -0.8962
  156SAPE   C3417431   3.965   5.762   9.849 -0.3573  0.5402  0.1943
  156SAPE   H4X17432   4.037   5.812   9.782 -0.8343  0.9328 -0.0304
  156SAPE   H4Y17433   3.872   5.823   9.861 -0.2022  0.5794  1.3309
  156SAPE   C3517434   3.940   5.639   9.765  0.1094 -0.3276  0.2624
  156SAPE   H5X17435   3.845   5.598   9.806 -0.5679  0.3157 -0.6220
  156SAPE   H5Y17436   4.019   5.562   9.775 -0.7498 -1.0632  1.7100
  156SAPE   C3617437   3.913   5.689   9.618  0.1534  0.7585  0.4374
  156SAPE   H6X17438   4.011   5.690   9.566 -0.6527  1.7620 -1.1138
  156SAPE   H6Y17439   3.875   5.793   9.626 -0.2057  0.5491  1.6773
  156SAPE   C3717440   3.837   5.586   9.531  0.7982  0.7541 -0.4982
  156SAPE   H7X17441   3.733   5.572   9.569  0.9079 -0.7506 -0.6986
  156SAPE   H7Y17442   3.892   5.490   9.535  0.9789  0.7088 -2.8643
  156SAPE   C3817443   3.822   5.636   9.384  0.1864  0.7354 -0.4649
  156SAPE   H8X17444   3.926   5.654   9.349  1.1100  0.3991  1.9061
  156SAPE   H8Y17445   3.759   5.728   9.379 -1.0136  0.0363  0.9090
  156SAPE   C3917446   3.763   5.531   9.281  1.0126  0.1975 -0.3667
  156SAPE   H9X17447   3.659   5.499   9.304  0.9052 -0.0573 -1.1539
  156SAPE   H9Y17448   3.812   5.434   9.301 -0.5320  0.0093  3.4706
  156SAPE  C31017449   3.792   5.567   9.135  0.1752 -0.3945  0.4925
  156SAPE  H10X17450   3.738   5.494   9.071  0.8567  1.9890 -3.0751
  156SAPE  H10Y17451   3.900   5.564   9.109  0.1105  2.4027 -0.3281
  156SAPE  C31117452   3.748   5.710   9.094 -0.0886 -0.4198  0.1934
  156SAPE  H11X17453   3.826   5.783   9.124  0.6091 -1.0020 -0.1789
  156SAPE  H11Y17454   3.658   5.736   9.154  1.6813  1.4623  2.1904
  156SAPE  C31217455   3.728   5.719   8.942 -0.5706  0.0523 -0.0589
  156SAPE  H12X17456   3.671   5.628   8.915 -0.0193 -0.0618 -0.8858
  156SAPE  H12Y17457   3.824   5.719   8.887 -1.0318 -1.3779 -0.9069
  156SAPE  C31317458   3.642   5.834   8.892  0.4113 -0.0101 -0.1517
  156SAPE  H13X17459   3.641   5.823   8.781  0.3516 -0.4717 -0.1089
  156SAPE  H13Y17460   3.682   5.935   8.916 -1.1340  0.3891  0.8928
  156SAPE  C31417461   3.496   5.827   8.941 -0.5915  0.0031 -0.0533
  156SAPE  H14X17462   3.445   5.925   8.946 -1.7194 -0.5669 -0.1753
  156SAPE  H14Y17463   3.505   5.784   9.043 -0.9577  3.2802  1.4784
  156SAPE  C31517464   3.407   5.736   8.854  0.2212 -0.0223 -0.4866
  156SAPE  H15X17465   3.320   5.700   8.912  0.4008 -0.6564 -0.6030
  156SAPE  H15Y17466   3.471   5.650   8.826  1.3327  0.9592 -1.0428
  156SAPE  C31617467   3.358   5.805   8.722  0.1397  0.1916 -0.0991
  156SAPE  H16X17468   3.424   5.887   8.686 -0.8908  1.5795  1.0409
  156SAPE  H16Y17469   3.259   5.855   8.738 -0.0763 -0.1893 -0.2343
  156SAPE  C31717470   3.350   5.704   8.612  0.4755  0.2586  0.6435
  156SAPE  H17X17471   3.306   5.608   8.646  0.3532 -0.2874 -1.0087
  156SAPE  H17Y17472   3.449   5.673   8.573 -0.8398 -0.4175 -2.4105
  156SAPE  C31817473   3.282   5.747   8.481  0.6379  0.3412 -0.8588
  156SAPE  H18X17474   3.320   5.841   8.436 -2.5217  1.5151 -1.2734
  156SAPE  H18Y17475   3.173   5.764   8.492  0.9582  1.4572  1.0741
  156SAPE  H18Z17476   3.286   5.669   8.402 -0.5863  1.3015 -1.9239
  157SAPE     N17477   2.369   5.113  11.060  0.6174  0.0974 -0.2990
  157SAPE   HN117478   2.407   5.203  11.097  0.0462  0.0581  0.3996
  157SAPE   HN217479   2.415   5.108  10.967 -1.2664  2.9972 -1.5390
  157SAPE   HN317480   2.268   5.122  11.039  0.2925 -0.1072  1.0835
  157SAPE   C1217481   2.396   4.985  11.129  0.1405 -0.7226  0.1361
  157SAPE  H12A17482   2.372   5.000  11.236  1.3994  0.4986  0.2879
  157SAPE  H12B17483   2.507   4.983  11.121  0.6526  4.4225  1.9124
  157SAPE   C1117484   2.314   4.869  11.067  0.1036 -0.2961 -0.2180
  157SAPE  H11A17485   2.341   4.777  11.123  1.3855  0.7576  0.9743
  157SAPE  H11B17486   2.353   4.848  10.965 -2.2275 -1.0924 -0.9931
  157SAPE     P17487   2.094   4.948  10.935 -0.4551 -0.1853 -0.0412
  157SAPE   O1317488   1.951   4.939  10.957 -0.0726  0.0455 -0.0698
  157SAPE   O1417489   2.141   5.082  10.891 -0.4782  0.0636  0.3637
  157SAPE   O1217490   2.173   4.885  11.063  0.1901 -0.1582  0.1610
  157SAPE   O1117491   2.138   4.840  10.820  0.3204  0.4343 -0.5749
  157SAPE    C117492   2.243   4.868  10.727 -0.1697 -0.4964  0.7521
  157SAPE    HA17493   2.317   4.940  10.767  1.1661 -0.4900 -1.5272
  157SAPE    HB17494   2.299   4.772  10.718  1.4150  0.4707 -0.1283
  157SAPE    C217495   2.186   4.924  10.590 -0.0758  0.2996 -0.9018
  157SAPE    HS17496   2.149   5.027  10.609 -1.0755 -0.2445  0.1577
  157SAPE   O2117497   2.092   4.831  10.530 -0.6096  0.7250  0.1552
  157SAPE   C2117498   1.962   4.862  10.549 -1.0135 -1.1301 -0.4618
  157SAPE   O2217499   1.926   4.973  10.584  0.2075  0.2145 -0.6994
  157SAPE   C2217500   1.871   4.748  10.501 -0.5225  0.1446 -0.0071
  157SAPE   H2R17501   1.945   4.679  10.456  1.2638  1.4192  0.8217
  157SAPE   H2S17502   1.834   4.703  10.596  0.4967 -0.3679  0.1588
  157SAPE    C317503   2.306   4.938  10.498  0.0794  0.2966 -0.2308
  157SAPE    HX17504   2.361   4.842  10.491 -0.9113 -0.4893  1.7876
  157SAPE    HY17505   2.376   5.009  10.547 -0.9859  1.6862 -0.6433
  157SAPE   O3117506   2.267   4.992  10.370 -0.3068 -0.1922  0.1380
  157SAPE   C3117507   2.348   5.065  10.303 -0.1376 -0.1646 -0.6010
  157SAPE   O3217508   2.461   5.099  10.345  0.7372 -0.1302  0.2039
  157SAPE   C3217509   2.287   5.113  10.165  0.1537  0.8393 -0.2358
  157SAPE   H2X17510   2.362   5.070  10.095 -0.8323  0.9191 -1.3754
  157SAPE   H2Y17511   2.273   5.223  10.170 -2.9603  0.4647  2.1481
  157SAPE   C2317512   1.742   4.789  10.419  0.1910 -0.5282 -0.8518
  157SAPE   H3R17513   1.779   4.837  10.326  0.2454  2.0187  0.3960
  157SAPE   H3S17514   1.684   4.866  10.475 -2.2782 -2.5598 -0.4096
  157SAPE   C2417515   1.641   4.668  10.393 -0.1348 -0.3450  0.3574
  157SAPE   H4R17516   1.636   4.620  10.493  3.9910  0.9061  1.3620
  157SAPE   H4S17517   1.704   4.615  10.319  1.4721  0.7146  0.9042
  157SAPE   C2517518   1.506   4.694  10.332 -0.2477  0.1453 -0.1057
  157SAPE   H5R17519   1.417   4.674  10.393  0.1745 -0.8709  0.2011
  157SAPE   C2617520   1.486   4.731  10.202  0.2246  0.0654 -0.2846
  157SAPE   H6R17521   1.380   4.723  10.171 -0.1638 -1.1205  1.2365
  157SAPE   C2717522   1.595   4.771  10.108  0.9931 -0.2939 -0.0454
  157SAPE   H7R17523   1.678   4.697  10.108  1.7493  0.5196  1.9897
  157SAPE   H7S17524   1.619   4.875  10.136 -2.2933  1.5100 -3.0127
  157SAPE   C2817525   1.545   4.774   9.960 -0.1318 -0.1662 -0.1424
  157SAPE   H8R17526   1.512   4.872   9.922  0.2403 -0.0513 -0.1740
  157SAPE   C2917527   1.550   4.675   9.872 -0.0607  1.2735  0.4966
  157SAPE   H9R17528   1.509   4.688   9.771  0.0750 -0.3799  0.2136
  157SAPE  C21017529   1.619   4.542   9.887 -0.3708  0.1181  0.8830
  157SAPE  H10R17530   1.555   4.464   9.840  1.0308 -0.9322  0.6342
  157SAPE  H10S17531   1.613   4.504   9.992 -2.1083 -2.1232  0.0552
  157SAPE  C21117532   1.757   4.542   9.828  0.0151  0.3233 -0.5305
  157SAPE  H11R17533   1.831   4.509   9.903  0.0862  0.1627 -0.6718
  157SAPE  C21217534   1.803   4.573   9.706  0.4009 -0.0833  0.1125
  157SAPE  H12R17535   1.909   4.554   9.688  1.1898  2.7157  1.2713
  157SAPE  C21317536   1.724   4.636   9.589  0.0147  0.0649 -0.7555
  157SAPE  H13R17537   1.739   4.746   9.583  0.2473  0.2038  1.3971
  157SAPE  H13S17538   1.614   4.637   9.600  0.2270  1.1957  2.7246
  157SAPE  C21417539   1.765   4.582   9.457  0.7393  0.2793  0.4454
  157SAPE  H14R17540   1.848   4.510   9.456  0.6256  0.1228 -1.8376
  157SAPE  C21517541   1.711   4.600   9.336  0.0816 -0.3077  0.2360
  157SAPE  H15R17542   1.766   4.547   9.257  2.2963 -1.4213  2.3856
  157SAPE  C21617543   1.589   4.688   9.311 -0.5097  0.3446  0.9417
  157SAPE  H16R17544   1.548   4.745   9.397 -1.9280  0.1013  0.4543
  157SAPE  H16S17545   1.503   4.630   9.272 -0.7376  0.9980  0.4489
  157SAPE  C21717546   1.609   4.799   9.201  0.3459  0.8920  0.5866
  157SAPE  H17R17547   1.511   4.852   9.196  1.2408  2.6482  0.5945
  157SAPE  H17S17548   1.634   4.750   9.104  2.7156  0.5566  1.3020
  157SAPE  C21817549   1.724   4.901   9.229 -1.1391 -0.3148 -0.3666
  157SAPE  H18R17550   1.825   4.858   9.247 -1.0685 -0.3973 -0.9435
  157SAPE  H18S17551   1.690   4.944   9.326  0.7596 -1.5696  0.9240
  157SAPE  C21917552   1.729   5.018   9.126 -0.1204  1.3708  0.2401
  157SAPE  H19R17553   1.632   5.069   9.113  0.4293  2.2618 -0.5473
  157SAPE  H19S17554   1.750   4.974   9.026  0.1849  3.2283 -0.5572
  157SAPE  C22017555   1.838   5.111   9.158 -0.9443  0.0077  0.0053
  157SAPE  H20R17556   1.849   5.124   9.268 -2.1360  1.3244 -0.0158
  157SAPE  H20S17557   1.834   5.212   9.113 -1.1080  0.1057  0.2408
  157SAPE  H20T17558   1.932   5.061   9.126 -0.7545 -0.9552  1.9239
  157SAPE   C3317559   2.157   5.034  10.144 -0.2684 -0.2800  0.1851
  157SAPE   H3X17560   2.080   5.060  10.220 -1.9783 -3.4144 -0.3300
  157SAPE   H3Y17561   2.170   4.925  10.157  2.4318  0.2218  3.0093
  157SAPE   C3417562   2.105   5.052  10.001 -0.0392  0.4272  0.1501
  157SAPE   H4X17563   2.186   5.028   9.928 -1.3422  1.8985 -1.8924
  157SAPE   H4Y17564   2.076   5.157   9.979 -0.4401 -0.3645 -3.9809
  157SAPE   C3517565   1.984   4.965   9.972  0.0635  0.1380  0.1526
  157SAPE   H5X17566   2.002   4.865  10.018  2.0051 -0.1702 -1.1484
  157SAPE   H5Y17567   1.993   4.957   9.862 -1.8777 -0.1561 -0.0148
  157SAPE   C3617568   1.849   5.025  10.008  0.5787  0.1455  0.2401
  157SAPE   H6X17569   1.861   5.107  10.082 -0.9899  0.8028 -0.1965
  157SAPE   H6Y17570   1.782   4.946  10.050  0.0423  0.0412 -0.7916
  157SAPE   C3717571   1.770   5.067   9.882  0.1319 -0.7416 -1.6391
  157SAPE   H7X17572   1.756   4.984   9.810 -0.8778  0.3209 -2.7159
  157SAPE   H7Y17573   1.823   5.150   9.831 -0.0307  0.7270  0.4878
  157SAPE   C3817574   1.630   5.128   9.909  0.1430  0.2645  0.2343
  157SAPE   H8X17575   1.643   5.228   9.955  0.8771  1.3611 -2.1950
  157SAPE   H8Y17576   1.573   5.073   9.987 -3.1514  4.7431  1.3512
  157SAPE   C3917577   1.542   5.151   9.788  0.0735 -0.0758  0.6461
  157SAPE   H9X17578   1.446   5.205   9.807 -0.4564 -0.7255 -0.1527
  157SAPE   H9Y17579   1.509   5.056   9.742  0.6091  0.1296 -0.1686
  157SAPE  C31017580   1.606   5.230   9.671  0.2174 -0.0357  0.4721
  157SAPE  H10X17581   1.679   5.159   9.626  0.7277  1.3238 -0.9745
  157SAPE  H10Y17582   1.668   5.315   9.707  1.6230 -0.7760 -0.1201
  157SAPE  C31117583   1.505   5.279   9.564 -0.8627  0.4344  0.3044
  157SAPE  H11X17584   1.434   5.352   9.607  2.8130  3.9146  1.0271
  157SAPE  H11Y17585   1.438   5.200   9.523 -1.2647  0.7780  0.2881
  157SAPE  C31217586   1.576   5.353   9.450 -0.4022  0.2514 -1.1820
  157SAPE  H12X17587   1.676   5.305   9.438 -0.8481 -1.3483  0.9253
  157SAPE  H12Y17588   1.605   5.453   9.490  1.1820 -0.4786 -0.4135
  157SAPE  C31317589   1.506   5.356   9.317  0.3207  0.2908  0.4276
  157SAPE  H13X17590   1.426   5.433   9.316 -0.3915 -0.4468 -0.3192
  157SAPE  H13Y17591   1.463   5.259   9.283  0.2955  0.9450 -1.4813
  157SAPE  C31417592   1.593   5.404   9.195 -0.3142 -0.3567 -0.1145
  157SAPE  H14X17593   1.694   5.359   9.198 -1.1617 -2.4392 -0.7896
  157SAPE  H14Y17594   1.600   5.514   9.207 -1.6655 -0.3527  0.9030
  157SAPE  C31517595   1.545   5.375   9.046 -0.7369  0.4020 -1.5172
  157SAPE  H15X17596   1.442   5.416   9.042 -1.0408  0.2498  1.9486
  157SAPE  H15Y17597   1.529   5.266   9.031 -0.8931  0.4201 -1.4855
  157SAPE  C31617598   1.637   5.416   8.938  0.2921  0.3459  0.9616
  157SAPE  H16X17599   1.739   5.399   8.980  0.0387  0.9528  1.8417
  157SAPE  H16Y17600   1.636   5.526   8.921 -0.8533  0.0382 -1.2221
  157SAPE  C31717601   1.594   5.355   8.800 -0.1484  0.4316  0.3308
  157SAPE  H17X17602   1.613   5.249   8.829  1.3609  1.1357  2.1491
  157SAPE  H17Y17603   1.665   5.383   8.720 -0.3171 -0.7070 -0.2421
  157SAPE  C31817604   1.454   5.383   8.747  0.4008 -0.4171  0.5173
  157SAPE  H18X17605   1.422   5.487   8.768 -1.0374 -0.9191  0.9212
  157SAPE  H18Y17606   1.371   5.332   8.800 -4.0048  3.6500 -1.6703
  157SAPE  H18Z17607   1.441   5.371   8.637 -3.5211 -0.8472  0.8733
  158SAPE     N17608   1.288   6.411  10.953  0.4989  0.1465 -0.1429
  158SAPE   HN117609   1.242   6.495  10.995 -1.0777 -0.2376 -1.0262
  158SAPE   HN217610   1.325   6.344  11.023 -0.7556 -1.0353 -0.5652
  158SAPE   HN317611   1.375   6.439  10.904 -0.0634 -1.0055 -1.9004
  158SAPE   C1217612   1.196   6.341  10.859  0.6318  0.7394  0.4602
  158SAPE  H12A17613   1.102   6.326  10.918  0.9988 -0.1308  0.8408
  158SAPE  H12B17614   1.250   6.245  10.846  0.2854  0.6182 -0.1021
  158SAPE   C1117615   1.164   6.435  10.739 -0.4216 -0.7120 -0.1495
  158SAPE  H11A17616   1.108   6.383  10.658  0.2913  0.0111 -1.1260
  158SAPE  H11B17617   1.260   6.461  10.690  0.6824 -0.5072  2.0097
  158SAPE     P17618   1.136   6.694  10.728  0.4833 -0.4330 -0.1681
  158SAPE   O1317619   1.015   6.771  10.700  0.4732 -0.5764 -0.5524
  158SAPE   O1417620   1.223   6.754  10.831 -0.3867 -0.2504 -0.6138
  158SAPE   O1217621   1.093   6.552  10.779  0.1253 -0.3334 -0.1427
  158SAPE   O1117622   1.223   6.676  10.597  0.1759  0.0693 -0.2737
  158SAPE    C117623   1.176   6.660  10.464 -0.3691  0.1001  0.4381
  158SAPE    HA17624   1.263   6.612  10.414  0.0244 -1.0657  2.1607
  158SAPE    HB17625   1.097   6.582  10.458  0.5201 -0.8342  0.3448
  158SAPE    C217626   1.139   6.792  10.383 -0.2937 -0.0200 -0.4508
  158SAPE    HS17627   1.059   6.837  10.446  0.8154 -0.4045  1.2905
  158SAPE   O2117628   1.101   6.753  10.249  0.3481  0.1356 -0.1778
  158SAPE   C2117629   1.008   6.830  10.188  0.5162  0.2692  0.4639
  158SAPE   O2217630   0.937   6.912  10.243  0.6890  0.2547 -0.3148
  158SAPE   C2217631   1.009   6.807  10.036 -0.3319 -0.3223  0.0616
  158SAPE   H2R17632   1.043   6.903   9.992 -2.1138  0.7428  0.8759
  158SAPE   H2S17633   1.087   6.731  10.015  1.5261  0.6632  2.7378
  158SAPE    C317634   1.263   6.892  10.368  0.1484  0.1896 -0.4964
  158SAPE    HX17635   1.304   6.896  10.471  3.3559 -0.7958 -1.6441
  158SAPE    HY17636   1.221   6.990  10.335 -1.9246 -0.0109  1.3011
  158SAPE   O3117637   1.365   6.825  10.287  0.1799  0.0139  0.4555
  158SAPE   C3117638   1.354   6.860  10.159  0.4469  0.2807  0.0618
  158SAPE   O3217639   1.272   6.936  10.112 -0.0123 -0.1467 -0.0625
  158SAPE   C3217640   1.463   6.789  10.078 -0.2482 -0.1239 -0.3352
  158SAPE   H2X17641   1.421   6.696  10.034  0.0230  0.1079 -1.1067
  158SAPE   H2Y17642   1.549   6.774  10.147 -1.3464  2.4010  1.7618
  158SAPE   C2317643   0.871   6.765   9.984  0.3073 -0.2104 -0.4495
  158SAPE   H3R17644   0.809   6.856   9.999  0.1455 -0.2320 -0.9641
  158SAPE   H3S17645   0.819   6.688  10.046  0.7888 -1.0292 -1.0404
  158SAPE   C2417646   0.870   6.751   9.834 -0.2578 -0.5268 -0.0958
  158SAPE   H4R17647   0.773   6.705   9.804 -1.3729 -0.9754  3.6863
  158SAPE   H4S17648   0.949   6.677   9.814  0.3589 -0.9136  3.1721
  158SAPE   C2517649   0.898   6.874   9.751 -0.0312 -0.0877 -0.1652
  158SAPE   H5R17650   0.867   6.966   9.802 -0.0932  1.4963 -2.8568
  158SAPE   C2617651   0.953   6.890   9.637  0.3550 -0.5512  0.0920
  158SAPE   H6R17652   0.935   6.987   9.588 -3.0018 -0.5602  1.0888
  158SAPE   C2717653   1.013   6.785   9.550 -0.5063 -0.3988 -0.2972
  158SAPE   H7R17654   1.001   6.809   9.443  0.4247 -0.8086 -0.5034
  158SAPE   H7S17655   0.959   6.690   9.570  0.5187 -0.9751 -0.1505
  158SAPE   C2817656   1.160   6.759   9.573 -0.0754 -0.9648  0.2088
  158SAPE   H8R17657   1.182   6.727   9.676  1.3873  0.6909  0.4646
  158SAPE   C2917658   1.266   6.781   9.495 -0.1983 -0.3458  0.0533
  158SAPE   H9R17659   1.369   6.763   9.530  0.2559  1.4025 -0.2519
  158SAPE  C21017660   1.260   6.826   9.352 -0.1698  0.5170 -1.2459
  158SAPE  H10R17661   1.361   6.861   9.324 -0.4238  2.5883  0.2677
  158SAPE  H10S17662   1.187   6.909   9.347 -1.7371 -0.8635 -3.3561
  158SAPE  C21117663   1.210   6.714   9.263  0.5037 -0.1287 -1.1532
  158SAPE  H11R17664   1.201   6.612   9.305 -3.8370  0.2093 -0.7614
  158SAPE  C21217665   1.163   6.731   9.138 -0.3449  0.9964  0.3787
  158SAPE  H12R17666   1.136   6.642   9.080 -0.4947  1.2788  0.0173
  158SAPE  C21317667   1.160   6.857   9.059  0.5038 -0.1801  0.6437
  158SAPE  H13R17668   1.260   6.868   9.013 -0.4572 -1.5166 -1.9867
  158SAPE  H13S17669   1.138   6.944   9.125 -0.7732 -0.4131  0.5550
  158SAPE  C21417670   1.053   6.869   8.956 -0.0754 -0.1954  0.3943
  158SAPE  H14R17671   1.086   6.852   8.853 -0.7996  1.9718 -0.2499
  158SAPE  C21517672   0.921   6.877   8.986 -0.0943  0.2021  0.4297
  158SAPE  H15R17673   0.854   6.882   8.898 -0.7371 -0.9317  0.8259
  158SAPE  C21617674   0.851   6.876   9.118  0.3473  0.3881 -0.6762
  158SAPE  H16R17675   0.923   6.910   9.196  0.0237  0.3430 -0.3567
  158SAPE  H16S17676   0.812   6.774   9.134 -0.4962  0.6964 -0.7256
  158SAPE  C21717677   0.728   6.966   9.101 -0.4355  0.0934  0.2382
  158SAPE  H17R17678   0.654   6.938   9.024 -0.8229  0.6247  0.4148
  158SAPE  H17S17679   0.764   7.067   9.073 -1.2943  0.7177  1.3054
  158SAPE  C21817680   0.658   6.985   9.233  0.1573  0.0289 -0.3556
  158SAPE  H18R17681   0.553   7.015   9.218 -0.1274  0.6926  2.3779
  158SAPE  H18S17682   0.703   7.074   9.282  1.4462  0.2665 -1.9037
  158SAPE  C21917683   0.672   6.873   9.341  0.0894  0.5812  0.7656
  158SAPE  H19R17684   0.778   6.847   9.360  1.4895  4.7917 -0.1363
  158SAPE  H19S17685   0.619   6.792   9.287  1.3848  0.7400 -0.8320
  158SAPE  C22017686   0.615   6.912   9.474  0.2255  0.0626 -1.3036
  158SAPE  H20R17687   0.508   6.940   9.469 -0.0109  0.2991  2.4264
  158SAPE  H20S17688   0.669   6.998   9.517 -0.2279 -0.8440  1.3067
  158SAPE  H20T17689   0.618   6.841   9.559 -0.2507  2.3461  0.7213
  158SAPE   C3317690   1.515   6.887   9.968  0.1159  0.4217  0.3936
  158SAPE   H3X17691   1.568   6.969  10.021  0.0866  2.0179 -1.9012
  158SAPE   H3Y17692   1.434   6.932   9.907  2.5812  2.1703 -1.7693
  158SAPE   C3417693   1.603   6.828   9.861  0.2493  0.5125 -0.0196
  158SAPE   H4X17694   1.556   6.759   9.788  1.1023 -1.3021  1.0735
  158SAPE   H4Y17695   1.680   6.769   9.915  0.8433  0.2729 -1.0944
  158SAPE   C3517696   1.668   6.940   9.777 -0.6080  0.2784  0.4627
  158SAPE   H5X17697   1.737   6.890   9.707 -1.7463  1.2647 -1.4296
  158SAPE   H5Y17698   1.732   7.011   9.834  1.2007  0.0527 -1.1950
  158SAPE   C3617699   1.562   7.008   9.688  0.0928 -0.3555 -0.1188
  158SAPE   H6X17700   1.498   7.078   9.746 -1.1656 -0.5097 -1.2842
  158SAPE   H6Y17701   1.499   6.927   9.648  0.9929 -2.7279  2.8871
  158SAPE   C3717702   1.625   7.081   9.563  0.2838  0.0428  0.4061
  158SAPE   H7X17703   1.701   7.012   9.519  0.3016  0.7618 -0.6997
  158SAPE   H7Y17704   1.681   7.173   9.592 -0.2988  0.2737  0.8040
  158SAPE   C3817705   1.530   7.106   9.445  0.7626 -1.1467 -0.1067
  158SAPE   H8X17706   1.454   7.179   9.480  1.7950  1.5572 -3.0158
  158SAPE   H8Y17707   1.471   7.019   9.410 -1.8019  0.1879  0.6624
  158SAPE   C3917708   1.583   7.190   9.332 -0.4280  0.5486  0.3505
  158SAPE   H9X17709   1.651   7.135   9.264 -1.1361  1.2155 -0.9517
  158SAPE   H9Y17710   1.636   7.282   9.363 -0.3580  0.7181 -0.2475
  158SAPE  C31017711   1.469   7.231   9.242 -0.2177 -0.8164  0.6176
  158SAPE  H10X17712   1.391   7.287   9.297  0.4620  0.7272  0.0502
  158SAPE  H10Y17713   1.423   7.137   9.205 -4.1618 -0.0948  3.0526
  158SAPE  C31117714   1.518   7.315   9.123  0.0611  0.0148 -0.1203
  158SAPE  H11X17715   1.438   7.303   9.046  1.3979 -0.5048 -1.5069
  158SAPE  H11Y17716   1.607   7.270   9.073  0.4375 -1.1978  1.5481
  158SAPE  C31217717   1.538   7.468   9.152 -0.7182  0.2005 -0.2506
  158SAPE  H12X17718   1.627   7.479   9.217 -0.9269  1.3499 -0.1307
  158SAPE  H12Y17719   1.450   7.500   9.212 -1.5838 -2.8077  0.2296
  158SAPE  C31317720   1.543   7.552   9.030  0.5803 -0.0121  0.1027
  158SAPE  H13X17721   1.444   7.535   8.982  0.0781  0.3950  0.9685
  158SAPE  H13Y17722   1.620   7.515   8.958  0.3255 -2.7232  1.1023
  158SAPE  C31417723   1.556   7.709   9.058 -0.2118  0.6016  0.5998
  158SAPE  H14X17724   1.637   7.712   9.134  0.0829 -1.3846  0.4005
  158SAPE  H14Y17725   1.461   7.741   9.106 -0.8714 -1.2620  0.6111
  158SAPE  C31517726   1.587   7.799   8.930  0.2617  0.4350 -0.5753
  158SAPE  H15X17727   1.496   7.798   8.867 -1.4976 -0.5027  1.8397
  158SAPE  H15Y17728   1.675   7.770   8.869 -0.6169 -2.0670 -0.7458
  158SAPE  C31617729   1.622   7.941   8.979  0.1617 -0.2719  0.3874
  158SAPE  H16X17730   1.553   7.980   9.058 -0.6801 -0.1056 -0.4135
  158SAPE  H16Y17731   1.619   8.004   8.888 -0.2525 -1.1452 -0.2155
  158SAPE  C31717732   1.761   7.943   9.041  0.3838 -0.2533  0.2426
  158SAPE  H17X17733   1.812   7.886   8.961 -0.3820 -0.6325  0.0093
  158SAPE  H17Y17734   1.772   7.879   9.131 -0.2109 -0.7792 -0.0449
  158SAPE  C31817735   1.823   8.082   9.056  0.5474 -0.9565  0.9714
  158SAPE  H18X17736   1.931   8.083   9.082  0.6874 -0.4763  0.4017
  158SAPE  H18Y17737   1.777   8.132   9.143  0.6994  1.0264 -0.0455
  158SAPE  H18Z17738   1.812   8.137   8.960  0.6151 -0.2569  1.3638
  159SAPE     N17739   3.278   3.562   6.453  0.5318 -0.3607  0.9340
  159SAPE   HN117740   3.239   3.634   6.389  1.6074 -0.3032  0.3208
  159SAPE   HN217741   3.336   3.496   6.397  0.7961 -0.0611  0.8569
  159SAPE   HN317742   3.188   3.516   6.479 -1.3237  2.5055  0.0555
  159SAPE   C1217743   3.345   3.621   6.570  0.1995  0.0926 -0.3616
  159SAPE  H12A17744   3.271   3.677   6.631  0.2029 -0.5214  0.2090
  159SAPE  H12B17745   3.417   3.700   6.540  1.7345 -0.8927  0.6167
  159SAPE   C1117746   3.403   3.506   6.659 -0.1532 -0.0586  0.6275
  159SAPE  H11A17747   3.325   3.439   6.699 -0.8706 -0.0707 -0.7189
  159SAPE  H11B17748   3.447   3.566   6.742  0.5674  0.4763 -0.1163
  159SAPE     P17749   3.650   3.443   6.614  0.3649 -0.0720 -0.2568
  159SAPE   O1317750   3.728   3.337   6.551 -0.4261  0.2689  0.3718
  159SAPE   O1417751   3.691   3.578   6.590  0.3812  1.0229  0.0228
  159SAPE   O1217752   3.494   3.426   6.587  0.1815 -0.5796  0.3143
  159SAPE   O1117753   3.642   3.423   6.772 -0.0635 -0.3237 -0.0896
  159SAPE    C117754   3.745   3.460   6.861  0.6572 -0.3782  0.2856
  159SAPE    HA17755   3.803   3.546   6.822  0.5711 -0.5351 -0.1970
  159SAPE    HB17756   3.701   3.477   6.962 -0.2580 -0.0393 -0.1659
  159SAPE    C217757   3.851   3.346   6.860 -0.3157  0.7101  0.1018
  159SAPE    HS17758   3.880   3.336   6.753 -0.6293  2.0005 -0.1179
  159SAPE   O2117759   3.794   3.224   6.906 -0.1189 -0.3893  0.4821
  159SAPE   C2117760   3.868   3.120   6.899  0.1403 -0.3295  0.4755
  159SAPE   O2217761   3.972   3.107   6.840 -0.1934  0.3222 -0.8661
  159SAPE   C2217762   3.800   3.001   6.973  0.3255  0.1617 -0.2103
  159SAPE   H2R17763   3.885   2.953   7.025 -0.8469  1.0028  2.6491
  159SAPE   H2S17764   3.728   3.047   7.045  1.3340  0.9636  0.3053
  159SAPE    C317765   3.974   3.385   6.947  0.2167 -1.0229  0.7551
  159SAPE    HX17766   4.034   3.471   6.910  1.9366 -1.1214  3.1419
  159SAPE    HY17767   4.054   3.309   6.961  1.6014  0.2633  0.1007
  159SAPE   O3117768   3.917   3.437   7.070 -0.3658  0.2806 -0.5428
  159SAPE   C3117769   3.935   3.343   7.171 -0.3359  0.3334 -0.5057
  159SAPE   O3217770   3.972   3.229   7.159  0.4317 -0.0244  0.0068
  159SAPE   C3217771   3.900   3.411   7.310 -0.2270 -0.6300 -0.0319
  159SAPE   H2X17772   3.815   3.479   7.289 -1.0416 -2.1098 -1.8903
  159SAPE   H2Y17773   3.988   3.471   7.340  0.8045 -1.6937 -0.8409
  159SAPE   C2317774   3.728   2.903   6.878 -0.3692 -0.0889 -0.2978
  159SAPE   H3R17775   3.796   2.878   6.794 -0.6097 -2.1090  0.0412
  159SAPE   H3S17776   3.643   2.964   6.843 -2.6208 -2.6015  0.4568
  159SAPE   C2417777   3.685   2.776   6.952  1.0047  0.7077 -0.5310
  159SAPE   H4R17778   3.768   2.713   6.990 -1.7229 -1.4204  2.4315
  159SAPE   H4S17779   3.648   2.699   6.880  0.7195  0.4020 -0.0648
  159SAPE   C2517780   3.586   2.785   7.071  0.1215  0.4114 -0.0327
  159SAPE   H5R17781   3.484   2.802   7.034  0.4768  1.2653 -0.6494
  159SAPE   C2617782   3.615   2.780   7.208 -0.1088  1.0281  0.9080
  159SAPE   H6R17783   3.534   2.796   7.280 -1.1164 -1.5294  0.4759
  159SAPE   C2717784   3.744   2.762   7.277 -0.1081 -0.5466  0.0368
  159SAPE   H7R17785   3.820   2.735   7.200 -0.1882 -1.0324  0.1247
  159SAPE   H7S17786   3.737   2.682   7.353 -0.0052  0.2720  0.9330
  159SAPE   C2817787   3.793   2.892   7.334  0.3429 -0.4538 -0.5612
  159SAPE   H8R17788   3.852   2.954   7.265 -0.0274  1.8971  1.1312
  159SAPE   C2917789   3.778   2.925   7.463 -0.8653  0.1482  0.1484
  159SAPE   H9R17790   3.814   3.025   7.490 -1.4865  0.5399 -0.4348
  159SAPE  C21017791   3.722   2.848   7.578 -0.1064 -0.0386 -0.6822
  159SAPE  H10R17792   3.685   2.748   7.549 -0.4447 -0.2521  0.4264
  159SAPE  H10S17793   3.640   2.910   7.621 -0.5970 -1.7349  0.9705
  159SAPE  C21117794   3.836   2.814   7.680 -0.0901  0.0314  0.8003
  159SAPE  H11R17795   3.921   2.773   7.623  0.5589 -0.6292  2.2167
  159SAPE  C21217796   3.828   2.829   7.813  0.7059  0.2150  0.2710
  159SAPE  H12R17797   3.911   2.784   7.871  1.6285  1.6343  0.1038
  159SAPE  C21317798   3.708   2.876   7.886 -0.5341  0.3292 -0.5786
  159SAPE  H13R17799   3.635   2.919   7.814  0.1648  0.5310 -1.1759
  159SAPE  H13S17800   3.730   2.970   7.942 -0.8181  0.0217  0.0522
  159SAPE  C21417801   3.635   2.796   7.983  0.1616 -0.1834  0.4526
  159SAPE  H14R17802   3.562   2.732   7.931 -0.2366  0.1197  0.6260
  159SAPE  C21517803   3.651   2.800   8.117 -0.5947  0.2243 -0.2517
  159SAPE  H15R17804   3.590   2.740   8.187 -1.2002  2.6899  1.4487
  159SAPE  C21617805   3.759   2.876   8.189  0.1748 -0.4405 -0.4014
  159SAPE  H16R17806   3.747   2.984   8.163  2.4739 -0.0724 -0.0808
  159SAPE  H16S17807   3.861   2.843   8.162  0.2887 -0.8727  0.5327
  159SAPE  C21717808   3.760   2.853   8.342  1.1450 -1.0435  0.3532
  159SAPE  H17R17809   3.834   2.921   8.388  0.0083 -0.4440  1.3472
  159SAPE  H17S17810   3.788   2.751   8.376  0.7850 -0.9769  0.8683
  159SAPE  C21817811   3.619   2.886   8.405 -0.0028  0.4713 -0.8756
  159SAPE  H18R17812   3.548   2.804   8.382 -0.0665  0.0272  0.7762
  159SAPE  H18S17813   3.590   2.986   8.367 -1.7997  0.2572 -0.1790
  159SAPE  C21917814   3.629   2.898   8.561 -0.2254  0.3123 -0.0237
  159SAPE  H19R17815   3.531   2.929   8.603 -0.8402 -0.6889 -0.6609
  159SAPE  H19S17816   3.702   2.978   8.583  0.5705 -0.0762 -1.1424
  159SAPE  C22017817   3.685   2.769   8.621  0.1518  0.4691 -0.2694
  159SAPE  H20R17818   3.628   2.679   8.589 -0.4056  0.4851  0.6460
  159SAPE  H20S17819   3.673   2.773   8.731 -0.7168 -0.4710 -0.3114
  159SAPE  H20T17820   3.794   2.767   8.596  1.2151  0.2420  3.7674
  159SAPE   C3317821   3.865   3.313   7.422 -1.0417  0.2045 -0.1237
  159SAPE   H3X17822   3.949   3.241   7.434  0.1545  0.5192 -4.6387
  159SAPE   H3Y17823   3.781   3.257   7.375 -1.3056  2.1611 -2.1684
  159SAPE   C3417824   3.834   3.396   7.541 -0.9343  0.6114  1.4243
  159SAPE   H4X17825   3.754   3.468   7.516 -1.3127  0.8610  3.2057
  159SAPE   H4Y17826   3.928   3.451   7.561  2.4078 -2.2268 -4.1666
  159SAPE   C3517827   3.777   3.305   7.658 -0.0384 -0.5102  0.7471
  159SAPE   H5X17828   3.857   3.231   7.680  1.7192  0.8423 -0.7330
  159SAPE   H5Y17829   3.687   3.251   7.620 -0.1942  1.0174 -1.2063
  159SAPE   C3617830   3.753   3.396   7.774 -1.0269  0.1788 -0.6254
  159SAPE   H6X17831   3.682   3.478   7.749  0.6199  1.2077 -2.2495
  159SAPE   H6Y17832   3.849   3.444   7.804 -2.0236  1.9427 -0.1504
  159SAPE   C3717833   3.706   3.315   7.898 -0.5076  0.1617  0.6506
  159SAPE   H7X17834   3.785   3.255   7.946 -1.5100 -1.3510  0.4957
  159SAPE   H7Y17835   3.624   3.249   7.860 -0.0530  0.4376 -0.8754
  159SAPE   C3817836   3.655   3.413   7.998  0.1056 -0.1187 -0.0073
  159SAPE   H8X17837   3.623   3.361   8.091 -2.5200  0.7806 -0.2984
  159SAPE   H8Y17838   3.567   3.468   7.957  1.6754  2.5205 -0.0466
  159SAPE   C3917839   3.763   3.522   8.046 -0.7867  0.1868 -0.1723
  159SAPE   H9X17840   3.803   3.577   7.958  0.0723  1.0522  0.7260
  159SAPE   H9Y17841   3.835   3.467   8.110 -1.8485  0.5079  1.3676
  159SAPE  C31017842   3.696   3.619   8.138 -0.6097  0.4353  0.2790
  159SAPE  H10X17843   3.660   3.569   8.231  0.8119  1.2874  1.3447
  159SAPE  H10Y17844   3.618   3.655   8.069  0.3858  1.2870 -0.4429
  159SAPE  C31117845   3.787   3.732   8.193 -0.3062 -0.0849 -0.0283
  159SAPE  H11X17846   3.825   3.783   8.102  1.7473 -1.9537 -0.2887
  159SAPE  H11Y17847   3.877   3.690   8.243 -0.8615 -0.4724  0.6592
  159SAPE  C31217848   3.713   3.822   8.291 -0.2231  0.4115 -0.1673
  159SAPE  H12X17849   3.641   3.768   8.356  0.1294  0.2083  0.0534
  159SAPE  H12Y17850   3.645   3.888   8.233 -0.4173  0.6512  0.3272
  159SAPE  C31317851   3.814   3.910   8.356 -0.3516 -0.2653 -0.1186
  159SAPE  H13X17852   3.783   4.012   8.389 -1.1531 -0.2650 -0.8299
  159SAPE  H13Y17853   3.890   3.947   8.284 -2.2839  0.8126 -1.7014
  159SAPE  C31417854   3.870   3.844   8.481  0.4491 -0.2308 -0.6905
  159SAPE  H14X17855   3.924   3.753   8.446  0.0070 -1.7509  2.2870
  159SAPE  H14Y17856   3.790   3.821   8.554 -0.6324 -0.7175 -1.9816
  159SAPE  C31517857   3.984   3.918   8.563 -0.3003 -0.0801  0.4858
  159SAPE  H15X17858   4.038   3.980   8.488 -0.2922  0.5179  0.9855
  159SAPE  H15Y17859   4.045   3.833   8.602  0.2011  0.2247  0.3689
  159SAPE  C31617860   3.941   4.006   8.681 -0.0285  0.0629  0.2858
  159SAPE  H16X17861   3.890   3.947   8.760  1.5110 -3.6327 -1.2313
  159SAPE  H16Y17862   3.872   4.079   8.634  0.0716  1.4737  2.2483
  159SAPE  C31717863   4.058   4.083   8.744 -0.2330 -0.1713 -0.8902
  159SAPE  H17X17864   4.013   4.140   8.828  0.5512  2.5156 -2.1787
  159SAPE  H17Y17865   4.099   4.154   8.669 -0.7702  0.5201 -0.5418
  159SAPE  C31817866   4.162   3.989   8.808  0.3583  0.0093  0.0622
  159SAPE  H18X17867   4.232   4.043   8.876 -1.6124  0.0803  2.1534
  159SAPE  H18Y17868   4.220   3.926   8.738  2.3158 -0.1536  1.7491
  159SAPE  H18Z17869   4.115   3.925   8.885  2.0006  0.0985  1.1911
  160SAPE     N17870   2.055   4.410   6.376 -0.1165  0.4544  0.1664
  160SAPE   HN117871   2.048   4.451   6.472  1.1626 -1.1271  0.9712
  160SAPE   HN217872   2.118   4.331   6.397 -2.0287 -0.9419  0.9631
  160SAPE   HN317873   2.080   4.480   6.303 -0.7272  0.3165 -0.1849
  160SAPE   C1217874   1.920   4.354   6.336 -0.1283  0.5254  0.0537
  160SAPE  H12A17875   1.923   4.283   6.250 -0.9227 -0.0461  0.4781
  160SAPE  H12B17876   1.851   4.439   6.316  0.3550  0.6848 -1.0311
  160SAPE   C1117877   1.850   4.284   6.461 -0.1447 -0.2659 -0.4541
  160SAPE  H11A17878   1.774   4.209   6.430 -0.5098 -0.5575  1.0615
  160SAPE  H11B17879   1.796   4.365   6.514  0.7385 -0.5352  0.9256
  160SAPE     P17880   1.911   4.084   6.615 -0.3003 -0.5182 -0.5405
  160SAPE   O1317881   1.858   3.982   6.523 -0.2281 -0.1727  0.7258
  160SAPE   O1417882   2.029   4.040   6.702  0.2713 -0.1217 -0.3290
  160SAPE   O1217883   1.948   4.225   6.549  0.3218 -0.3879 -0.1072
  160SAPE   O1117884   1.801   4.130   6.713 -0.0782  0.3832  0.4659
  160SAPE    C117885   1.813   4.252   6.786 -0.4457  0.5457 -0.8793
  160SAPE    HA17886   1.919   4.286   6.792 -0.9499  2.0514  0.1596
  160SAPE    HB17887   1.735   4.322   6.748  2.3675  2.9614 -2.7480
  160SAPE    C217888   1.787   4.219   6.940  0.0386 -0.7840  0.3154
  160SAPE    HS17889   1.764   4.319   6.984  1.5403 -0.2261 -0.1098
  160SAPE   O2117890   1.900   4.155   7.005  1.4414  0.4631  0.1970
  160SAPE   C2117891   2.007   4.222   7.019 -0.1272 -0.2159  0.2497
  160SAPE   O2217892   2.031   4.332   6.974 -1.2613 -0.2702 -0.4746
  160SAPE   C2217893   2.101   4.139   7.103  1.2386 -0.1448 -0.0768
  160SAPE   H2R17894   2.054   4.038   7.109 -1.7464  1.1758  0.5537
  160SAPE   H2S17895   2.195   4.131   7.045 -0.0460 -1.8124 -2.0759
  160SAPE    C317896   1.655   4.139   6.951 -0.0022 -0.1296 -0.5935
  160SAPE    HX17897   1.672   4.035   6.917 -1.1307 -0.9093  1.1063
  160SAPE    HY17898   1.589   4.204   6.891  1.0877  2.1911  0.5672
  160SAPE   O3117899   1.614   4.147   7.089 -0.4862 -0.5416 -0.2266
  160SAPE   C3117900   1.633   4.038   7.161  0.7410  0.4727 -0.1815
  160SAPE   O3217901   1.664   3.929   7.115  0.9563 -0.1335 -0.0395
  160SAPE   C3217902   1.596   4.069   7.303  0.4337  0.1768 -0.6193
  160SAPE   H2X17903   1.542   4.166   7.316 -0.9002 -0.7495  1.3235
  160SAPE   H2Y17904   1.692   4.078   7.358  0.5367  1.4157 -0.9782
  160SAPE   C2317905   2.123   4.180   7.251 -0.0232  0.6894 -0.1777
  160SAPE   H3R17906   2.167   4.282   7.262  1.2142  0.3877 -1.9030
  160SAPE   H3S17907   2.187   4.103   7.299 -1.9438 -0.3606  0.8401
  160SAPE   C2417908   1.991   4.182   7.326 -0.3717 -0.5841 -0.0603
  160SAPE   H4R17909   1.909   4.239   7.277  0.1411 -1.5883 -2.2327
  160SAPE   H4S17910   2.020   4.229   7.422 -0.6323  0.5718 -0.5346
  160SAPE   C2517911   1.957   4.039   7.360  0.5459 -0.7526  0.4999
  160SAPE   H5R17912   1.908   3.985   7.277  0.9675 -0.5437  0.1036
  160SAPE   C2617913   2.006   3.977   7.466  0.4048 -0.3038 -0.4105
  160SAPE   H6R17914   1.970   3.873   7.477  1.2887 -0.6688 -0.8706
  160SAPE   C2717915   2.100   4.036   7.572 -0.2622 -0.0385 -0.3758
  160SAPE   H7R17916   2.047   4.122   7.618  0.3235 -1.1588  2.6591
  160SAPE   H7S17917   2.197   4.073   7.532 -0.0951  1.9002  1.6331
  160SAPE   C2817918   2.131   3.936   7.682 -0.4962  0.7075  0.3864
  160SAPE   H8R17919   2.134   3.829   7.657  2.6368  0.3636  1.7943
  160SAPE   C2917920   2.171   3.969   7.808 -0.0355  0.3957 -0.1489
  160SAPE   H9R17921   2.220   3.892   7.870 -0.1917  1.2328  1.0455
  160SAPE  C21017922   2.170   4.100   7.879  0.0888 -0.5625  0.0296
  160SAPE  H10R17923   2.110   4.079   7.970  2.0089  0.0971  1.5163
  160SAPE  H10S17924   2.116   4.175   7.818 -0.8235 -0.4792  0.9121
  160SAPE  C21117925   2.311   4.147   7.922  0.2600 -0.1072  0.0711
  160SAPE  H11R17926   2.379   4.170   7.839  0.3571  0.6360  0.3503
  160SAPE  C21217927   2.356   4.180   8.046 -0.5507  0.1281  0.5521
  160SAPE  H12R17928   2.455   4.225   8.061 -0.7314  0.3721  1.0420
  160SAPE  C21317929   2.280   4.167   8.171  0.1845 -0.1208  0.1951
  160SAPE  H13R17930   2.177   4.200   8.147 -0.0912 -0.3042  1.0705
  160SAPE  H13S17931   2.320   4.244   8.241 -0.9806  0.2531  0.4724
  160SAPE  C21417932   2.294   4.034   8.232 -0.7044  0.1566  0.2110
  160SAPE  H14R17933   2.383   3.976   8.205 -0.8547 -0.3203  0.7434
  160SAPE  C21517934   2.205   3.965   8.305  0.6507 -0.9560 -0.2296
  160SAPE  H15R17935   2.233   3.864   8.338  2.0578 -0.5932 -0.2862
  160SAPE  C21617936   2.069   4.016   8.357  0.0178  0.3886  0.4946
  160SAPE  H16R17937   2.008   3.928   8.386  1.6061 -0.5380  1.1436
  160SAPE  H16S17938   2.011   4.054   8.270  2.5740 -0.7804 -1.8736
  160SAPE  C21717939   2.088   4.113   8.473  0.2838 -0.0654 -0.5847
  160SAPE  H17R17940   1.991   4.137   8.523 -0.0290  1.0642 -1.6687
  160SAPE  H17S17941   2.136   4.212   8.456  1.8530 -0.7500 -0.2554
  160SAPE  C21817942   2.179   4.052   8.587 -0.0947 -0.8513 -0.4204
  160SAPE  H18R17943   2.287   4.055   8.561 -0.2838 -1.0413 -1.2358
  160SAPE  H18S17944   2.143   3.950   8.611  3.2755 -1.9179  0.7228
  160SAPE  C21917945   2.160   4.138   8.715 -0.3685  0.6134 -0.0353
  160SAPE  H19R17946   2.059   4.117   8.756 -1.0721  1.1415 -1.4582
  160SAPE  H19S17947   2.175   4.245   8.693 -0.7395  1.5994  3.7855
  160SAPE  C22017948   2.259   4.092   8.822 -0.3842  0.3154  0.3110
  160SAPE  H20R17949   2.363   4.111   8.788  0.4505  0.1444  2.5735
  160SAPE  H20S17950   2.259   3.984   8.848  2.2199  0.2660  0.3581
  160SAPE  H20T17951   2.236   4.137   8.921  2.6691  1.6330  0.5158
  160SAPE   C3317952   1.500   3.969   7.370  0.0751 -0.7618 -0.5657
  160SAPE   H3X17953   1.529   3.865   7.341  0.5299 -0.8787  0.2695
  160SAPE   H3Y17954   1.393   3.977   7.343 -0.2763 -1.6226  0.4555
  160SAPE   C3417955   1.494   3.980   7.527  0.2770  0.0537 -0.0490
  160SAPE   H4X17956   1.444   3.889   7.568  1.1147 -0.2348  0.3650
  160SAPE   H4Y17957   1.442   4.076   7.544 -0.3910 -0.0808 -1.2694
  160SAPE   C3517958   1.633   3.992   7.593  0.8563  0.0057 -0.2405
  160SAPE   H5X17959   1.680   4.088   7.564  0.6832 -0.0121 -0.5885
  160SAPE   H5Y17960   1.695   3.919   7.537  0.7553  0.0032 -0.3489
  160SAPE   C3617961   1.626   3.983   7.745  0.2082  0.2373  1.0133
  160SAPE   H6X17962   1.583   3.884   7.772 -2.7758  1.1248 -0.0900
  160SAPE   H6Y17963   1.564   4.067   7.782  0.1025  1.9191 -2.5750
  160SAPE   C3717964   1.765   3.994   7.811  0.2420 -0.4741  0.0284
  160SAPE   H7X17965   1.813   4.093   7.793 -0.9993  0.2152  0.4056
  160SAPE   H7Y17966   1.829   3.909   7.778 -0.9502 -1.0210 -0.9490
  160SAPE   C3817967   1.758   3.991   7.973 -0.2960  0.6280 -0.7030
  160SAPE   H8X17968   1.675   4.061   7.992 -0.0138  0.6615  0.4608
  160SAPE   H8Y17969   1.854   4.026   8.017 -0.6482  1.7632 -0.8078
  160SAPE   C3917970   1.729   3.846   8.024 -0.0446  0.7254 -0.2270
  160SAPE   H9X17971   1.809   3.779   7.985  1.4645  2.9119 -1.1075
  160SAPE   H9Y17972   1.638   3.802   7.977  0.1326 -1.0233  0.9958
  160SAPE  C31017973   1.721   3.833   8.179  0.4382  0.3770  0.0422
  160SAPE  H10X17974   1.644   3.909   8.203  0.0328  0.4256 -1.3583
  160SAPE  H10Y17975   1.816   3.860   8.231  0.6797 -2.1456  1.0836
  160SAPE  C31117976   1.681   3.687   8.223  0.1312  0.4710 -0.4904
  160SAPE  H11X17977   1.756   3.618   8.179  0.4255  0.3383  0.1996
  160SAPE  H11Y17978   1.585   3.661   8.175  0.7714 -0.6973 -1.2137
  160SAPE  C31217979   1.669   3.671   8.377 -0.0127  0.4561  0.0285
  160SAPE  H12X17980   1.569   3.702   8.413 -0.5106 -0.7908 -0.2277
  160SAPE  H12Y17981   1.741   3.743   8.422  0.2825  1.5974 -2.1538
  160SAPE  C31317982   1.700   3.525   8.434  0.2119 -0.5107  0.4180
  160SAPE  H13X17983   1.701   3.511   8.544  1.3088  0.9596  0.6216
  160SAPE  H13Y17984   1.804   3.510   8.397 -0.0462  2.4526 -1.8505
  160SAPE  C31417985   1.619   3.416   8.368  0.6732  0.0385  0.9670
  160SAPE  H14X17986   1.674   3.327   8.403  0.5745 -0.1440  0.6537
  160SAPE  H14Y17987   1.621   3.432   8.258  1.3534  1.0110  1.1065
  160SAPE  C31517988   1.474   3.407   8.415 -0.3722 -0.6724 -0.9801
  160SAPE  H15X17989   1.425   3.501   8.382 -0.0277 -0.1972 -0.1655
  160SAPE  H15Y17990   1.488   3.423   8.524 -3.8435  0.0607 -0.5381
  160SAPE  C31617991   1.404   3.274   8.388  0.0699  0.4143  0.2319
  160SAPE  H16X17992   1.462   3.203   8.451  0.0651  0.3483  0.1621
  160SAPE  H16Y17993   1.442   3.243   8.288  1.2815  0.7343  0.5767
  160SAPE  C31717994   1.259   3.269   8.416 -0.2270 -0.6936 -0.0775
  160SAPE  H17X17995   1.205   3.348   8.359  0.6131  0.2476  0.3935
  160SAPE  H17Y17996   1.245   3.290   8.524 -0.8574  0.1010 -0.3056
  160SAPE  C31817997   1.196   3.138   8.372 -0.5207  0.9746 -0.3341
  160SAPE  H18X17998   1.246   3.101   8.280  0.3224  0.1124  0.4539
  160SAPE  H18Y17999   1.088   3.156   8.349 -0.6134  0.3144 -0.4320
  160SAPE  H18Z18000   1.196   3.060   8.451 -1.3029  0.1349 -1.1229
  161SAPE     N18001   1.130   0.825   6.273 -0.3489 -0.6744 -0.6499
  161SAPE   HN118002   1.033   0.829   6.237 -0.5386  0.5377 -0.0662
  161SAPE   HN218003   1.169   0.921   6.285 -2.9410  0.2530  1.1558
  161SAPE   HN318004   1.178   0.766   6.202 -1.1016 -0.2834 -1.5022
  161SAPE   C1218005   1.132   0.765   6.409  0.2287  0.2765  0.3978
  161SAPE  H12A18006   1.223   0.794   6.466  1.2564 -1.7343 -0.1462
  161SAPE  H12B18007   1.121   0.655   6.405 -1.1288  0.3486  1.4859
  161SAPE   C1118008   1.006   0.796   6.489 -0.7648 -0.4205  0.1092
  161SAPE  H11A18009   0.989   0.906   6.487 -0.5835 -0.3794  0.7809
  161SAPE  H11B18010   1.021   0.765   6.594 -2.4237  0.7015  0.7282
  161SAPE     P18011   0.812   0.611   6.457 -0.1685 -0.1675 -0.3609
  161SAPE   O1318012   0.672   0.641   6.427  0.1623  0.4223 -0.0969
  161SAPE   O1418013   0.865   0.501   6.374 -0.0255 -0.8633  0.0744
  161SAPE   O1218014   0.895   0.739   6.427 -0.1673  0.3075 -0.6197
  161SAPE   O1118015   0.834   0.581   6.615 -0.8742 -0.4143  0.3713
  161SAPE    C118016   0.734   0.542   6.702  0.1100  0.1526  0.2089
  161SAPE    HA18017   0.629   0.565   6.674  0.1027 -1.0022 -0.7662
  161SAPE    HB18018   0.728   0.431   6.703  0.7508  0.1055  1.2958
  161SAPE    C218019   0.768   0.592   6.845  1.1757  0.6452 -0.0769
  161SAPE    HS18020   0.695   0.543   6.913 -0.9470  2.2546 -1.0796
  161SAPE   O2118021   0.762   0.736   6.852 -0.0046  0.1812 -0.1866
  161SAPE   C2118022   0.644   0.792   6.861 -0.0531  0.3362  0.5147
  161SAPE   O2218023   0.538   0.726   6.876  0.4624  0.2183  0.3544
  161SAPE   C2218024   0.661   0.944   6.844  0.3330  0.3171 -0.2963
  161SAPE   H2R18025   0.720   0.974   6.933  3.7623 -1.8131 -1.6575
  161SAPE   H2S18026   0.734   0.949   6.760  0.6851  0.8268  0.0356
  161SAPE    C318027   0.908   0.545   6.889  0.1030  0.0530  1.0277
  161SAPE    HX18028   0.985   0.605   6.836  0.7954 -1.3512  0.3595
  161SAPE    HY18029   0.910   0.437   6.862  2.4173  0.4492 -0.7550
  161SAPE   O3118030   0.926   0.560   7.034  0.5141 -0.2450  0.3331
  161SAPE   C3118031   1.055   0.537   7.063 -0.3809 -0.6376  0.4253
  161SAPE   O3218032   1.149   0.527   6.991 -0.6831 -0.0373  0.1277
  161SAPE   C3218033   1.062   0.514   7.215  0.0621 -0.0553  0.2526
  161SAPE   H2X18034   0.993   0.430   7.236  0.7985 -0.4013  1.4135
  161SAPE   H2Y18035   1.023   0.607   7.263  0.3711  2.0152 -3.1597
  161SAPE   C2318036   0.533   1.033   6.814  0.8439  0.0024  0.4103
  161SAPE   H3R18037   0.479   0.990   6.728 -0.2298  1.1145  0.5045
  161SAPE   H3S18038   0.576   1.136   6.812  1.8335 -0.3651  1.3467
  161SAPE   C2418039   0.422   1.036   6.920  0.0213  0.1884  0.7167
  161SAPE   H4R18040   0.387   0.934   6.950  2.0841 -0.8316 -0.1801
  161SAPE   H4S18041   0.331   1.085   6.879 -0.3587 -2.7838 -2.4545
  161SAPE   C2518042   0.478   1.104   7.047 -0.5650  0.5475  0.4700
  161SAPE   H5R18043   0.517   1.205   7.031 -1.6508  0.8449 -0.3873
  161SAPE   C2618044   0.488   1.043   7.167  0.0869  0.0511 -0.5856
  161SAPE   H6R18045   0.539   1.092   7.251 -0.2456 -1.9325  0.8562
  161SAPE   C2718046   0.446   0.902   7.205  0.0201 -0.2306  0.2311
  161SAPE   H7R18047   0.461   0.835   7.118 -1.1110  0.8507 -0.8237
  161SAPE   H7S18048   0.337   0.911   7.227 -0.4132 -0.5123 -1.6706
  161SAPE   C2818049   0.530   0.841   7.315 -0.0145 -0.1477  0.1275
  161SAPE   H8R18050   0.615   0.784   7.276  1.4501  0.9577  1.5417
  161SAPE   C2918051   0.541   0.875   7.442 -0.0989  0.3258 -0.5806
  161SAPE   H9R18052   0.619   0.828   7.503 -0.8717 -1.8034 -1.1487
  161SAPE  C21018053   0.454   0.987   7.508  0.2277  0.1207 -0.2611
  161SAPE  H10R18054   0.378   0.935   7.570  2.2481 -1.2659  1.1611
  161SAPE  H10S18055   0.398   1.046   7.432  2.0200 -1.4510 -2.9850
  161SAPE  C21118056   0.539   1.061   7.607  0.0968 -0.0509  0.2708
  161SAPE  H11R18057   0.622   1.123   7.570  2.0432 -1.0955  2.6008
  161SAPE  C21218058   0.529   1.064   7.742 -0.1478  0.5672 -0.1497
  161SAPE  H12R18059   0.609   1.116   7.796 -0.2062  0.4516  0.0450
  161SAPE  C21318060   0.426   0.993   7.825  0.6634  0.2753 -0.0428
  161SAPE  H13R18061   0.389   0.904   7.770 -0.0434  0.6357 -0.1555
  161SAPE  H13S18062   0.345   1.067   7.845  2.0022  1.3982  1.5949
  161SAPE  C21418063   0.499   0.943   7.947  0.3513 -0.8205  0.4738
  161SAPE  H14R18064   0.607   0.933   7.929  0.3665 -0.2247  0.2189
  161SAPE  C21518065   0.441   0.933   8.070  0.4989  0.9087 -0.2244
  161SAPE  H15R18066   0.501   0.891   8.152  0.9395  1.4171 -0.2755
  161SAPE  C21618067   0.298   0.952   8.119  0.9487  0.0330  0.9340
  161SAPE  H16R18068   0.249   0.852   8.115  3.4136 -1.2600 -2.0611
  161SAPE  H16S18069   0.241   1.011   8.044  0.7560 -0.0174  1.0387
  161SAPE  C21718070   0.277   1.001   8.258  0.0848 -0.2296 -0.4639
  161SAPE  H17R18071   0.316   1.105   8.265 -1.3930  0.4254 -1.3267
  161SAPE  H17S18072   0.328   0.941   8.335  0.8628  3.1697  1.9035
  161SAPE  C21818073   0.134   1.029   8.304  0.5656  0.1121 -0.1328
  161SAPE  H18R18074   0.124   1.001   8.411 -1.4007 -1.3448 -0.6345
  161SAPE  H18S18075   0.069   0.957   8.251  0.1011 -0.3060  0.9606
  161SAPE  C21918076   0.082   1.178   8.283 -0.5455  0.5003 -0.0135
  161SAPE  H19R18077   0.164   1.244   8.321  1.0821 -1.3674 -0.1077
  161SAPE  H19S18078   0.002   1.199   8.357 -1.0168  0.6643 -0.5690
  161SAPE  C22018079   0.047   1.218   8.143  0.0589 -0.1285  0.2000
  161SAPE  H20R18080   0.137   1.256   8.091  1.3099 -0.4352  2.0630
  161SAPE  H20S18081  -0.022   1.304   8.148  1.7223  1.4533 -1.9362
  161SAPE  H20T18082  -0.011   1.140   8.087 -1.2735  0.0704  1.2433
  161SAPE   C3318083   1.199   0.453   7.249 -0.0701 -0.5661  0.8365
  161SAPE   H3X18084   1.275   0.534   7.242  0.9344 -1.4721  0.9679
  161SAPE   H3Y18085   1.233   0.377   7.175  0.3828  1.6422 -1.3655
  161SAPE   C3418086   1.200   0.389   7.392 -0.2502  0.5360  0.1605
  161SAPE   H4X18087   1.295   0.337   7.413  0.0797  0.9004 -0.3966
  161SAPE   H4Y18088   1.118   0.314   7.395  0.2189  0.0031 -0.1551
  161SAPE   C3518089   1.178   0.493   7.508 -0.1168 -0.0917  0.1104
  161SAPE   H5X18090   1.070   0.513   7.525  0.0764  2.3068 -1.0843
  161SAPE   H5Y18091   1.217   0.593   7.482  2.2872 -1.2542 -1.0514
  161SAPE   C3618092   1.261   0.447   7.633 -0.1277 -0.1284  0.0432
  161SAPE   H6X18093   1.369   0.457   7.611  0.0271  0.1079  0.8387
  161SAPE   H6Y18094   1.249   0.340   7.659  1.1113 -0.4687 -0.7329
  161SAPE   C3718095   1.227   0.525   7.767 -0.2814 -0.1732 -0.3907
  161SAPE   H7X18096   1.120   0.507   7.788  0.1598 -3.0316 -0.2223
  161SAPE   H7Y18097   1.227   0.635   7.754 -0.4274 -0.1862 -0.5025
  161SAPE   C3818098   1.318   0.476   7.883 -0.1810 -0.0371 -0.7033
  161SAPE   H8X18099   1.317   0.554   7.962 -2.7291 -0.1880 -0.4838
  161SAPE   H8Y18100   1.423   0.475   7.847 -0.1946 -0.5359 -0.7339
  161SAPE   C3918101   1.286   0.343   7.939 -0.0363 -0.7921  0.5797
  161SAPE   H9X18102   1.286   0.271   7.854 -0.1171  1.5529 -1.5125
  161SAPE   H9Y18103   1.179   0.349   7.970 -1.3857  2.1864 -3.8059
  161SAPE  C31018104   1.362   0.306   8.073 -0.6104  0.3471  0.8112
  161SAPE  H10X18105   1.383   0.404   8.122 -1.4643  0.8597  0.1699
  161SAPE  H10Y18106   1.457   0.265   8.033 -0.3562  0.5156  1.2391
  161SAPE  C31118107   1.288   0.206   8.160 -0.2952  0.1702  0.6515
  161SAPE  H11X18108   1.249   0.125   8.095  1.6183 -0.1022 -0.2112
  161SAPE  H11Y18109   1.201   0.258   8.205  1.6853  2.8278  1.6430
  161SAPE  C31218110   1.381   0.153   8.262 -0.0362 -0.2349 -0.2070
  161SAPE  H12X18111   1.420   0.239   8.321  0.0314  0.4067 -1.1531
  161SAPE  H12Y18112   1.474   0.110   8.219 -1.6177 -0.5576 -3.6358
  161SAPE  C31318113   1.312   0.049   8.355  0.2293 -0.3378 -0.0176
  161SAPE  H13X18114   1.209   0.084   8.375 -0.6255 -1.5825 -1.9437
  161SAPE  H13Y18115   1.368   0.056   8.451  2.0853  2.5685 -1.1734
  161SAPE  C31418116   1.322  -0.080   8.283  0.6916 -0.1878 -1.1365
  161SAPE  H14X18117   1.431  -0.099   8.278  0.6746 -0.3071 -1.0595
  161SAPE  H14Y18118   1.286  -0.067   8.179 -0.5700 -2.2163 -1.0094
  161SAPE  C31518119   1.237  -0.203   8.330  0.2001  0.7445  0.4147
  161SAPE  H15X18120   1.129  -0.179   8.343 -0.6400 -2.2170 -0.3506
  161SAPE  H15Y18121   1.275  -0.252   8.422 -1.1789 -1.5455 -0.1692
  161SAPE  C31618122   1.223  -0.313   8.221  0.0040 -0.9449  0.5171
  161SAPE  H16X18123   1.320  -0.358   8.192  1.1847 -0.4666  3.4295
  161SAPE  H16Y18124   1.186  -0.271   8.125  0.6252 -1.9863 -0.2020
  161SAPE  C31718125   1.124  -0.422   8.265  0.2395  0.7274  0.5811
  161SAPE  H17X18126   1.156  -0.438   8.371  0.9785  1.4490  0.4812
  161SAPE  H17Y18127   1.139  -0.516   8.207  1.2563  0.9424  0.4712
  161SAPE  C31818128   0.981  -0.383   8.239  0.5680 -0.2251 -0.9304
  161SAPE  H18X18129   0.966  -0.372   8.130  1.1765  1.0100 -0.9157
  161SAPE  H18Y18130   0.946  -0.291   8.292 -0.8218 -0.6299 -1.1291
  161SAPE  H18Z18131   0.925  -0.473   8.273  1.1123  0.0136  0.7318
  162SAPE     N18132   2.533   5.320   6.267  0.0406  0.0983 -1.0933
  162SAPE   HN118133   2.532   5.291   6.367 -1.4682 -1.1220 -1.4214
  162SAPE   HN218134   2.604   5.396   6.263  0.9243 -0.5887  0.4191
  162SAPE   HN318135   2.439   5.355   6.240 -0.1018  1.7488  1.2655
  162SAPE   C1218136   2.591   5.218   6.171 -0.7436 -0.3952 -0.3415
  162SAPE  H12A18137   2.700   5.208   6.186 -0.5054  0.9964 -0.9536
  162SAPE  H12B18138   2.574   5.258   6.069  0.7228 -0.7622 -0.7539
  162SAPE   C1118139   2.527   5.076   6.176 -0.0829 -0.0821  0.4930
  162SAPE  H11A18140   2.547   5.021   6.270  0.3293 -1.1884 -0.2363
  162SAPE  H11B18141   2.587   5.013   6.108  1.5940  1.0853  0.8196
  162SAPE     P18142   2.266   5.080   6.222 -0.1644  0.0948  0.0980
  162SAPE   O1318143   2.278   5.207   6.299  0.1354 -0.2784 -0.0212
  162SAPE   O1418144   2.146   5.061   6.134  0.4008 -0.6485  0.6945
  162SAPE   O1218145   2.399   5.079   6.125  0.4270  0.5771 -0.0776
  162SAPE   O1118146   2.289   4.958   6.319  0.6293  0.1576 -0.5243
  162SAPE    C118147   2.201   4.926   6.430 -0.0604 -0.7284  0.0372
  162SAPE    HA18148   2.107   4.981   6.407 -0.9987 -1.7545  1.2539
  162SAPE    HB18149   2.179   4.818   6.415 -0.5994 -0.6284  0.0840
  162SAPE    C218150   2.276   4.949   6.558 -0.1908 -0.6533 -0.6109
  162SAPE    HS18151   2.225   4.918   6.652  0.5516  0.8531  0.3225
  162SAPE   O2118152   2.298   5.096   6.583 -0.4177 -0.4840  0.0598
  162SAPE   C2118153   2.190   5.166   6.615  0.1091  0.2166  0.4746
  162SAPE   O2218154   2.082   5.116   6.639  0.0034 -0.2745 -0.7125
  162SAPE   C2218155   2.218   5.321   6.608  0.5078  0.4478 -0.0335
  162SAPE   H2R18156   2.326   5.348   6.609  0.2402  1.5185  0.9840
  162SAPE   H2S18157   2.179   5.337   6.505 -0.3271 -1.5251 -0.0732
  162SAPE    C318158   2.404   4.865   6.562 -0.5992  0.7666  0.1701
  162SAPE    HX18159   2.483   4.917   6.504 -2.6698  1.3322 -2.3482
  162SAPE    HY18160   2.384   4.772   6.504  0.6315 -0.5817  1.8020
  162SAPE   O3118161   2.452   4.826   6.688  0.2166 -0.0686  0.0955
  162SAPE   C3118162   2.525   4.913   6.764  0.7486  0.0301 -0.0995
  162SAPE   O3218163   2.565   5.019   6.720  0.3509  0.5746  0.2447
  162SAPE   C3218164   2.563   4.851   6.895  0.0654 -0.5316 -0.5501
  162SAPE   H2X18165   2.643   4.776   6.881  1.3642  0.0676  2.6978
  162SAPE   H2Y18166   2.473   4.793   6.926  0.1530 -0.8383 -0.8620
  162SAPE   C2318167   2.144   5.397   6.715  0.0769  0.2568 -0.1352
  162SAPE   H3R18168   2.059   5.345   6.763  0.8668  1.5608  2.8738
  162SAPE   H3S18169   2.104   5.482   6.656  0.2899  0.3981 -0.0793
  162SAPE   C2418170   2.242   5.438   6.829 -0.1089 -0.1805  0.4135
  162SAPE   H4R18171   2.202   5.531   6.873 -1.8470 -0.9661  0.5964
  162SAPE   H4S18172   2.338   5.482   6.795 -1.1666  1.1003 -1.0408
  162SAPE   C2518173   2.292   5.331   6.917  0.1462  0.2384 -0.0255
  162SAPE   H5R18174   2.334   5.243   6.866  0.8650  0.7718 -0.3733
  162SAPE   C2618175   2.274   5.336   7.052 -0.1181  1.9650 -0.1141
  162SAPE   H6R18176   2.340   5.266   7.105 -0.5236  0.7890 -1.0968
  162SAPE   C2718177   2.210   5.432   7.139  0.5037  0.4592 -0.3946
  162SAPE   H7R18178   2.145   5.512   7.096 -0.4802  0.3942  0.9046
  162SAPE   H7S18179   2.295   5.483   7.189  0.4027  1.1737 -0.9314
  162SAPE   C2818180   2.130   5.347   7.232 -0.0000 -0.0442 -0.7009
  162SAPE   H8R18181   2.033   5.306   7.201 -0.5358 -1.1459  2.1569
  162SAPE   C2918182   2.165   5.318   7.361 -0.5202 -0.3845 -0.8891
  162SAPE   H9R18183   2.098   5.256   7.423  0.6913 -0.7552  0.0811
  162SAPE  C21018184   2.289   5.368   7.437 -0.7514 -0.0324 -0.5365
  162SAPE  H10R18185   2.373   5.344   7.370 -1.6370 -2.4331 -0.8954
  162SAPE  H10S18186   2.307   5.295   7.519  2.3359  0.0115 -1.0738
  162SAPE  C21118187   2.279   5.508   7.492  0.0241 -0.1941  0.0276
  162SAPE  H11R18188   2.287   5.588   7.417  0.4671 -1.4019 -1.2701
  162SAPE  C21218189   2.244   5.537   7.618  0.3397  1.0097  0.0757
  162SAPE  H12R18190   2.245   5.644   7.642  1.1887  1.1785 -0.6714
  162SAPE  C21318191   2.210   5.449   7.742 -0.2019  0.3339  0.3787
  162SAPE  H13R18192   2.167   5.353   7.705  0.2327  0.0444  0.6263
  162SAPE  H13S18193   2.125   5.484   7.805 -0.1069 -0.3780  0.9083
  162SAPE  C21418194   2.334   5.423   7.822 -0.5179 -0.5057 -0.5177
  162SAPE  H14R18195   2.423   5.388   7.768 -0.0906 -0.1493 -0.0483
  162SAPE  C21518196   2.349   5.453   7.953 -0.1575  0.0100  0.2245
  162SAPE  H15R18197   2.444   5.438   8.005  0.4323  0.3485 -0.7195
  162SAPE  C21618198   2.243   5.511   8.041 -0.2432 -0.2087 -0.1053
  162SAPE  H16R18199   2.169   5.569   7.982 -0.5414 -1.3328 -0.8606
  162SAPE  H16S18200   2.296   5.573   8.117 -1.7211  0.8949  0.0830
  162SAPE  C21718201   2.172   5.388   8.093 -0.2344 -0.5545 -0.3398
  162SAPE  H17R18202   2.248   5.315   8.128  0.1601  0.0976  0.1867
  162SAPE  H17S18203   2.116   5.336   8.013 -0.8135  0.4531 -0.6042
  162SAPE  C21818204   2.087   5.404   8.219 -0.3930 -0.3621 -0.3038
  162SAPE  H18R18205   2.073   5.306   8.270 -0.7171 -0.2825 -0.2342
  162SAPE  H18S18206   1.993   5.444   8.175  0.6822  0.8112 -1.6310
  162SAPE  C21918207   2.140   5.502   8.327 -0.5611  0.0253  0.0233
  162SAPE  H19R18208   2.055   5.504   8.398  0.2418 -2.9283  1.2230
  162SAPE  H19S18209   2.161   5.600   8.280 -0.5524 -0.7979 -1.8112
  162SAPE  C22018210   2.266   5.451   8.404  0.6956 -0.1882  0.5018
  162SAPE  H20R18211   2.357   5.444   8.340 -0.7606 -3.0046 -1.4635
  162SAPE  H20S18212   2.256   5.345   8.436  1.7595  0.4690  3.4262
  162SAPE  H20T18213   2.288   5.513   8.494 -1.8868  0.8410  0.4995
  162SAPE   C3318214   2.606   4.960   6.999 -0.4582 -0.4264 -0.0135
  162SAPE   H3X18215   2.517   5.024   7.015 -0.8524 -1.4870  2.6713
  162SAPE   H3Y18216   2.690   5.021   6.959  0.6176 -1.4004  0.7002
  162SAPE   C3418217   2.647   4.917   7.138  0.1111  0.4348 -0.3611
  162SAPE   H4X18218   2.555   4.886   7.192 -0.1603  3.4852  1.1030
  162SAPE   H4Y18219   2.697   5.000   7.192  1.5302 -1.1619  0.9115
  162SAPE   C3518220   2.767   4.799   7.144  0.4406 -0.3359 -0.6811
  162SAPE   H5X18221   2.857   4.849   7.102  1.2058 -0.6045  0.6102
  162SAPE   H5Y18222   2.736   4.712   7.081 -0.1424  0.0523 -0.9393
  162SAPE   C3618223   2.785   4.741   7.286  0.7399 -0.0436  0.0036
  162SAPE   H6X18224   2.687   4.690   7.296  1.2694 -0.9797  0.5537
  162SAPE   H6Y18225   2.796   4.825   7.359  0.9934 -0.5546  0.5585
  162SAPE   C3718226   2.899   4.647   7.311  0.6104  0.7300 -0.2023
  162SAPE   H7X18227   2.995   4.700   7.291  1.1276 -0.6626 -1.6079
  162SAPE   H7Y18228   2.898   4.569   7.232  2.1610  1.1079 -0.6375
  162SAPE   C3818229   2.906   4.572   7.448  0.6322 -0.0195 -0.2194
  162SAPE   H8X18230   2.990   4.499   7.451  1.4663  0.9452  1.7130
  162SAPE   H8Y18231   2.810   4.521   7.467 -0.2286  2.1965  1.9932
  162SAPE   C3918232   2.924   4.663   7.570 -0.4471 -0.0403 -0.0043
  162SAPE   H9X18233   2.838   4.733   7.570  1.7372  2.8830 -0.7386
  162SAPE   H9Y18234   3.021   4.717   7.557 -0.8763  0.7442  0.0099
  162SAPE  C31018235   2.917   4.604   7.716  0.0822  0.1839 -0.0872
  162SAPE  H10X18236   2.847   4.518   7.707 -0.4042  0.6980 -1.4605
  162SAPE  H10Y18237   2.879   4.678   7.789 -0.9694 -0.8080  0.4066
  162SAPE  C31118238   3.044   4.535   7.773 -0.8772  0.8857  0.0866
  162SAPE  H11X18239   3.123   4.613   7.782 -0.0024  0.0202  0.0864
  162SAPE  H11Y18240   3.080   4.453   7.707  0.0561 -0.3418  2.0240
  162SAPE  C31218241   3.028   4.483   7.922  0.4731 -0.0455 -0.5041
  162SAPE  H12X18242   2.955   4.398   7.927 -0.2092  0.5684  0.1463
  162SAPE  H12Y18243   2.995   4.570   7.982  0.3191  0.8052 -1.7891
  162SAPE  C31318244   3.155   4.458   8.003  0.3936 -0.7177  0.3549
  162SAPE  H13X18245   3.225   4.542   7.985  1.5173 -1.2103  2.2050
  162SAPE  H13Y18246   3.201   4.369   7.954 -0.7788 -1.5353  0.7001
  162SAPE  C31418247   3.137   4.421   8.150 -0.4803 -0.3348 -0.0728
  162SAPE  H14X18248   3.226   4.361   8.177  0.3073  0.7153 -0.2735
  162SAPE  H14Y18249   3.045   4.359   8.154 -0.4036 -0.4715 -0.3989
  162SAPE  C31518250   3.120   4.546   8.231 -0.2146  0.2454  0.2415
  162SAPE  H15X18251   3.038   4.610   8.190  0.3476  0.1029 -1.1446
  162SAPE  H15Y18252   3.212   4.607   8.219  0.3507 -0.0556  2.6142
  162SAPE  C31618253   3.079   4.519   8.373 -0.3936  0.0226  0.4410
  162SAPE  H16X18254   3.144   4.448   8.429 -0.3158 -1.2900 -1.2127
  162SAPE  H16Y18255   2.978   4.474   8.370 -0.5914  0.3743  1.4724
  162SAPE  C31718256   3.053   4.644   8.456  0.5354 -0.8586 -0.5372
  162SAPE  H17X18257   2.985   4.615   8.539  2.7884 -0.8277  1.4576
  162SAPE  H17Y18258   3.003   4.716   8.388  0.4668  0.2798  0.6679
  162SAPE  C31818259   3.174   4.710   8.525 -0.6593 -0.1351  0.0080
  162SAPE  H18X18260   3.264   4.690   8.463  0.2915  1.9625  0.6374
  162SAPE  H18Y18261   3.201   4.675   8.626 -2.6533 -0.2549  0.5344
  162SAPE  H18Z18262   3.161   4.820   8.533  1.4104  0.1074  0.4792
  163SAPE     N18263   6.588   3.138   6.537  0.3117  0.6627 -0.0657
  163SAPE   HN118264   6.627   3.197   6.461  0.1951  1.3735  0.4186
  163SAPE   HN218265   6.520   3.073   6.493  0.9964  0.5425 -0.9541
  163SAPE   HN318266   6.548   3.202   6.609 -1.8091 -0.9111  0.2668
  163SAPE   C1218267   6.698   3.056   6.602 -0.0949  0.7933 -0.2546
  163SAPE  H12A18268   6.753   3.018   6.513 -1.4164  1.0537 -1.2203
  163SAPE  H12B18269   6.662   2.984   6.678 -0.1015 -0.5987 -1.5308
  163SAPE   C1118270   6.794   3.140   6.688 -0.6217  0.4372  0.0791
  163SAPE  H11A18271   6.850   3.062   6.744 -2.0700 -2.4811 -2.1917
  163SAPE  H11B18272   6.732   3.186   6.768  0.2747  1.8407  0.0005
  163SAPE     P18273   6.999   3.293   6.662 -0.2064  0.1811 -0.3414
  163SAPE   O1318274   7.088   3.195   6.607 -0.3777  0.4532 -0.0214
  163SAPE   O1418275   7.008   3.436   6.608 -0.3020  0.0409 -0.0758
  163SAPE   O1218276   6.856   3.241   6.615 -0.0172  0.0146 -0.3426
  163SAPE   O1118277   6.997   3.292   6.829 -0.1236 -0.6669  0.7676
  163SAPE    C118278   6.939   3.404   6.893  0.3621 -0.2418  0.5589
  163SAPE    HA18279   6.964   3.498   6.840 -0.4077 -0.8026 -0.8430
  163SAPE    HB18280   6.828   3.399   6.887  0.3305 -0.5351  1.3015
  163SAPE    C218281   6.991   3.420   7.039 -0.0347 -0.3093 -0.6992
  163SAPE    HS18282   7.102   3.411   7.035 -0.1993 -2.3255 -2.3650
  163SAPE   O2118283   6.937   3.309   7.114  0.9944 -0.3076  0.1986
  163SAPE   C2118284   7.014   3.276   7.217 -0.1074  0.5429 -0.0675
  163SAPE   O2218285   7.117   3.325   7.253  0.4287 -0.2282 -0.3590
  163SAPE   C2218286   6.937   3.167   7.297  0.0584 -0.2537 -1.0613
  163SAPE   H2R18287   6.860   3.230   7.347  1.4130 -0.3832  1.3037
  163SAPE   H2S18288   6.890   3.090   7.232  0.6308 -2.0814  0.6214
  163SAPE    C318289   6.939   3.551   7.105  0.0962 -0.3797 -0.3474
  163SAPE    HX18290   6.831   3.563   7.084  0.2099  0.9376 -0.2476
  163SAPE    HY18291   6.980   3.636   7.048  0.6612  1.1941  2.2407
  163SAPE   O3118292   6.967   3.571   7.246  0.2776 -0.5070 -0.7874
  163SAPE   C3118293   7.049   3.669   7.283 -0.1430  1.3479  0.8948
  163SAPE   O3218294   7.084   3.763   7.210 -0.1357  0.2907  0.1273
  163SAPE   C3218295   7.094   3.660   7.435  0.4769  0.1351  0.4633
  163SAPE   H2X18296   7.184   3.724   7.452 -0.1437  1.3042 -0.5535
  163SAPE   H2Y18297   7.126   3.554   7.445 -0.2159 -0.2223 -0.9517
  163SAPE   C2318298   7.023   3.093   7.401  0.0232  0.3051 -0.3743
  163SAPE   H3R18299   7.112   3.063   7.341  0.5665  2.2233 -0.5845
  163SAPE   H3S18300   6.964   3.003   7.430 -0.0117 -0.2196 -1.9466
  163SAPE   C2418301   7.073   3.182   7.517 -0.5163 -0.7781  0.2418
  163SAPE   H4R18302   6.993   3.257   7.532  1.2630  1.9859 -2.8541
  163SAPE   H4S18303   7.166   3.237   7.490  1.3481 -3.7005  0.2337
  163SAPE   C2518304   7.087   3.096   7.641  0.1643  0.5423 -0.1128
  163SAPE   H5R18305   7.156   3.012   7.624  0.2813  1.0007 -2.2177
  163SAPE   C2618306   7.038   3.102   7.765 -0.6399 -0.4326  0.5263
  163SAPE   H6R18307   7.079   3.042   7.848  0.8550  1.6986  1.4141
  163SAPE   C2718308   6.934   3.205   7.822  0.0919 -0.2690 -0.0795
  163SAPE   H7R18309   6.851   3.141   7.859  0.5818 -0.6040  0.4590
  163SAPE   H7S18310   6.890   3.269   7.743  1.1764  2.0992  1.1465
  163SAPE   C2818311   7.005   3.293   7.914  0.2241 -0.5989  0.3426
  163SAPE   H8R18312   7.110   3.316   7.890  0.1140  1.5359  1.6570
  163SAPE   C2918313   6.966   3.343   8.036 -0.2026 -0.2535  0.2537
  163SAPE   H9R18314   7.037   3.410   8.086  1.7621 -1.8978 -0.1924
  163SAPE  C21018315   6.836   3.324   8.105  0.3483  0.4248 -0.4887
  163SAPE  H10R18316   6.758   3.303   8.029  0.1050  1.7555 -0.6224
  163SAPE  H10S18317   6.802   3.412   8.163 -0.0972  1.9108 -2.8647
  163SAPE  C21118318   6.855   3.209   8.204  0.0053 -1.1305 -0.1677
  163SAPE  H11R18319   6.820   3.118   8.152  0.0993  0.0145 -2.3594
  163SAPE  C21218320   6.904   3.220   8.331 -0.3101  0.2291  0.2454
  163SAPE  H12R18321   6.900   3.135   8.401 -2.2580  0.4885  0.5152
  163SAPE  C21318322   6.943   3.354   8.393 -0.7170  0.1559 -0.6842
  163SAPE  H13R18323   6.859   3.399   8.451 -0.5255 -1.7993  1.2568
  163SAPE  H13S18324   6.970   3.416   8.305  1.2017  0.8599  0.3431
  163SAPE  C21418325   7.065   3.333   8.477 -0.0579 -0.0945 -0.3026
  163SAPE  H14R18326   7.158   3.340   8.419 -0.4174  0.3782 -0.8383
  163SAPE  C21518327   7.068   3.290   8.603 -0.1651  0.2188  0.2170
  163SAPE  H15R18328   7.166   3.298   8.652 -0.4607 -0.9891  1.0482
  163SAPE  C21618329   6.947   3.276   8.696 -0.6168 -0.4658 -0.4723
  163SAPE  H16R18330   6.857   3.318   8.647 -0.4748 -1.5583 -1.7342
  163SAPE  H16S18331   6.955   3.320   8.797 -0.9869 -1.3749 -0.0417
  163SAPE  C21718332   6.917   3.123   8.738  0.0637  0.3807 -0.4882
  163SAPE  H17R18333   6.930   3.051   8.655 -1.8857  0.0266 -0.5274
  163SAPE  H17S18334   6.812   3.123   8.775  0.2345 -0.1194  0.0178
  163SAPE  C21818335   7.010   3.073   8.858  0.5571  0.1669 -0.2718
  163SAPE  H18R18336   6.994   3.153   8.933  2.0316  0.7724 -0.5856
  163SAPE  H18S18337   7.116   3.074   8.828  1.2746 -1.8587  1.9498
  163SAPE  C21918338   6.966   2.934   8.908  0.2607  0.1494 -0.2753
  163SAPE  H19R18339   7.008   2.858   8.839 -2.2338 -0.2246 -1.4953
  163SAPE  H19S18340   6.856   2.923   8.901  0.3692 -0.0164 -2.5783
  163SAPE  C22018341   7.025   2.905   9.043 -0.5693 -1.0816 -0.8584
  163SAPE  H20R18342   6.977   2.975   9.115  0.4656 -0.0818 -1.1266
  163SAPE  H20S18343   7.133   2.926   9.037 -0.6390 -0.9749 -1.8706
  163SAPE  H20T18344   7.011   2.799   9.074  0.9216 -1.3059 -0.9101
  163SAPE   C3318345   6.983   3.683   7.536 -0.2205 -0.8134  0.1525
  163SAPE   H3X18346   6.888   3.642   7.493  0.2393 -1.3054 -0.4114
  163SAPE   H3Y18347   6.972   3.791   7.559 -0.3130 -0.3513 -1.8188
  163SAPE   C3418348   7.005   3.604   7.663 -0.2527  0.2042  0.5060
  163SAPE   H4X18349   7.108   3.632   7.697  0.5000 -1.1428 -0.5645
  163SAPE   H4Y18350   7.017   3.495   7.641  2.6810  0.6089 -0.3491
  163SAPE   C3518351   6.909   3.619   7.780  0.2467  0.7959  0.0437
  163SAPE   H5X18352   6.900   3.521   7.832 -0.0137 -0.0223 -1.4763
  163SAPE   H5Y18353   6.809   3.655   7.746 -0.2402  1.2087  1.8203
  163SAPE   C3618354   6.957   3.718   7.880 -0.2102 -0.1709 -0.3369
  163SAPE   H6X18355   6.986   3.817   7.840  0.6000 -0.6351 -0.9411
  163SAPE   H6Y18356   7.058   3.686   7.914  0.2135 -0.1200 -1.5148
  163SAPE   C3718357   6.865   3.745   8.002 -0.2712 -0.0455  0.1859
  163SAPE   H7X18358   6.838   3.644   8.041 -1.7317 -0.5067 -1.8763
  163SAPE   H7Y18359   6.777   3.807   7.976  0.1398 -0.2904 -1.9403
  163SAPE   C3818360   6.942   3.820   8.116  0.1186 -0.1160  0.4151
  163SAPE   H8X18361   7.007   3.903   8.081  0.5398 -1.1605 -1.4580
  163SAPE   H8Y18362   7.012   3.749   8.164 -0.2479  0.9747  2.6726
  163SAPE   C3918363   6.841   3.870   8.219 -0.0349  0.3682  0.3655
  163SAPE   H9X18364   6.770   3.787   8.240 -0.6828  0.7689 -0.1962
  163SAPE   H9Y18365   6.786   3.947   8.161 -0.7098 -0.0042  0.4958
  163SAPE  C31018366   6.917   3.910   8.346  0.1422  0.3020  0.5851
  163SAPE  H10X18367   6.980   4.000   8.332  1.3069 -0.4662  0.7535
  163SAPE  H10Y18368   6.979   3.819   8.361 -0.6490 -0.2101  0.8084
  163SAPE  C31118369   6.821   3.937   8.449 -0.3091  0.3558  0.4346
  163SAPE  H11X18370   6.735   3.867   8.448 -0.8247  0.9850 -1.3039
  163SAPE  H11Y18371   6.786   4.040   8.428  0.5393  0.8713  1.4447
  163SAPE  C31218372   6.889   3.934   8.589  0.5931 -0.3018 -0.5228
  163SAPE  H12X18373   6.821   3.991   8.656  0.6831 -0.4912 -0.2681
  163SAPE  H12Y18374   6.979   3.999   8.578  0.0915  0.3484 -0.8551
  163SAPE  C31318375   6.914   3.789   8.635 -1.2004  0.1922  0.2828
  163SAPE  H13X18376   6.957   3.729   8.552  2.3513 -0.5485  2.4442
  163SAPE  H13Y18377   6.812   3.746   8.652 -0.8864 -1.4217 -1.5113
  163SAPE  C31418378   7.007   3.781   8.752 -0.1794 -0.2393  0.1399
  163SAPE  H14X18379   6.975   3.851   8.832  0.9264  1.3237 -0.7389
  163SAPE  H14Y18380   7.110   3.800   8.716  0.3463 -5.1198 -1.7391
  163SAPE  C31518381   7.005   3.637   8.815  0.4785 -0.7179 -0.1971
  163SAPE  H15X18382   7.005   3.557   8.738 -2.4769 -0.7132 -0.3214
  163SAPE  H15Y18383   6.916   3.622   8.879  0.1240  1.7997  0.0073
  163SAPE  C31618384   7.125   3.619   8.904 -0.5564 -0.2980  0.2598
  163SAPE  H16X18385   7.135   3.697   8.983 -0.0428  0.6112 -0.6868
  163SAPE  H16Y18386   7.212   3.621   8.835 -2.2294 -1.7340 -2.0018
  163SAPE  C31718387   7.126   3.480   8.967  0.1080 -0.0018 -0.2696
  163SAPE  H17X18388   7.123   3.409   8.881  0.3445 -1.6330  1.0146
  163SAPE  H17Y18389   7.034   3.459   9.026  1.0692 -0.6000  1.0649
  163SAPE  C31818390   7.253   3.456   9.049  0.4141  0.1790 -0.0006
  163SAPE  H18X18391   7.322   3.379   9.010 -3.3355 -4.3072  1.2583
  163SAPE  H18Y18392   7.208   3.414   9.141 -0.7091 -1.6855 -1.3229
  163SAPE  H18Z18393   7.295   3.554   9.081 -2.6792  2.1922 -1.4966
  164SAPE     N18394   1.544   1.440   6.497  0.0541 -0.1027 -0.2372
  164SAPE   HN118395   1.472   1.508   6.466 -1.0928 -1.6990 -1.2288
  164SAPE   HN218396   1.521   1.400   6.591 -0.0723 -1.3384 -0.7795
  164SAPE   HN318397   1.629   1.496   6.517  0.2835 -0.1372 -1.0996
  164SAPE   C1218398   1.585   1.348   6.388 -0.2254  0.4287  0.3081
  164SAPE  H12A18399   1.677   1.301   6.428 -0.2583 -0.7515 -0.9290
  164SAPE  H12B18400   1.606   1.416   6.304 -1.5292 -0.2743 -0.6281
  164SAPE   C1118401   1.469   1.250   6.351 -0.3430  0.0576  0.3959
  164SAPE  H11A18402   1.477   1.154   6.406  2.2156 -0.8503 -1.3735
  164SAPE  H11B18403   1.495   1.220   6.247 -1.1250  2.4187 -0.5488
  164SAPE     P18404   1.207   1.216   6.321  0.4391 -0.1402 -0.2600
  164SAPE   O1318405   1.138   1.279   6.203  0.0038  0.2179  0.1685
  164SAPE   O1418406   1.239   1.073   6.310  0.0555  0.5295  0.4078
  164SAPE   O1218407   1.339   1.304   6.358 -0.3754 -0.0844  0.3145
  164SAPE   O1118408   1.100   1.237   6.439 -0.0555  0.3200  0.0492
  164SAPE    C118409   1.120   1.341   6.538  1.0619  0.6257  0.6059
  164SAPE    HA18410   1.180   1.427   6.501  2.1283 -0.4686 -0.2560
  164SAPE    HB18411   1.014   1.373   6.541  0.3750 -1.2278 -1.2723
  164SAPE    C218412   1.174   1.284   6.667 -0.9047  0.1930  0.2006
  164SAPE    HS18413   1.280   1.254   6.657 -1.1639 -0.6036 -0.1658
  164SAPE   O2118414   1.090   1.173   6.713  0.0567  0.6518  0.4841
  164SAPE   C2118415   1.147   1.085   6.792 -0.9726  0.2356  1.3498
  164SAPE   O2218416   1.261   1.091   6.831 -0.2531  0.4360  0.3449
  164SAPE   C2218417   1.034   0.989   6.838  0.1027 -0.6617 -0.1913
  164SAPE   H2R18418   0.947   1.045   6.879  0.1188 -0.0790 -0.9261
  164SAPE   H2S18419   0.982   0.943   6.751  1.0670  0.3555 -1.3440
  164SAPE    C318420   1.173   1.401   6.772  0.5338  0.1922 -0.6381
  164SAPE    HX18421   1.066   1.400   6.802  0.6946  2.0965  0.1274
  164SAPE    HY18422   1.195   1.495   6.717 -0.5139  1.4271  0.9516
  164SAPE   O3118423   1.247   1.380   6.895 -0.2436 -0.5241  0.1573
  164SAPE   C3118424   1.382   1.378   6.874 -0.2788  0.0433  0.4730
  164SAPE   O3218425   1.433   1.410   6.764  0.1983 -0.1061  0.0803
  164SAPE   C3218426   1.455   1.314   6.999 -0.2925  0.3107  0.8444
  164SAPE   H2X18427   1.543   1.376   7.024  0.5657 -1.0306  1.2704
  164SAPE   H2Y18428   1.498   1.217   6.965 -2.0964  0.2243 -1.4294
  164SAPE   C2318429   1.088   0.906   6.956 -0.4535 -0.6522 -0.2841
  164SAPE   H3R18430   1.193   0.876   6.934 -0.7108 -0.9316 -1.1949
  164SAPE   H3S18431   1.027   0.814   6.965 -3.8821  1.5044  0.2464
  164SAPE   C2418432   1.088   0.977   7.093  1.0474  0.0900 -0.1582
  164SAPE   H4R18433   1.140   1.074   7.080 -0.5065  1.4038  2.4549
  164SAPE   H4S18434   1.121   0.902   7.168  2.2360 -0.7563 -1.4875
  164SAPE   C2518435   0.946   1.004   7.140  0.1308 -0.4346  0.0469
  164SAPE   H5R18436   0.876   1.062   7.078  0.8970  3.1005  2.1947
  164SAPE   C2618437   0.888   0.955   7.257 -0.4054  0.0002 -0.5169
  164SAPE   H6R18438   0.783   0.983   7.273 -0.7694 -1.7957  0.4981
  164SAPE   C2718439   0.970   0.874   7.364 -0.2742  0.4252 -0.3005
  164SAPE   H7R18440   1.031   0.790   7.324 -0.1868  1.2445 -1.9610
  164SAPE   H7S18441   0.885   0.832   7.422 -0.8757  0.7472 -0.9297
  164SAPE   C2818442   1.068   0.952   7.443 -0.1591 -0.0065 -0.6616
  164SAPE   H8R18443   1.151   0.994   7.385  0.3344 -0.6495 -0.4391
  164SAPE   C2918444   1.074   0.979   7.575  0.2114 -0.0952 -0.1336
  164SAPE   H9R18445   1.162   1.027   7.622 -0.1039  0.7927 -0.4291
  164SAPE  C21018446   0.966   0.937   7.664 -0.2626  0.1398  0.1394
  164SAPE  H10R18447   0.992   0.832   7.690 -0.5371  0.0318 -0.0183
  164SAPE  H10S18448   0.866   0.928   7.617  0.1342 -2.9539 -0.2875
  164SAPE  C21118449   0.957   1.027   7.779 -0.3429  0.1940  0.2429
  164SAPE  H11R18450   0.948   1.132   7.746 -0.9617  0.0859  0.0628
  164SAPE  C21218451   0.966   0.993   7.909  0.3109  0.7572 -0.7911
  164SAPE  H12R18452   0.955   1.067   7.989 -1.6117 -0.2493 -0.0525
  164SAPE  C21318453   0.984   0.851   7.961 -0.0754  0.2435  0.1404
  164SAPE  H13R18454   1.055   0.837   8.045  0.9948  0.3919 -0.7146
  164SAPE  H13S18455   1.008   0.779   7.880 -1.8896 -0.1930 -0.0541
  164SAPE  C21418456   0.839   0.820   8.006 -0.6730 -0.3424  0.4747
  164SAPE  H14R18457   0.802   0.889   8.083  0.3381  0.3517  0.3693
  164SAPE  C21518458   0.763   0.724   7.960  0.3310  0.1846 -0.1898
  164SAPE  H15R18459   0.663   0.705   8.003  1.1770 -0.4695  1.5914
  164SAPE  C21618460   0.802   0.617   7.859 -0.1424  0.3816  0.6183
  164SAPE  H16R18461   0.775   0.516   7.899  1.2516 -0.3820 -0.2806
  164SAPE  H16S18462   0.912   0.604   7.856  0.1632  1.3008  3.8306
  164SAPE  C21718463   0.734   0.635   7.723  0.0861  0.0362  0.1133
  164SAPE  H17R18464   0.798   0.714   7.679  2.9447 -0.0728  3.6132
  164SAPE  H17S18465   0.629   0.672   7.723  1.0268  3.0818 -2.2527
  164SAPE  C21818466   0.747   0.511   7.637  0.5673  0.3098  0.3995
  164SAPE  H18R18467   0.667   0.440   7.665  2.2166 -1.8003  0.0197
  164SAPE  H18S18468   0.846   0.463   7.653  0.9704  1.2592  0.8670
  164SAPE  C21918469   0.751   0.527   7.482 -0.0535  0.0270 -0.1489
  164SAPE  H19R18470   0.839   0.589   7.454 -0.0846 -1.1241 -3.2826
  164SAPE  H19S18471   0.658   0.578   7.449 -0.8607  0.2381  2.3230
  164SAPE  C22018472   0.771   0.402   7.403  0.0078 -0.1067  0.7840
  164SAPE  H20R18473   0.700   0.324   7.438 -2.1027  1.4236  0.1888
  164SAPE  H20S18474   0.871   0.357   7.417  0.0397 -0.0073  0.8813
  164SAPE  H20T18475   0.750   0.411   7.294  1.1057 -0.2501  0.5485
  164SAPE   C3318476   1.378   1.294   7.125  0.1035  0.0485  0.0752
  164SAPE   H3X18477   1.316   1.203   7.134  1.6758 -1.0747 -0.0849
  164SAPE   H3Y18478   1.303   1.375   7.139  0.2496  0.4094 -1.1153
  164SAPE   C3418479   1.460   1.308   7.258  0.8363 -0.0109 -0.1532
  164SAPE   H4X18480   1.499   1.411   7.269 -1.6646  0.8654  1.5702
  164SAPE   H4Y18481   1.545   1.237   7.263  1.4380  0.7749  3.3555
  164SAPE   C3518482   1.365   1.283   7.370 -0.2835 -0.4843  0.6742
  164SAPE   H5X18483   1.318   1.183   7.381 -1.6172  0.1691  1.2140
  164SAPE   H5Y18484   1.272   1.344   7.363 -1.5412 -2.4205 -0.6333
  164SAPE   C3618485   1.432   1.313   7.503 -1.0786 -0.2995 -0.7032
  164SAPE   H6X18486   1.460   1.420   7.510  0.0021 -0.6712  1.3725
  164SAPE   H6Y18487   1.523   1.253   7.522  0.1964  1.5591 -0.6809
  164SAPE   C3718488   1.320   1.300   7.609 -0.4734 -1.0207 -0.1208
  164SAPE   H7X18489   1.275   1.199   7.597  1.2591 -1.8129 -0.2222
  164SAPE   H7Y18490   1.249   1.377   7.574 -0.0757 -0.8367 -0.5290
  164SAPE   C3818491   1.335   1.338   7.754  0.1192 -0.2971  0.2507
  164SAPE   H8X18492   1.368   1.441   7.779  0.8308 -0.7725  1.3405
  164SAPE   H8Y18493   1.413   1.271   7.797 -0.8278 -1.0637  0.8003
  164SAPE   C3918494   1.199   1.326   7.835  0.2098  0.1421 -0.0190
  164SAPE   H9X18495   1.171   1.219   7.833  0.2193  0.1427 -1.0113
  164SAPE   H9Y18496   1.123   1.392   7.786 -0.6632 -0.1571  0.9009
  164SAPE  C31018497   1.238   1.372   7.971  0.5145  0.5279  0.1251
  164SAPE  H10X18498   1.292   1.469   7.963 -0.0616  0.7446 -1.6350
  164SAPE  H10Y18499   1.309   1.292   8.002 -1.4299 -0.2221  3.0175
  164SAPE  C31118500   1.119   1.371   8.071 -0.0914  0.2307  0.1212
  164SAPE  H11X18501   1.052   1.286   8.048  2.7228 -2.3322  0.6840
  164SAPE  H11Y18502   1.059   1.463   8.054  1.8071  1.2625 -1.2997
  164SAPE  C31218503   1.176   1.365   8.218 -0.5052 -0.2513 -0.2314
  164SAPE  H12X18504   1.246   1.450   8.234 -0.5026  0.0425 -1.6943
  164SAPE  H12Y18505   1.243   1.276   8.222  1.0599  0.9230  1.6253
  164SAPE  C31318506   1.067   1.343   8.318  0.0754 -0.3613  0.0197
  164SAPE  H13X18507   1.034   1.237   8.311 -0.3485 -0.2476  0.2813
  164SAPE  H13Y18508   0.976   1.402   8.292 -1.5897 -2.3237  1.1221
  164SAPE  C31418509   1.119   1.360   8.462  0.1194  0.7586 -0.3422
  164SAPE  H14X18510   1.037   1.337   8.534  0.3108  0.9763 -0.0561
  164SAPE  H14Y18511   1.145   1.467   8.474  0.8989  0.6911 -1.3017
  164SAPE  C31518512   1.241   1.278   8.505  0.2049  0.8472 -0.3254
  164SAPE  H15X18513   1.327   1.293   8.437  0.8427  0.2927  0.3490
  164SAPE  H15Y18514   1.213   1.170   8.509 -2.5446  1.3735 -2.0838
  164SAPE  C31618515   1.301   1.316   8.646 -0.3490  0.4712  0.5432
  164SAPE  H16X18516   1.353   1.414   8.645  1.6781 -0.5724 -0.3842
  164SAPE  H16Y18517   1.372   1.236   8.673 -0.7440  0.7110  2.4797
  164SAPE  C31718518   1.196   1.316   8.763 -0.0584 -0.7170  0.4727
  164SAPE  H17X18519   1.126   1.398   8.739  0.7182  0.1208  1.0155
  164SAPE  H17Y18520   1.242   1.331   8.863 -1.9995 -2.1168  1.6505
  164SAPE  C31818521   1.140   1.179   8.789  0.1388 -0.3797  0.4340
  164SAPE  H18X18522   1.082   1.185   8.884  0.1042 -0.5098  0.4219
  164SAPE  H18Y18523   1.214   1.096   8.789  0.0115 -0.4968  0.7422
  164SAPE  H18Z18524   1.069   1.154   8.707  1.4447  0.0983 -0.8746
  165SAPE     N18525   5.524   3.250   6.118  0.3595  0.1673  0.1854
  165SAPE   HN118526   5.627   3.246   6.123  0.4492  1.3324 -0.3666
  165SAPE   HN218527   5.519   3.338   6.063 -0.3652  0.6547  1.0094
  165SAPE   HN318528   5.469   3.250   6.207 -0.9268 -2.2764 -0.5029
  165SAPE   C1218529   5.485   3.127   6.051 -0.2702  0.7227  0.5169
  165SAPE  H12A18530   5.574   3.091   5.994  0.1263  3.1631 -0.5439
  165SAPE  H12B18531   5.406   3.148   5.976  0.3094 -1.6126 -0.8423
  165SAPE   C1118532   5.431   3.022   6.155 -0.6840 -0.1347  0.1755
  165SAPE  H11A18533   5.338   3.072   6.189 -0.8665 -0.8475  0.7446
  165SAPE  H11B18534   5.508   3.003   6.233  0.6054  1.3278 -0.6811
  165SAPE     P18535   5.429   2.767   6.139 -0.2473  0.1794  0.1403
  165SAPE   O1318536   5.360   2.657   6.070 -0.6371  0.1018 -0.7295
  165SAPE   O1418537   5.580   2.774   6.144  0.1642  0.4500  0.1233
  165SAPE   O1218538   5.386   2.905   6.082  0.7608 -0.2476  0.0677
  165SAPE   O1118539   5.390   2.758   6.286  0.9897  0.4783 -0.6145
  165SAPE    C118540   5.261   2.805   6.335  0.4982  0.5858 -0.7791
  165SAPE    HA18541   5.213   2.864   6.254  2.8430  0.4240 -2.3652
  165SAPE    HB18542   5.196   2.715   6.350  0.6494  0.6537  0.3843
  165SAPE    C218543   5.260   2.877   6.477  0.1249  0.4568 -0.7978
  165SAPE    HS18544   5.318   2.971   6.463 -0.3229  0.9113  0.3339
  165SAPE   O2118545   5.335   2.794   6.573  0.0233  0.9390  0.3366
  165SAPE   C2118546   5.398   2.860   6.673  0.0698 -0.5149  0.1721
  165SAPE   O2218547   5.401   2.981   6.680 -0.1037  0.0277  0.0078
  165SAPE   C2218548   5.457   2.762   6.776  0.2735  0.4161 -0.2600
  165SAPE   H2R18549   5.364   2.711   6.808  0.3533  0.7835  0.6009
  165SAPE   H2S18550   5.523   2.690   6.724  1.3740  1.0220  0.2626
  165SAPE    C318551   5.118   2.907   6.521 -0.0999  0.1926 -0.3191
  165SAPE    HX18552   5.067   2.808   6.524  0.6145 -0.1605  0.4261
  165SAPE    HY18553   5.068   2.964   6.440  0.8256 -1.6112 -2.2525
  165SAPE   O3118554   5.110   2.967   6.656 -0.5910 -0.2716 -0.3770
  165SAPE   C3118555   4.991   2.941   6.714 -0.3880 -0.0745 -0.4589
  165SAPE   O3218556   4.903   2.877   6.661 -0.6673  0.6996 -0.6783
  165SAPE   C3218557   4.979   3.010   6.848 -0.0945 -0.3053  0.1116
  165SAPE   H2X18558   4.890   2.968   6.900 -1.3342 -0.2527 -1.8724
  165SAPE   H2Y18559   4.973   3.113   6.808  3.8796  1.4046  3.2225
  165SAPE   C2318560   5.535   2.835   6.890  0.5166  0.4121 -0.1620
  165SAPE   H3R18561   5.474   2.915   6.938 -1.1372  0.1397 -1.6863
  165SAPE   H3S18562   5.611   2.899   6.839  1.5504  1.1761  2.2109
  165SAPE   C2418563   5.607   2.742   6.993 -0.0566  0.5952 -0.8156
  165SAPE   H4R18564   5.649   2.658   6.934 -1.1395 -0.1083 -0.6197
  165SAPE   H4S18565   5.526   2.696   7.053  0.6206  1.7670  1.0922
  165SAPE   C2518566   5.712   2.815   7.073 -0.9701  0.1673  0.0569
  165SAPE   H5R18567   5.786   2.864   7.008  0.3816 -1.8861 -0.0142
  165SAPE   C2618568   5.714   2.840   7.203  0.7655  0.2061 -0.8172
  165SAPE   H6R18569   5.800   2.892   7.249  0.4251  0.9812 -1.0341
  165SAPE   C2718570   5.610   2.795   7.296  0.3670  0.2815  0.5717
  165SAPE   H7R18571   5.589   2.686   7.287 -2.8797  0.6582  2.3933
  165SAPE   H7S18572   5.515   2.839   7.259 -0.5108 -0.6010  1.7128
  165SAPE   C2818573   5.624   2.829   7.441 -0.1284  0.3157 -0.5849
  165SAPE   H8R18574   5.574   2.924   7.466  1.2134  0.8842  0.0312
  165SAPE   C2918575   5.704   2.772   7.535  1.1867 -0.0480  0.0637
  165SAPE   H9R18576   5.696   2.808   7.639 -0.8217  1.5866 -0.5851
  165SAPE  C21018577   5.797   2.655   7.515 -0.5661 -0.1062 -0.5201
  165SAPE  H10R18578   5.772   2.592   7.427  0.8158 -2.1831  0.4976
  165SAPE  H10S18579   5.811   2.583   7.598  0.5442  0.8613  0.1681
  165SAPE  C21118580   5.934   2.718   7.478 -0.2793 -1.0272  0.1461
  165SAPE  H11R18581   5.942   2.776   7.385  0.0644  0.1889  0.9047
  165SAPE  C21218582   6.042   2.739   7.561  0.1876 -0.3228 -0.3055
  165SAPE  H12R18583   6.134   2.786   7.524  0.1878 -0.4106 -0.4187
  165SAPE  C21318584   6.059   2.697   7.707 -0.0704 -0.0069 -0.0325
  165SAPE  H13R18585   5.978   2.623   7.726 -1.0745  1.8322  4.0339
  165SAPE  H13S18586   6.024   2.784   7.766 -1.6874 -2.2381  2.5749
  165SAPE  C21418587   6.192   2.647   7.749  0.4804  0.5863 -0.6402
  165SAPE  H14R18588   6.256   2.601   7.672  3.0318  2.1910  0.3833
  165SAPE  C21518589   6.229   2.645   7.880  0.2308  0.0397  0.1684
  165SAPE  H15R18590   6.333   2.627   7.910  0.0413 -2.0304 -0.3124
  165SAPE  C21618591   6.159   2.710   7.996 -0.0769 -0.2972 -0.1943
  165SAPE  H16R18592   6.048   2.699   7.994 -0.0692 -1.5448 -4.7767
  165SAPE  H16S18593   6.193   2.815   8.007 -0.0070 -0.2910 -0.4632
  165SAPE  C21718594   6.197   2.638   8.122 -0.3713  0.4217 -0.1047
  165SAPE  H17R18595   6.303   2.607   8.104 -0.5041  1.5135 -3.4275
  165SAPE  H17S18596   6.127   2.552   8.126  0.4381 -0.4244 -2.5166
  165SAPE  C21818597   6.196   2.713   8.254  0.1540  0.0630 -1.1963
  165SAPE  H18R18598   6.268   2.798   8.243  0.0051  0.5875  1.3977
  165SAPE  H18S18599   6.223   2.647   8.339 -0.2547  1.5690  0.1551
  165SAPE  C21918600   6.055   2.754   8.300  0.4901  0.0870 -0.2437
  165SAPE  H19R18601   6.071   2.783   8.406 -0.2372 -0.2426 -0.0342
  165SAPE  H19S18602   5.984   2.668   8.300 -0.6561  0.9880 -0.9727
  165SAPE  C22018603   6.005   2.882   8.239 -0.2951 -0.1363  0.1087
  165SAPE  H20R18604   6.077   2.963   8.267 -2.0499  2.3392 -1.9853
  165SAPE  H20S18605   5.903   2.913   8.269 -1.0444  0.2400 -2.5577
  165SAPE  H20T18606   5.990   2.880   8.129 -0.1914 -1.9232  0.0980
  165SAPE   C3318607   5.104   2.996   6.937  0.0574 -0.3443  0.0547
  165SAPE   H3X18608   5.106   3.070   7.020  2.3495  1.4643 -1.4566
  165SAPE   H3Y18609   5.196   3.013   6.877 -1.1129  1.7918 -1.2523
  165SAPE   C3418610   5.111   2.855   6.991 -0.3659 -0.7598  0.5062
  165SAPE   H4X18611   5.151   2.785   6.915 -1.0882 -0.3422 -0.2713
  165SAPE   H4Y18612   5.011   2.818   7.022 -0.6992 -3.0124 -2.7819
  165SAPE   C3518613   5.208   2.842   7.103  0.2954 -0.8555  0.2158
  165SAPE   H5X18614   5.273   2.932   7.100  1.6143 -1.7718 -2.7681
  165SAPE   H5Y18615   5.270   2.750   7.100  0.6245 -0.6247 -0.6138
  165SAPE   C3618616   5.142   2.848   7.243  0.7569  0.3903 -0.7121
  165SAPE   H6X18617   5.063   2.770   7.241  4.5574 -3.8097 -0.5299
  165SAPE   H6Y18618   5.102   2.951   7.258  1.5155  0.2691  3.3068
  165SAPE   C3718619   5.238   2.822   7.357 -0.9847 -0.5148  0.0345
  165SAPE   H7X18620   5.307   2.909   7.352 -3.1034  1.2329 -0.2861
  165SAPE   H7Y18621   5.300   2.736   7.325 -0.7693 -0.3640  0.0449
  165SAPE   C3818622   5.173   2.794   7.492 -0.2998 -0.3287 -0.2417
  165SAPE   H8X18623   5.110   2.703   7.483 -0.0908 -1.1184  3.9190
  165SAPE   H8Y18624   5.105   2.877   7.522 -1.0361 -1.1994  0.5620
  165SAPE   C3918625   5.271   2.774   7.608  0.1263  0.3162  0.2035
  165SAPE   H9X18626   5.323   2.870   7.629 -0.2056  0.5195  0.1066
  165SAPE   H9Y18627   5.342   2.696   7.574  0.7573  0.8133  0.3541
  165SAPE  C31018628   5.206   2.707   7.731 -0.2718 -0.2213 -0.5278
  165SAPE  H10X18629   5.146   2.616   7.712  1.9075 -1.7370 -0.4864
  165SAPE  H10Y18630   5.130   2.777   7.772 -0.9872 -0.0824 -2.0249
  165SAPE  C31118631   5.316   2.686   7.835  0.1577  0.7068 -0.7142
  165SAPE  H11X18632   5.350   2.781   7.881 -0.1005 -0.7160  2.7662
  165SAPE  H11Y18633   5.406   2.640   7.789 -0.6820 -0.7510 -0.9604
  165SAPE  C31218634   5.276   2.594   7.954 -0.3838  0.3143  0.2275
  165SAPE  H12X18635   5.357   2.594   8.030  1.2788 -0.7523 -1.4353
  165SAPE  H12Y18636   5.272   2.489   7.919 -3.0903  0.2984  0.3499
  165SAPE  C31318637   5.151   2.631   8.032 -0.4487 -0.5408 -0.4747
  165SAPE  H13X18638   5.063   2.638   7.965  0.8536  0.8063 -2.1695
  165SAPE  H13Y18639   5.173   2.735   8.066  1.4099 -1.0560  0.0347
  165SAPE  C31418640   5.112   2.540   8.160  0.2351  0.2114  0.1461
  165SAPE  H14X18641   5.201   2.521   8.224  1.5560 -0.2756 -1.7156
  165SAPE  H14Y18642   5.084   2.441   8.120 -1.7725  1.1830 -0.9762
  165SAPE  C31518643   4.998   2.605   8.239  0.8396  0.3832 -0.0147
  165SAPE  H15X18644   4.917   2.620   8.165 -0.1294 -2.6462  0.2857
  165SAPE  H15Y18645   5.026   2.702   8.287  0.3589  0.6175 -0.2055
  165SAPE  C31618646   4.953   2.510   8.353  0.1229 -0.9274 -0.1433
  165SAPE  H16X18647   5.045   2.507   8.416  0.5281 -0.1133 -0.6740
  165SAPE  H16Y18648   4.938   2.413   8.301 -1.0507  0.2714 -2.1893
  165SAPE  C31718649   4.831   2.567   8.422  0.3737  0.0663 -0.7905
  165SAPE  H17X18650   4.854   2.671   8.452 -0.8960  0.8633 -2.4045
  165SAPE  H17Y18651   4.797   2.504   8.507 -1.8132  0.2167 -1.5024
  165SAPE  C31818652   4.697   2.572   8.346 -0.4074  0.4080 -0.3246
  165SAPE  H18X18653   4.656   2.471   8.326 -0.1558  0.6940 -2.5303
  165SAPE  H18Y18654   4.690   2.629   8.250 -0.8874 -1.6009 -1.5348
  165SAPE  H18Z18655   4.623   2.625   8.409 -1.1399 -0.0108 -0.8318
  166SAPE     N18656   2.144   0.327   6.309  0.1243 -0.0339  0.1221
  166SAPE   HN118657   2.123   0.239   6.361 -1.6342  1.4469  2.0941
  166SAPE   HN218658   2.155   0.389   6.392 -2.8802 -1.6046  1.8755
  166SAPE   HN318659   2.053   0.356   6.266  0.7139 -1.2987 -2.1500
  166SAPE   C1218660   2.262   0.332   6.214  0.9203 -0.6147 -0.2987
  166SAPE  H12A18661   2.247   0.252   6.139  1.9641 -1.1479  0.0393
  166SAPE  H12B18662   2.353   0.304   6.273  2.5338 -1.1962 -2.9125
  166SAPE   C1118663   2.272   0.460   6.132  0.4436  0.0366 -0.4211
  166SAPE  H11A18664   2.180   0.468   6.071 -0.4726  0.9045  1.0073
  166SAPE  H11B18665   2.360   0.451   6.065  0.2768  0.1199 -0.6509
  166SAPE     P18666   2.419   0.611   6.295  0.2943  0.1321  0.1065
  166SAPE   O1318667   2.537   0.595   6.210 -0.0421 -0.4184  0.0283
  166SAPE   O1418668   2.403   0.746   6.355  0.0441  0.5267  0.1814
  166SAPE   O1218669   2.285   0.574   6.211 -0.6884  0.4709 -0.4759
  166SAPE   O1118670   2.431   0.505   6.407  0.2051 -0.3248  0.0719
  166SAPE    C118671   2.374   0.509   6.532 -0.2498 -0.8975  0.0736
  166SAPE    HA18672   2.297   0.588   6.548 -1.3440 -0.7847 -4.3236
  166SAPE    HB18673   2.341   0.408   6.563  0.0677 -1.0742 -0.1508
  166SAPE    C218674   2.480   0.558   6.646 -0.4481 -0.1895  0.6029
  166SAPE    HS18675   2.537   0.621   6.574 -1.1430 -2.8275 -2.4994
  166SAPE   O2118676   2.556   0.441   6.679  0.1447  0.6563  0.0077
  166SAPE   C2118677   2.685   0.470   6.707  0.0006 -0.1933 -0.3803
  166SAPE   O2218678   2.736   0.576   6.696 -0.4997 -0.7029  0.4865
  166SAPE   C2218679   2.756   0.345   6.770 -0.3945  0.6673  0.1718
  166SAPE   H2R18680   2.682   0.299   6.838 -0.4870 -1.1836 -1.1161
  166SAPE   H2S18681   2.775   0.273   6.687 -1.4728 -0.2436  0.6975
  166SAPE    C318682   2.425   0.638   6.771  0.2778  0.3116 -0.0972
  166SAPE    HX18683   2.397   0.741   6.741  1.6549  0.0756 -2.4097
  166SAPE    HY18684   2.507   0.654   6.844  0.1625 -0.9205  0.3296
  166SAPE   O3118685   2.307   0.576   6.826  0.3736  0.0895  0.3954
  166SAPE   C3118686   2.341   0.475   6.914  0.1874 -0.0999  0.4659
  166SAPE   O3218687   2.452   0.446   6.952 -0.1679  0.1814 -0.0043
  166SAPE   C3218688   2.208   0.402   6.950  0.3412 -0.0915  0.6206
  166SAPE   H2X18689   2.239   0.299   6.923  3.4424  1.1218 -0.9260
  166SAPE   H2Y18690   2.124   0.450   6.895  0.2857  1.5430  2.0374
  166SAPE   C2318691   2.894   0.384   6.826 -0.4845 -0.4409 -0.0605
  166SAPE   H3R18692   2.957   0.438   6.753 -0.3978 -0.5969 -0.1037
  166SAPE   H3S18693   2.947   0.289   6.852  1.6471  0.7677  0.2042
  166SAPE   C2418694   2.892   0.464   6.959 -0.4953 -0.4719  0.5637
  166SAPE   H4R18695   2.831   0.555   6.946 -0.7160 -0.9893 -3.1752
  166SAPE   H4S18696   2.993   0.497   6.988 -0.0166 -1.2272 -0.1681
  166SAPE   C2518697   2.831   0.380   7.077  0.0431 -0.8283  0.7774
  166SAPE   H5R18698   2.721   0.383   7.078 -0.0401 -0.1235 -1.8434
  166SAPE   C2618699   2.899   0.315   7.166 -0.2952 -0.3291 -0.4451
  166SAPE   H6R18700   2.837   0.274   7.247 -0.9402  1.8303  0.2514
  166SAPE   C2718701   3.045   0.300   7.191 -0.4969 -0.1129  0.2527
  166SAPE   H7R18702   3.076   0.265   7.090 -0.8862 -4.3021  1.3938
  166SAPE   H7S18703   3.060   0.212   7.256  0.0265 -1.8905 -2.1357
  166SAPE   C2818704   3.117   0.422   7.247 -0.0477 -0.3047  0.4581
  166SAPE   H8R18705   3.136   0.511   7.185  2.7367 -0.1691  1.3356
  166SAPE   C2918706   3.169   0.441   7.371  0.7695 -0.5207  0.1218
  166SAPE   H9R18707   3.191   0.544   7.401  2.1883 -1.3021  1.9572
  166SAPE  C21018708   3.160   0.343   7.484  0.3654 -0.2126  0.3545
  166SAPE  H10R18709   3.261   0.304   7.512  0.8848  0.4688 -0.5176
  166SAPE  H10S18710   3.099   0.254   7.460 -0.5568  0.7017 -0.8110
  166SAPE  C21118711   3.110   0.400   7.611 -0.5300 -0.1910 -0.3606
  166SAPE  H11R18712   3.186   0.396   7.690  0.1556  0.4773 -0.9719
  166SAPE  C21218713   2.983   0.439   7.647  0.2431 -0.1091  0.3653
  166SAPE  H12R18714   2.967   0.487   7.745  0.7524  1.3849 -0.2508
  166SAPE  C21318715   2.856   0.452   7.557 -0.6575 -0.6436 -0.4196
  166SAPE  H13R18716   2.790   0.366   7.583 -0.5869  0.3324  3.6802
  166SAPE  H13S18717   2.883   0.455   7.449 -0.5379  3.1878 -0.3964
  166SAPE  C21418718   2.778   0.575   7.583 -0.1446  0.2695 -0.5019
  166SAPE  H14R18719   2.769   0.607   7.688  0.5875 -1.3539  0.0903
  166SAPE  C21518720   2.712   0.656   7.490 -0.1031  0.1641 -0.0322
  166SAPE  H15R18721   2.669   0.753   7.518  0.7565  0.2558  1.0217
  166SAPE  C21618722   2.718   0.639   7.345 -0.0336 -0.2732  1.2413
  166SAPE  H16R18723   2.654   0.557   7.307 -0.3391  0.3272  0.4311
  166SAPE  H16S18724   2.815   0.605   7.302 -0.7749  0.3088 -1.0481
  166SAPE  C21718725   2.671   0.769   7.271 -0.3167  0.6174 -0.0021
  166SAPE  H17R18726   2.747   0.846   7.296  1.0088 -0.6416 -0.0075
  166SAPE  H17S18727   2.575   0.804   7.313  0.0791  0.3523  1.1697
  166SAPE  C21818728   2.664   0.756   7.116  0.2722 -0.2776  0.0600
  166SAPE  H18R18729   2.635   0.653   7.085  2.8876 -1.4997  1.3878
  166SAPE  H18S18730   2.768   0.774   7.083  0.4375  1.8831  1.5567
  166SAPE  C21918731   2.575   0.871   7.066 -0.5432  0.5826  0.3952
  166SAPE  H19R18732   2.572   0.871   6.955  0.1678  0.5811  0.3772
  166SAPE  H19S18733   2.618   0.969   7.096 -1.3386  1.2525 -0.5564
  166SAPE  C22018734   2.428   0.868   7.116  0.0475  0.3950  0.8188
  166SAPE  H20R18735   2.414   0.918   7.214  2.3349 -0.7557  1.8220
  166SAPE  H20S18736   2.408   0.759   7.127 -0.6529  0.5511  1.1613
  166SAPE  H20T18737   2.360   0.924   7.048 -0.7077  3.9127  4.1165
  166SAPE   C3318738   2.168   0.405   7.102  0.1118 -0.2342 -0.4139
  166SAPE   H3X18739   2.249   0.350   7.156 -0.0272  0.1446  0.1965
  166SAPE   H3Y18740   2.078   0.341   7.115  0.6092 -0.7600  0.6324
  166SAPE   C3418741   2.143   0.553   7.156  0.0691 -1.0381  0.1553
  166SAPE   H4X18742   2.050   0.593   7.111  1.1216  0.0852 -1.0940
  166SAPE   H4Y18743   2.231   0.615   7.128 -1.7781  1.5576 -0.1745
  166SAPE   C3518744   2.127   0.562   7.307 -0.3508 -0.0914  0.1863
  166SAPE   H5X18745   2.212   0.507   7.351 -1.5125 -2.4737 -0.4003
  166SAPE   H5Y18746   2.045   0.492   7.332 -0.6287  0.1815  0.0433
  166SAPE   C3618747   2.137   0.710   7.355 -0.0761  0.3500 -0.0730
  166SAPE   H6X18748   2.045   0.765   7.326  1.3895  2.1682 -1.5114
  166SAPE   H6Y18749   2.223   0.767   7.314  1.4697 -1.7366  0.1038
  166SAPE   C3718750   2.164   0.714   7.509 -0.4798 -0.2720  0.1111
  166SAPE   H7X18751   2.087   0.654   7.562 -0.4118 -1.4992 -1.1131
  166SAPE   H7Y18752   2.138   0.816   7.544 -2.2929 -0.6211 -0.1124
  166SAPE   C3818753   2.306   0.679   7.551  0.4743  0.7176 -0.4183
  166SAPE   H8X18754   2.369   0.761   7.509  1.4057 -0.5010 -1.5127
  166SAPE   H8Y18755   2.334   0.583   7.503 -0.3538  0.6459 -0.7679
  166SAPE   C3918756   2.321   0.676   7.708  0.2555 -0.3760  0.2609
  166SAPE   H9X18757   2.242   0.614   7.754  0.8103 -0.4846  1.0899
  166SAPE   H9Y18758   2.314   0.783   7.736  1.4086  0.2007 -1.4578
  166SAPE  C31018759   2.462   0.630   7.766  0.0920  0.3316  0.2616
  166SAPE  H10X18760   2.537   0.690   7.709 -0.5379  2.4859  1.5741
  166SAPE  H10Y18761   2.473   0.520   7.753  1.2717  0.3965  0.5637
  166SAPE  C31118762   2.486   0.677   7.908 -0.3224 -0.1656  0.2055
  166SAPE  H11X18763   2.428   0.624   7.986  0.6922 -0.3705  0.8428
  166SAPE  H11Y18764   2.455   0.783   7.918  1.4311  0.2197  2.6130
  166SAPE  C31218765   2.624   0.661   7.971  0.0084  0.4866 -0.0878
  166SAPE  H12X18766   2.621   0.680   8.080 -0.4740  1.6399 -0.2857
  166SAPE  H12Y18767   2.688   0.743   7.933  0.7353  0.0966  0.2759
  166SAPE  C31318768   2.694   0.522   7.961  0.3070 -0.5881  0.2526
  166SAPE  H13X18769   2.802   0.517   7.990  0.1568 -1.5865  0.7036
  166SAPE  H13Y18770   2.700   0.498   7.853 -0.2330  1.2893 -0.2131
  166SAPE  C31418771   2.621   0.410   8.034 -0.6210 -0.1187 -0.8708
  166SAPE  H14X18772   2.665   0.315   7.996 -0.0147 -0.7703  1.3564
  166SAPE  H14Y18773   2.514   0.404   8.004 -0.5270 -2.0252 -0.9856
  166SAPE  C31518774   2.620   0.424   8.185  0.0097  0.1936  0.0944
  166SAPE  H15X18775   2.588   0.523   8.222 -3.4980 -0.4675 -0.8119
  166SAPE  H15Y18776   2.727   0.408   8.209  0.5630  1.2636 -1.4492
  166SAPE  C31618777   2.530   0.317   8.248 -0.2104  0.0951  0.0058
  166SAPE  H16X18778   2.542   0.227   8.185 -1.6528 -0.3977  0.3734
  166SAPE  H16Y18779   2.423   0.343   8.266  0.1692 -0.5195  4.5101
  166SAPE  C31718780   2.578   0.273   8.385  0.3333  0.2413  0.3716
  166SAPE  H17X18781   2.492   0.224   8.435 -0.0101  1.1049  0.6593
  166SAPE  H17Y18782   2.599   0.359   8.452 -2.0967  0.9598  0.3116
  166SAPE  C31818783   2.708   0.193   8.397 -0.0717 -0.1108 -0.3196
  166SAPE  H18X18784   2.713   0.107   8.327  1.5122  1.2249 -1.9478
  166SAPE  H18Y18785   2.713   0.141   8.495  1.0236  2.9061  1.3521
  166SAPE  H18Z18786   2.799   0.257   8.404 -0.4178  0.6061 -1.8265
  167SAPE     N18787   4.655   5.837   6.187  0.0314 -0.1106 -0.4484
  167SAPE   HN118788   4.745   5.815   6.139 -0.3362 -0.8341 -0.8267
  167SAPE   HN218789   4.656   5.937   6.216 -2.4209  0.2583 -1.3287
  167SAPE   HN318790   4.645   5.789   6.278  2.3658  2.7737  1.5027
  167SAPE   C1218791   4.537   5.809   6.101  0.8951 -0.5287 -0.4071
  167SAPE  H12A18792   4.513   5.701   6.092 -0.4245 -0.2596 -0.3679
  167SAPE  H12B18793   4.558   5.855   6.002 -2.9904 -2.4072 -2.3477
  167SAPE   C1118794   4.418   5.873   6.166  0.3728 -0.5420  0.4484
  167SAPE  H11A18795   4.406   5.826   6.266 -2.8819 -3.3611 -1.0599
  167SAPE  H11B18796   4.324   5.853   6.110 -0.0759 -0.4433  1.1457
  167SAPE     P18797   4.307   6.097   6.221  0.1707 -0.0183 -0.2601
  167SAPE   O1318798   4.352   6.237   6.241 -0.2243  0.6297  0.0589
  167SAPE   O1418799   4.197   6.071   6.136 -0.1506 -0.0900  0.3340
  167SAPE   O1218800   4.433   6.013   6.174  0.1879 -0.1228  0.7781
  167SAPE   O1118801   4.276   6.037   6.362 -0.2961  0.4228 -0.4879
  167SAPE    C118802   4.385   6.047   6.461  0.2305 -0.1399 -0.3295
  167SAPE    HA18803   4.470   5.979   6.434  0.6619  1.3701 -3.1399
  167SAPE    HB18804   4.427   6.149   6.468  0.6550 -0.3400  0.1489
  167SAPE    C218805   4.334   6.031   6.604  0.0640 -0.4206 -0.0867
  167SAPE    HS18806   4.282   5.933   6.598 -0.4559 -0.1627  0.2049
  167SAPE   O2118807   4.240   6.138   6.633 -0.3253  0.4523  0.2283
  167SAPE   C2118808   4.132   6.115   6.704  0.4920 -0.2546 -0.0977
  167SAPE   O2218809   4.095   6.002   6.739  0.3710  0.7872  0.3445
  167SAPE   C2218810   4.059   6.244   6.748 -0.1732 -0.9428 -0.1264
  167SAPE   H2R18811   4.133   6.326   6.758 -1.1156 -0.0807 -0.0579
  167SAPE   H2S18812   3.973   6.256   6.679 -0.4550 -2.4556 -0.0828
  167SAPE    C318813   4.437   6.018   6.708  0.3720  0.7893 -1.0108
  167SAPE    HX18814   4.502   6.106   6.725 -0.2508  0.6107  3.6252
  167SAPE    HY18815   4.509   5.938   6.679 -1.1438 -1.4438  0.9851
  167SAPE   O3118816   4.365   5.997   6.834  0.5544  0.4177  0.2139
  167SAPE   C3118817   4.369   5.870   6.882  0.0365 -0.1373  0.6003
  167SAPE   O3218818   4.406   5.773   6.819 -1.0646  0.3089  0.2603
  167SAPE   C3218819   4.319   5.864   7.027 -0.4067 -0.2000  0.0128
  167SAPE   H2X18820   4.405   5.844   7.094  0.1253  0.1758 -0.5371
  167SAPE   H2Y18821   4.255   5.774   7.036 -0.7009 -0.0218 -0.2654
  167SAPE   C2318822   4.005   6.221   6.896 -0.6316  0.1375  0.5816
  167SAPE   H3R18823   4.092   6.253   6.957  0.5830 -0.0288 -0.9917
  167SAPE   H3S18824   3.971   6.117   6.914  1.6838 -0.6704  0.6238
  167SAPE   C2418825   3.886   6.309   6.927  0.8635 -0.2233 -0.4694
  167SAPE   H4R18826   3.917   6.399   6.871  0.0980 -0.0692 -0.6655
  167SAPE   H4S18827   3.874   6.327   7.036 -1.6054 -2.6213 -0.2309
  167SAPE   C2518828   3.754   6.272   6.870  0.9584 -0.2705 -0.1283
  167SAPE   H5R18829   3.747   6.279   6.760 -0.7184 -0.2170 -0.0455
  167SAPE   C2618830   3.638   6.244   6.931 -0.1518 -0.7289  0.9424
  167SAPE   H6R18831   3.561   6.207   6.862  2.7115 -3.5591 -1.0045
  167SAPE   C2718832   3.603   6.242   7.074  0.2106  0.0526 -0.0098
  167SAPE   H7R18833   3.496   6.272   7.073  0.3305  0.5295  1.1527
  167SAPE   H7S18834   3.663   6.321   7.123 -3.1870  1.9523  1.4284
  167SAPE   C2818835   3.610   6.106   7.146  0.3055 -0.1958  0.0459
  167SAPE   H8R18836   3.611   6.022   7.075 -0.6830  0.0310 -0.2566
  167SAPE   C2918837   3.615   6.083   7.283  0.3779  0.2505  0.0607
  167SAPE   H9R18838   3.617   5.979   7.320 -1.8263 -0.3289 -1.2152
  167SAPE  C21018839   3.601   6.191   7.386 -0.1541  0.2570  0.4588
  167SAPE  H10R18840   3.636   6.288   7.343  3.3351 -1.0679 -0.0154
  167SAPE  H10S18841   3.674   6.172   7.467 -1.2196  0.4661  1.4983
  167SAPE  C21118842   3.457   6.205   7.423 -0.0057  0.1321  0.6838
  167SAPE  H11R18843   3.394   6.236   7.338 -0.6713 -0.3785  0.9810
  167SAPE  C21218844   3.410   6.175   7.548  0.5864 -0.8908 -0.1595
  167SAPE  H12R18845   3.302   6.169   7.563 -0.1094  1.1544 -3.3753
  167SAPE  C21318846   3.490   6.139   7.671  0.6603  0.4148  0.0822
  167SAPE  H13R18847   3.568   6.063   7.654 -0.9749 -0.6457 -3.5636
  167SAPE  H13S18848   3.418   6.097   7.745  0.8530  0.9656  0.5873
  167SAPE  C21418849   3.554   6.262   7.725 -0.0447  0.0197 -0.2391
  167SAPE  H14R18850   3.636   6.295   7.660  1.2398  0.1677  1.3799
  167SAPE  C21518851   3.519   6.347   7.827 -0.9952  0.4650  0.1943
  167SAPE  H15R18852   3.589   6.428   7.852 -0.1222 -0.0697 -0.4579
  167SAPE  C21618853   3.402   6.331   7.920 -0.1662  0.5738 -0.1423
  167SAPE  H16R18854   3.355   6.230   7.924  3.1294 -1.0929  2.0887
  167SAPE  H16S18855   3.320   6.399   7.889  0.8845  2.4509  1.0676
  167SAPE  C21718856   3.453   6.361   8.061 -0.3277 -0.2560 -0.1900
  167SAPE  H17R18857   3.516   6.451   8.076 -0.4469 -0.2887  0.5485
  167SAPE  H17S18858   3.526   6.286   8.097  2.7745  1.0213 -3.2769
  167SAPE  C21818859   3.335   6.365   8.161  0.4813  0.3493 -0.5514
  167SAPE  H18R18860   3.281   6.268   8.167 -1.6802  1.5846  3.1912
  167SAPE  H18S18861   3.255   6.432   8.122  0.2354 -0.6845 -1.9044
  167SAPE  C21918862   3.370   6.410   8.296 -0.4054 -0.6356 -0.3829
  167SAPE  H19R18863   3.283   6.424   8.364 -0.3554 -0.5110 -0.3437
  167SAPE  H19S18864   3.409   6.513   8.308  0.8157 -1.2770  1.8574
  167SAPE  C22018865   3.469   6.315   8.358  0.4832  0.3321  0.5039
  167SAPE  H20R18866   3.563   6.342   8.306  1.3333 -0.6813  1.4518
  167SAPE  H20S18867   3.455   6.207   8.340  0.0979  0.1264  1.8993
  167SAPE  H20T18868   3.496   6.326   8.466 -2.7785 -0.2920  1.5032
  167SAPE   C3318869   4.242   5.990   7.071 -0.6862  0.4260  0.0611
  167SAPE   H3X18870   4.159   6.000   6.997  1.1488  0.3954 -2.0968
  167SAPE   H3Y18871   4.300   6.084   7.067  0.1845 -0.0843  0.4740
  167SAPE   C3418872   4.178   5.985   7.207  0.1194 -0.5634 -0.4782
  167SAPE   H4X18873   4.259   6.006   7.280  2.7311 -0.3289 -3.2275
  167SAPE   H4Y18874   4.130   5.889   7.236 -0.3610 -0.7445 -1.7708
  167SAPE   C3518875   4.072   6.091   7.225 -0.1534 -0.7167  0.6918
  167SAPE   H5X18876   3.987   6.064   7.159  0.3047 -1.5362  0.4280
  167SAPE   H5Y18877   4.105   6.192   7.193 -0.4104  0.0002  2.5635
  167SAPE   C3618878   4.013   6.081   7.363  0.8468 -0.2157  0.2497
  167SAPE   H6X18879   3.949   5.991   7.377 -1.5338  1.3756  0.2784
  167SAPE   H6Y18880   3.932   6.157   7.372  1.1979  0.1703  0.1916
  167SAPE   C3718881   4.107   6.106   7.477  0.2563  0.1906 -1.0509
  167SAPE   H7X18882   4.158   6.202   7.451 -3.3641  2.7496  0.4430
  167SAPE   H7Y18883   4.177   6.020   7.485  0.9313  0.6244 -2.0432
  167SAPE   C3818884   4.038   6.122   7.608  0.4047  0.4413 -0.7332
  167SAPE   H8X18885   4.111   6.104   7.690  1.9385  0.3918 -2.0645
  167SAPE   H8Y18886   3.953   6.052   7.622  0.8009  0.4850  2.7645
  167SAPE   C3918887   3.976   6.258   7.634 -0.3831 -0.5777  0.2439
  167SAPE   H9X18888   3.916   6.295   7.548 -0.8296  0.0268  0.8089
  167SAPE   H9Y18889   4.059   6.328   7.659 -0.5038 -0.4250  0.2226
  167SAPE  C31018890   3.879   6.264   7.754 -0.0533 -0.3017 -0.4549
  167SAPE  H10X18891   3.796   6.191   7.739  0.3718 -1.3316  1.7714
  167SAPE  H10Y18892   3.821   6.358   7.766  1.9848  0.7825  1.6280
  167SAPE  C31118893   3.946   6.218   7.891 -0.0652 -0.0957  0.2883
  167SAPE  H11X18894   4.006   6.126   7.872 -0.9028 -0.9510  1.5848
  167SAPE  H11Y18895   3.863   6.197   7.961 -1.1094  1.1986 -0.5196
  167SAPE  C31218896   4.034   6.326   7.941 -0.8150 -1.0476  0.1041
  167SAPE  H12X18897   3.969   6.416   7.929 -0.3768 -0.6099  0.9375
  167SAPE  H12Y18898   4.124   6.334   7.877  0.0453  0.5544  1.4224
  167SAPE  C31318899   4.076   6.301   8.085  0.3473 -0.1831  0.1506
  167SAPE  H13X18900   4.124   6.202   8.095 -2.7719 -1.8786 -0.3220
  167SAPE  H13Y18901   3.984   6.317   8.146  0.3935  0.2454  0.1144
  167SAPE  C31418902   4.174   6.409   8.148  0.7542  0.3710  0.6039
  167SAPE  H14X18903   4.128   6.510   8.155 -1.7855 -0.4404 -2.1030
  167SAPE  H14Y18904   4.254   6.434   8.075  0.8916  1.8843  1.2387
  167SAPE  C31518905   4.219   6.371   8.290  0.3678  0.3195 -0.5280
  167SAPE  H15X18906   4.281   6.279   8.292 -1.7826 -1.2442  2.1977
  167SAPE  H15Y18907   4.130   6.354   8.355 -0.2654  0.2552 -1.3972
  167SAPE  C31618908   4.297   6.482   8.353 -0.2568 -0.0631 -0.1451
  167SAPE  H16X18909   4.364   6.509   8.268  1.8739 -1.4754  0.9879
  167SAPE  H16Y18910   4.348   6.441   8.443  1.6017 -0.1686 -1.2058
  167SAPE  C31718911   4.234   6.609   8.403  0.2057  0.3822 -0.3145
  167SAPE  H17X18912   4.163   6.586   8.486  1.5852 -0.7014  0.6099
  167SAPE  H17Y18913   4.184   6.671   8.326 -1.8378 -2.3969 -1.3765
  167SAPE  C31818914   4.336   6.706   8.461 -0.0033 -0.5137 -0.4200
  167SAPE  H18X18915   4.373   6.662   8.556  1.8742  1.3187 -0.2212
  167SAPE  H18Y18916   4.308   6.807   8.498 -0.1428 -0.7200  0.0399
  167SAPE  H18Z18917   4.418   6.736   8.392  1.3356 -3.5333 -0.3214
  168SAPE     N18918   4.672   0.147   6.415 -0.0374 -0.4600 -0.6186
  168SAPE   HN118919   4.759   0.132   6.359  1.3311 -2.5020  1.8508
  168SAPE   HN218920   4.674   0.239   6.464  0.8064 -0.7584 -0.0821
  168SAPE   HN318921   4.670   0.071   6.485 -0.9005 -0.3767 -0.5394
  168SAPE   C1218922   4.543   0.138   6.333 -0.4995 -0.2898  0.5907
  168SAPE  H12A18923   4.540   0.032   6.300  0.6499  0.1898 -1.1660
  168SAPE  H12B18924   4.553   0.211   6.250 -1.5040 -1.4833 -0.6288
  168SAPE   C1118925   4.417   0.160   6.417 -0.6467  0.4384  0.5595
  168SAPE  H11A18926   4.425   0.099   6.509  0.8575 -0.9423 -0.4332
  168SAPE  H11B18927   4.332   0.128   6.353  0.7859 -2.6246 -0.0005
  168SAPE     P18928   4.321   0.403   6.422 -0.2317  0.1121  0.1563
  168SAPE   O1318929   4.394   0.526   6.461 -0.6319  0.1324 -0.0348
  168SAPE   O1418930   4.280   0.371   6.283  0.2779  0.5076 -0.0902
  168SAPE   O1218931   4.424   0.296   6.469  0.1942  0.2534  0.3153
  168SAPE   O1118932   4.201   0.368   6.517 -0.0480 -0.5378 -0.4516
  168SAPE    C118933   4.196   0.397   6.657  0.1138 -0.2209  0.3020
  168SAPE    HA18934   4.252   0.487   6.691 -1.2766  0.3895  1.0985
  168SAPE    HB18935   4.090   0.411   6.690 -0.4808 -1.5725 -0.9341
  168SAPE    C218936   4.244   0.283   6.751  0.5509  0.0430  0.9871
  168SAPE    HS18937   4.354   0.272   6.739  0.4401 -1.8930  1.4525
  168SAPE   O2118938   4.166   0.169   6.708 -0.1008  0.6013 -0.0677
  168SAPE   C2118939   4.221   0.053   6.738  0.6167 -0.2814  0.6513
  168SAPE   O2218940   4.330   0.042   6.789  0.0848  0.1759 -0.5049
  168SAPE   C2218941   4.131  -0.063   6.703  0.2183  0.3090  0.7125
  168SAPE   H2R18942   4.097  -0.035   6.601  0.0137  1.5183  1.0892
  168SAPE   H2S18943   4.196  -0.153   6.707  2.0551  1.5380  0.0235
  168SAPE    C318944   4.221   0.331   6.899  0.7650 -0.0051 -0.2699
  168SAPE    HX18945   4.285   0.420   6.918  1.0478 -0.3200  0.2355
  168SAPE    HY18946   4.258   0.266   6.981 -1.1477 -0.1476  0.5352
  168SAPE   O3118947   4.091   0.388   6.922  0.2458 -0.1046 -0.2992
  168SAPE   C3118948   4.018   0.348   7.020  0.3971  0.4725  0.1628
  168SAPE   O3218949   4.040   0.256   7.095  0.2804  0.2768 -0.3825
  168SAPE   C3218950   3.911   0.460   7.044 -0.9464  0.2231 -0.0719
  168SAPE   H2X18951   3.961   0.550   7.001  2.2778 -0.7986  1.2263
  168SAPE   H2Y18952   3.895   0.475   7.153  1.2960  1.1123  0.1976
  168SAPE   C2318953   4.012  -0.074   6.793  0.7804  0.9925  0.3144
  168SAPE   H3R18954   3.951  -0.162   6.762 -2.9201  3.4916 -0.2055
  168SAPE   H3S18955   3.949   0.014   6.766  0.6571  1.0132  0.6628
  168SAPE   C2418956   4.031  -0.070   6.944  0.9058  0.1450  0.1673
  168SAPE   H4R18957   4.093   0.017   6.975  2.8217 -1.6779  1.6544
  168SAPE   H4S18958   4.083  -0.162   6.978 -0.0709 -0.4245  0.1566
  168SAPE   C2518959   3.892  -0.066   7.008  0.4598  0.2117  0.4539
  168SAPE   H5R18960   3.806  -0.030   6.951 -1.3962  0.0201  2.9606
  168SAPE   C2618961   3.864  -0.087   7.136 -0.4801  0.0830 -0.4424
  168SAPE   H6R18962   3.760  -0.061   7.163 -0.0945  0.9414  0.2757
  168SAPE   C2718963   3.955  -0.122   7.253 -0.3438  0.2574  0.4244
  168SAPE   H7R18964   4.060  -0.135   7.220  0.0690 -0.5022  1.9572
  168SAPE   H7S18965   3.938  -0.222   7.298 -0.0892 -0.6659 -1.4290
  168SAPE   C2818966   3.942  -0.012   7.352 -0.3133 -0.9459  0.2758
  168SAPE   H8R18967   3.904   0.083   7.312 -0.5151 -1.5900 -1.1414
  168SAPE   C2918968   3.980   0.000   7.481 -0.1381  0.0597  0.0570
  168SAPE   H9R18969   3.945   0.087   7.539 -0.7690 -0.2512  0.1488
  168SAPE  C21018970   4.047  -0.103   7.569 -0.7149 -0.3832  0.7726
  168SAPE  H10R18971   4.041  -0.207   7.531  0.6154 -0.1644 -0.0802
  168SAPE  H10S18972   3.997  -0.112   7.668  1.1421  1.2332  1.9306
  168SAPE  C21118973   4.195  -0.061   7.591  0.8215  1.2827 -0.1596
  168SAPE  H11R18974   4.255  -0.118   7.518  0.4599 -0.3864  0.8022
  168SAPE  C21218975   4.249   0.029   7.679  0.6038 -0.6811  0.7508
  168SAPE  H12R18976   4.354   0.060   7.667  1.0265 -2.1015  0.6370
  168SAPE  C21318977   4.161   0.126   7.764 -0.6199  0.7782 -0.4691
  168SAPE  H13R18978   4.074   0.173   7.714  0.1417  2.7010 -0.1022
  168SAPE  H13S18979   4.227   0.215   7.778 -0.5088  0.8945 -1.6549
  168SAPE  C21418980   4.124   0.069   7.904  0.0200  0.0321  0.4021
  168SAPE  H14R18981   4.131  -0.040   7.914 -0.1135  0.1575  2.2765
  168SAPE  C21518982   4.089   0.140   8.015  0.3576  0.9352 -0.0773
  168SAPE  H15R18983   4.071   0.086   8.109 -2.5347  1.5839 -0.1623
  168SAPE  C21618984   4.073   0.288   8.030 -0.3821 -0.2924 -0.6645
  168SAPE  H16R18985   4.169   0.325   7.988  1.7216 -2.4096  1.8965
  168SAPE  H16S18986   4.059   0.315   8.137  0.2468 -2.3639 -0.0201
  168SAPE  C21718987   3.958   0.367   7.952 -0.1237 -0.2819 -0.1990
  168SAPE  H17R18988   3.861   0.332   7.993 -0.2357 -1.1073 -1.1474
  168SAPE  H17S18989   3.967   0.351   7.843 -0.0019  0.4665 -0.3063
  168SAPE  C21818990   3.984   0.521   7.976  0.5062  0.0316 -0.5429
  168SAPE  H18R18991   4.090   0.551   7.957  0.3270  1.4982  0.5853
  168SAPE  H18S18992   3.956   0.547   8.080  1.6326 -1.3919  0.1610
  168SAPE  C21918993   3.898   0.597   7.876 -0.1020 -1.0763 -0.1042
  168SAPE  H19R18994   3.798   0.598   7.924  0.8266 -0.4520  1.9217
  168SAPE  H19S18995   3.898   0.545   7.777  0.5691  1.1090 -1.3189
  168SAPE  C22018996   3.947   0.736   7.844 -0.3726 -0.0458 -0.0105
  168SAPE  H20R18997   3.945   0.802   7.933 -0.4783  0.7712 -0.6070
  168SAPE  H20S18998   3.879   0.783   7.770 -1.0378 -1.4475 -0.3389
  168SAPE  H20T18999   4.051   0.726   7.807  0.7672  0.7450  2.7264
  168SAPE   C3319000   3.780   0.435   6.961  0.5537 -0.5019  0.4136
  168SAPE   H3X19001   3.786   0.422   6.851 -2.9690 -0.9446  0.1884
  168SAPE   H3Y19002   3.723   0.527   6.986 -0.8128 -1.1397 -0.2894
  168SAPE   C3419003   3.707   0.314   7.011  0.5279  0.4009  0.2213
  168SAPE   H4X19004   3.762   0.222   6.980 -0.6777 -0.6563  1.1330
  168SAPE   H4Y19005   3.614   0.323   6.952  1.6639 -0.2615 -1.7505
  168SAPE   C3519006   3.660   0.296   7.154 -0.2353 -0.1488 -0.0286
  168SAPE   H5X19007   3.615   0.394   7.180 -0.9015 -0.1041 -1.3043
  168SAPE   H5Y19008   3.757   0.286   7.208  0.1301 -0.2839 -0.7030
  168SAPE   C3619009   3.545   0.190   7.182 -0.3643 -0.4923 -0.9533
  168SAPE   H6X19010   3.579   0.086   7.163 -1.3609 -0.8452 -0.8774
  168SAPE   H6Y19011   3.458   0.208   7.116 -0.2671 -1.7597 -1.4359
  168SAPE   C3719012   3.505   0.208   7.330 -0.7674 -0.2366  1.3126
  168SAPE   H7X19013   3.402   0.170   7.350  0.0889 -2.2412  2.1566
  168SAPE   H7Y19014   3.508   0.317   7.352  2.4297  0.5962 -2.2069
  168SAPE   C3819015   3.606   0.129   7.418 -0.0404 -0.0218  0.0339
  168SAPE   H8X19016   3.712   0.154   7.394 -0.1985  0.9804  0.3151
  168SAPE   H8Y19017   3.579   0.022   7.413  1.5378 -0.4526  0.0788
  168SAPE   C3919018   3.583   0.154   7.570  0.6300  0.3870  1.1649
  168SAPE   H9X19019   3.476   0.128   7.577  0.7394 -1.6513 -2.3701
  168SAPE   H9Y19020   3.596   0.257   7.611 -1.7855  1.0048  0.5492
  168SAPE  C31019021   3.668   0.059   7.655  0.2479 -0.6308  0.6492
  168SAPE  H10X19022   3.773   0.091   7.667  0.0781  1.3250 -2.1410
  168SAPE  H10Y19023   3.668  -0.036   7.597 -0.1526  0.4157 -1.1327
  168SAPE  C31119024   3.618   0.052   7.801  0.6148  0.3951  0.1144
  168SAPE  H11X19025   3.513   0.016   7.793  0.7086  0.4430 -1.7023
  168SAPE  H11Y19026   3.611   0.152   7.850 -1.9843  0.4921 -0.3026
  168SAPE  C31219027   3.706  -0.040   7.882  0.7866 -0.0438  0.4652
  168SAPE  H12X19028   3.809  -0.003   7.860  0.4190  0.2827 -0.7859
  168SAPE  H12Y19029   3.705  -0.146   7.852  0.8814  0.2347 -0.5460
  168SAPE  C31319030   3.686  -0.015   8.029  0.1193  0.0982  0.0658
  168SAPE  H13X19031   3.592  -0.058   8.068  0.6015 -1.3421 -0.3034
  168SAPE  H13Y19032   3.686   0.091   8.062  0.0316 -0.8153  3.3060
  168SAPE  C31419033   3.796  -0.095   8.107 -0.2882  0.9440 -0.3876
  168SAPE  H14X19034   3.899  -0.075   8.071  0.2614  1.0690  1.1979
  168SAPE  H14Y19035   3.776  -0.203   8.094  1.4081  0.6931 -1.1403
  168SAPE  C31519036   3.793  -0.062   8.256 -0.0461 -0.0773 -0.3428
  168SAPE  H15X19037   3.690  -0.072   8.296 -0.4739  0.2256 -1.3321
  168SAPE  H15Y19038   3.831   0.041   8.276  0.0148 -0.4729  1.7894
  168SAPE  C31619039   3.885  -0.139   8.349 -0.1172 -0.4736  0.1453
  168SAPE  H16X19040   3.991  -0.123   8.319 -0.9773  2.0374 -1.8548
  168SAPE  H16Y19041   3.867  -0.249   8.343 -1.3882 -0.2183 -1.6361
  168SAPE  C31719042   3.855  -0.089   8.494  0.1929  0.3298 -0.0944
  168SAPE  H17X19043   3.746  -0.065   8.498  0.0119 -0.6431  1.8471
  168SAPE  H17Y19044   3.910   0.006   8.510  0.4925 -0.1987  2.2945
  168SAPE  C31819045   3.889  -0.200   8.608  0.0483  0.2229  0.0045
  168SAPE  H18X19046   3.997  -0.226   8.603 -0.3028 -1.4244  0.3939
  168SAPE  H18Y19047   3.831  -0.295   8.605  1.2801 -0.5369 -1.3256
  168SAPE  H18Z19048   3.868  -0.153   8.706  0.6080 -0.3143  0.3859
  169SAPE     N19049   3.504   2.967   6.441  0.4576  0.0054 -0.3997
  169SAPE   HN119050   3.477   2.892   6.375  1.3314 -2.5911  2.0057
  169SAPE   HN219051   3.457   3.059   6.425 -1.2079 -0.7658 -0.0843
  169SAPE   HN319052   3.606   2.987   6.442 -0.0630  3.1722  0.1654
  169SAPE   C1219053   3.477   2.909   6.582 -0.2078 -0.6407 -0.2082
  169SAPE  H12A19054   3.373   2.869   6.589 -0.1991 -0.4742  1.0947
  169SAPE  H12B19055   3.498   2.988   6.657 -0.2898 -0.5380 -0.2930
  169SAPE   C1119056   3.566   2.788   6.601  0.3143 -0.0838  0.5924
  169SAPE  H11A19057   3.542   2.746   6.701  1.0763  0.0084  0.8245
  169SAPE  H11B19058   3.671   2.823   6.608  0.4593 -0.0282 -1.4372
  169SAPE     P19059   3.629   2.562   6.489  0.0134 -0.5183  0.1599
  169SAPE   O1319060   3.536   2.452   6.468  0.0035  0.1021 -0.6556
  169SAPE   O1419061   3.735   2.592   6.388 -0.2173  0.0628  0.3360
  169SAPE   O1219062   3.546   2.692   6.504 -1.0454  0.1724  0.0290
  169SAPE   O1119063   3.691   2.543   6.635  0.4037  0.6684  0.8108
  169SAPE    C119064   3.822   2.593   6.655  0.0830  0.1784  0.1680
  169SAPE    HA19065   3.855   2.687   6.606  0.8390  0.0092  0.3383
  169SAPE    HB19066   3.831   2.615   6.763 -1.2324 -2.4701  0.8848
  169SAPE    C219067   3.925   2.477   6.631 -0.5327 -0.0111  0.8266
  169SAPE    HS19068   3.919   2.460   6.521  1.1832  2.7088  0.2240
  169SAPE   O2119069   3.879   2.361   6.704 -0.2420  0.2123 -0.3626
  169SAPE   C2119070   3.942   2.244   6.670  0.3801 -0.1433  0.8881
  169SAPE   O2219071   4.016   2.230   6.575  0.0368  0.2977  0.2371
  169SAPE   C2219072   3.894   2.139   6.757 -0.3549  0.3016  0.1031
  169SAPE   H2R19073   3.880   2.183   6.858 -0.2987  0.8409 -0.1197
  169SAPE   H2S19074   3.796   2.096   6.727  0.3072 -1.3373  0.1602
  169SAPE    C319075   4.066   2.520   6.679 -0.0477  0.0562  0.1878
  169SAPE    HX19076   4.082   2.607   6.613  0.4836  0.6911  1.1269
  169SAPE    HY19077   4.150   2.448   6.671  0.1095 -0.0253  2.0899
  169SAPE   O3119078   4.043   2.561   6.815  0.1984  0.1639 -0.4402
  169SAPE   C3119079   4.076   2.474   6.916 -0.3813  1.1379  0.6485
  169SAPE   O3219080   4.134   2.369   6.902  0.3426 -0.0617  0.1311
  169SAPE   C3219081   4.016   2.519   7.049  0.1103  0.2270  0.3548
  169SAPE   H2X19082   3.945   2.440   7.080 -0.4279  0.7833  0.5580
  169SAPE   H2Y19083   3.948   2.603   7.022 -1.1762 -1.5129 -2.2717
  169SAPE   C2319084   3.996   2.029   6.772  0.7681 -0.1721 -0.1475
  169SAPE   H3R19085   4.091   2.064   6.818  0.8425 -1.4807  0.7613
  169SAPE   H3S19086   4.019   1.997   6.669 -0.4065  0.7748 -0.7217
  169SAPE   C2419087   3.945   1.906   6.857  0.3990  0.3277 -0.0613
  169SAPE   H4R19088   3.920   1.942   6.959 -0.4394 -2.1604  0.6760
  169SAPE   H4S19089   4.032   1.837   6.856 -0.1499 -0.4284  1.1889
  169SAPE   C2519090   3.822   1.835   6.796 -0.7458 -0.1518  0.0977
  169SAPE   H5R19091   3.836   1.790   6.697 -1.7948  0.6367 -0.4222
  169SAPE   C2619092   3.703   1.806   6.847 -0.6278 -0.0902 -0.1508
  169SAPE   H6R19093   3.632   1.752   6.782  0.0711 -0.3886 -0.6661
  169SAPE   C2719094   3.650   1.855   6.985  0.2244 -0.8272  0.1696
  169SAPE   H7R19095   3.581   1.940   6.965 -1.2437 -1.8828  0.5807
  169SAPE   H7S19096   3.732   1.901   7.044  2.5704 -1.0242 -2.7551
  169SAPE   C2819097   3.579   1.736   7.050 -0.0439  0.1380  0.4295
  169SAPE   H8R19098   3.475   1.734   7.014  0.3569  0.8650 -0.8080
  169SAPE   C2919099   3.625   1.646   7.139 -0.3347  0.9621  0.5882
  169SAPE   H9R19100   3.548   1.573   7.169  0.2873  0.4085  0.8585
  169SAPE  C21019101   3.753   1.636   7.206 -0.3965  0.2402 -0.3410
  169SAPE  H10R19102   3.839   1.639   7.136  0.3550 -0.0308  0.5509
  169SAPE  H10S19103   3.771   1.535   7.249  1.7020  0.5391 -0.4178
  169SAPE  C21119104   3.752   1.747   7.314 -0.6571  0.4491  0.0429
  169SAPE  H11R19105   3.766   1.852   7.285 -1.9141  0.9978  1.2771
  169SAPE  C21219106   3.722   1.744   7.444  0.3013 -0.1621 -0.5968
  169SAPE  H12R19107   3.722   1.837   7.502 -0.0244 -0.9531  0.7071
  169SAPE  C21319108   3.688   1.630   7.528  0.7987  0.1529  0.2178
  169SAPE  H13R19109   3.770   1.603   7.598 -0.0153  2.1682  2.0318
  169SAPE  H13S19110   3.676   1.545   7.456 -0.2173  0.6329 -0.1971
  169SAPE  C21419111   3.563   1.661   7.611  0.1941 -0.0518  1.0492
  169SAPE  H14R19112   3.486   1.694   7.539  2.7278  1.7978 -1.0636
  169SAPE  C21519113   3.539   1.675   7.741 -0.0995 -0.0756 -0.1217
  169SAPE  H15R19114   3.439   1.709   7.771  1.0269  2.2435  1.1909
  169SAPE  C21619115   3.649   1.653   7.846  0.1073 -0.2939  0.0911
  169SAPE  H16R19116   3.725   1.580   7.812  0.4168  1.1827 -2.7505
  169SAPE  H16S19117   3.590   1.616   7.933 -1.9515 -0.9916 -1.5205
  169SAPE  C21719118   3.730   1.780   7.879 -0.5911  0.5403  0.0822
  169SAPE  H17R19119   3.656   1.858   7.909 -0.0632  1.6963 -1.4696
  169SAPE  H17S19120   3.788   1.820   7.793  1.2535  0.5970  1.3087
  169SAPE  C21819121   3.821   1.753   8.008  0.8037  0.4196 -0.4118
  169SAPE  H18R19122   3.903   1.681   7.987  2.1947  1.6052  0.7102
  169SAPE  H18S19123   3.759   1.704   8.087  0.1863 -1.3626 -1.9323
  169SAPE  C21919124   3.894   1.875   8.065  0.8778 -0.3262 -0.3879
  169SAPE  H19R19125   3.811   1.943   8.095  0.7330  0.2683 -2.0563
  169SAPE  H19S19126   3.950   1.931   7.988  0.3060 -0.0646 -0.6244
  169SAPE  C22019127   3.988   1.850   8.188  0.1900 -0.4464  0.1595
  169SAPE  H20R19128   4.035   1.946   8.220 -0.0384 -0.6286  1.0613
  169SAPE  H20S19129   4.064   1.777   8.153 -0.9016 -1.4498 -0.1941
  169SAPE  H20T19130   3.921   1.811   8.268  0.0050  0.1708  0.3113
  169SAPE   C3319131   4.123   2.542   7.154 -0.0393 -0.4814  0.5085
  169SAPE   H3X19132   4.197   2.621   7.131 -1.3724  0.3870 -0.9685
  169SAPE   H3Y19133   4.173   2.443   7.163 -0.9530 -0.8652  1.7723
  169SAPE   C3419134   4.066   2.587   7.292 -0.2824  0.5265  0.1099
  169SAPE   H4X19135   3.971   2.536   7.319  0.9791 -0.8214  2.2816
  169SAPE   H4Y19136   4.047   2.696   7.296  1.8815  0.9382  1.0584
  169SAPE   C3519137   4.176   2.553   7.397 -0.4356 -0.5169  0.0329
  169SAPE   H5X19138   4.263   2.618   7.373  0.3385 -1.7834 -0.7416
  169SAPE   H5Y19139   4.217   2.451   7.380  1.0953 -0.3202  2.1604
  169SAPE   C3619140   4.154   2.573   7.545  0.3415  0.4058  0.1340
  169SAPE   H6X19141   4.108   2.673   7.560  1.9803  1.3923 -1.1121
  169SAPE   H6Y19142   4.258   2.558   7.582  1.0147  0.8074 -1.5228
  169SAPE   C3719143   4.069   2.460   7.604 -0.4379  0.0954  0.1631
  169SAPE   H7X19144   4.106   2.367   7.555 -0.3883  0.9557 -1.4913
  169SAPE   H7Y19145   3.962   2.473   7.581 -0.7035 -1.5368  0.3476
  169SAPE   C3819146   4.075   2.433   7.756  0.6064 -0.5362 -0.0723
  169SAPE   H8X19147   3.994   2.359   7.775 -0.3306  0.7883  1.3009
  169SAPE   H8Y19148   4.052   2.522   7.818  1.0641 -0.4431 -0.0337
  169SAPE   C3919149   4.209   2.381   7.803  0.6333 -0.2494 -0.3249
  169SAPE   H9X19150   4.286   2.456   7.773 -0.2044  0.6347 -0.3221
  169SAPE   H9Y19151   4.254   2.294   7.751  1.9993 -0.0800  0.5312
  169SAPE  C31019152   4.216   2.356   7.960 -0.5971  0.0922  0.1665
  169SAPE  H10X19153   4.138   2.422   8.003 -0.0349  0.3313  0.8381
  169SAPE  H10Y19154   4.316   2.392   7.993 -0.3917 -0.2731 -0.0433
  169SAPE  C31119155   4.182   2.213   7.998  0.2349  0.2980  0.6155
  169SAPE  H11X19156   4.257   2.161   7.935 -0.0077  0.8597 -0.1585
  169SAPE  H11Y19157   4.082   2.176   7.965  0.8981 -0.4366 -0.6712
  169SAPE  C31219158   4.204   2.190   8.151  0.0162  0.1199  0.5038
  169SAPE  H12X19159   4.158   2.090   8.171 -1.9134  1.2091  1.9260
  169SAPE  H12Y19160   4.148   2.270   8.205 -0.0123 -0.1865  0.9370
  169SAPE  C31319161   4.347   2.189   8.198  0.3047  0.1056  0.4067
  169SAPE  H13X19162   4.399   2.285   8.177  0.6700 -0.5159 -1.7541
  169SAPE  H13Y19163   4.409   2.123   8.134  1.3604  1.0706  0.4005
  169SAPE  C31419164   4.372   2.138   8.335  0.0310 -0.4299 -0.1556
  169SAPE  H14X19165   4.448   2.058   8.323  1.2683  0.8375 -1.0139
  169SAPE  H14Y19166   4.279   2.098   8.380 -0.8058  1.1359 -0.4339
  169SAPE  C31519167   4.426   2.247   8.429  1.1927 -0.1495 -0.2206
  169SAPE  H15X19168   4.347   2.325   8.425  0.5218 -0.8532 -1.6497
  169SAPE  H15Y19169   4.522   2.290   8.391  0.6163 -0.1310 -1.7284
  169SAPE  C31619170   4.439   2.199   8.574  0.1583 -0.0508  1.1298
  169SAPE  H16X19171   4.517   2.120   8.578 -0.0810 -0.3136  0.6743
  169SAPE  H16Y19172   4.347   2.143   8.600  0.0896 -1.3180 -1.5542
  169SAPE  C31719173   4.465   2.309   8.671 -0.4724  0.9579 -0.1572
  169SAPE  H17X19174   4.381   2.379   8.691 -3.2603 -2.0206 -0.7931
  169SAPE  H17Y19175   4.550   2.355   8.615 -0.4568  1.2755  0.1223
  169SAPE  C31819176   4.519   2.259   8.810  0.6482 -0.5992  0.1310
  169SAPE  H18X19177   4.622   2.219   8.798  2.0053  2.7391 -0.3045
  169SAPE  H18Y19178   4.449   2.185   8.856 -1.0811  1.2758  0.6838
  169SAPE  H18Z19179   4.524   2.346   8.878 -1.2419 -0.4036  0.0796
  170SAPE     N19180   2.676   6.471   5.961 -0.0191 -0.0353  0.6827
  170SAPE   HN119181   2.772   6.511   5.964 -0.0413  0.1286  4.3998
  170SAPE   HN219182   2.680   6.385   6.020  0.9069  0.4899  1.4287
  170SAPE   HN319183   2.639   6.450   5.867  0.1509 -0.3626  0.6840
  170SAPE   C1219184   2.596   6.581   6.004  0.2001 -0.6323 -0.4417
  170SAPE  H12A19185   2.492   6.543   6.006  0.5991 -1.8094 -0.9910
  170SAPE  H12B19186   2.609   6.665   5.932  0.0471  0.5781  0.8895
  170SAPE   C1119187   2.637   6.644   6.142  0.3289  0.0473  0.0034
  170SAPE  H11A19188   2.630   6.573   6.227 -1.4748 -0.5629 -0.5998
  170SAPE  H11B19189   2.545   6.702   6.164 -0.3365  0.3882 -3.1583
  170SAPE     P19190   2.880   6.691   6.230  0.2087 -0.3147  0.3499
  170SAPE   O1319191   2.929   6.553   6.227  0.3004 -0.0416  0.3026
  170SAPE   O1419192   2.980   6.796   6.200  0.3937  0.0726 -0.2488
  170SAPE   O1219193   2.754   6.720   6.131  0.0156  0.0248 -0.4219
  170SAPE   O1119194   2.813   6.715   6.375 -0.9404 -0.2161 -0.0769
  170SAPE    C119195   2.883   6.782   6.481  0.2807  0.6073 -0.2698
  170SAPE    HA19196   2.942   6.867   6.442  0.8315  0.3369 -0.0436
  170SAPE    HB19197   2.811   6.813   6.560  0.6560  0.7936  0.0009
  170SAPE    C219198   2.973   6.675   6.547 -0.3147 -0.1725 -0.0143
  170SAPE    HS19199   3.045   6.642   6.469  1.5118  2.4615  0.3985
  170SAPE   O2119200   2.890   6.569   6.595  0.4265 -0.0239  0.1405
  170SAPE   C2119201   2.935   6.447   6.586 -0.0813 -0.2030 -0.9329
  170SAPE   O2219202   3.044   6.410   6.549 -0.0715  0.3575 -0.0855
  170SAPE   C2219203   2.823   6.353   6.651  0.3476  1.0784  0.7464
  170SAPE   H2R19204   2.771   6.417   6.725 -3.0612  0.1894 -0.7140
  170SAPE   H2S19205   2.760   6.337   6.561  1.8493  0.1729 -0.1905
  170SAPE    C319206   3.061   6.728   6.668 -0.5245  0.1228 -1.1550
  170SAPE    HX19207   3.138   6.804   6.646  2.6792 -2.5742 -0.0579
  170SAPE    HY19208   3.126   6.641   6.692 -0.6076  0.3540 -0.0327
  170SAPE   O3119209   2.980   6.767   6.780  0.0020  0.4282  0.1815
  170SAPE   C3119210   2.951   6.674   6.868 -0.3658  0.8680  0.0241
  170SAPE   O3219211   2.998   6.560   6.860 -0.0580 -0.1823 -0.2769
  170SAPE   C3219212   2.871   6.732   6.979 -0.0309  0.7459 -0.0052
  170SAPE   H2X19213   2.775   6.770   6.938  0.1303  0.6885 -0.4413
  170SAPE   H2Y19214   2.931   6.821   7.009  1.4271 -0.4154  0.6438
  170SAPE   C2319215   2.878   6.221   6.704 -0.8015 -0.0330  0.1195
  170SAPE   H3R19216   2.955   6.243   6.782  3.0054 -3.4897 -2.2388
  170SAPE   H3S19217   2.933   6.175   6.619  1.7548  2.6791  0.1269
  170SAPE   C2419218   2.768   6.131   6.765 -0.3800 -0.2728 -1.0937
  170SAPE   H4R19219   2.687   6.107   6.694  0.0946 -0.6551 -1.5092
  170SAPE   H4S19220   2.726   6.178   6.857 -1.5501 -0.1658 -1.6671
  170SAPE   C2519221   2.830   5.996   6.797 -0.4114  0.5444 -0.6464
  170SAPE   H5R19222   2.904   5.952   6.729  0.1289  0.8070 -0.2318
  170SAPE   C2619223   2.815   5.918   6.908  0.3148 -0.1080 -0.0665
  170SAPE   H6R19224   2.874   5.827   6.928  1.6001  0.8401  0.5520
  170SAPE   C2719225   2.720   5.949   7.022 -0.8362 -0.1545  0.1060
  170SAPE   H7R19226   2.674   6.050   7.009  0.9379  0.5012 -1.4853
  170SAPE   H7S19227   2.767   5.949   7.123 -0.5298  0.2956 -0.0339
  170SAPE   C2819228   2.613   5.840   7.026 -0.4601  0.3510 -0.4301
  170SAPE   H8R19229   2.581   5.811   6.925  1.4774 -1.1207 -0.6883
  170SAPE   C2919230   2.561   5.784   7.137 -0.1377  0.3258  0.2373
  170SAPE   H9R19231   2.484   5.707   7.120  1.7675 -1.5088 -0.6335
  170SAPE  C21019232   2.599   5.818   7.278  0.6485 -0.1848 -1.0817
  170SAPE  H10R19233   2.519   5.795   7.352  2.1249 -1.3444  0.2308
  170SAPE  H10S19234   2.620   5.926   7.296 -3.3310  0.4801  0.5584
  170SAPE  C21119235   2.712   5.734   7.333 -0.2672 -0.1638  0.9872
  170SAPE  H11R19236   2.757   5.658   7.267  1.3827  1.4520  0.1579
  170SAPE  C21219237   2.766   5.739   7.454  1.0351 -0.4606  0.4380
  170SAPE  H12R19238   2.835   5.660   7.490  2.6616  1.1644  1.0586
  170SAPE  C21319239   2.739   5.821   7.580 -0.5291 -0.0179 -0.0066
  170SAPE  H13R19240   2.719   5.930   7.570  0.0436  0.1395  0.5227
  170SAPE  H13S19241   2.828   5.805   7.645 -3.0189 -1.2911  3.3825
  170SAPE  C21419242   2.615   5.751   7.638 -0.0814 -0.2551 -0.7958
  170SAPE  H14R19243   2.518   5.778   7.594 -0.0523 -0.4370 -0.9699
  170SAPE  C21519244   2.614   5.658   7.738  0.3647 -0.2355  1.0334
  170SAPE  H15R19245   2.513   5.618   7.755 -0.2181  1.0556  0.7226
  170SAPE  C21619246   2.732   5.600   7.802 -0.7223 -0.0216  0.1109
  170SAPE  H16R19247   2.747   5.629   7.908 -0.4896  1.9731 -0.4245
  170SAPE  H16S19248   2.831   5.623   7.756 -0.2417  2.3736  2.1150
  170SAPE  C21719249   2.721   5.446   7.824  0.2103 -1.1666 -0.4234
  170SAPE  H17R19250   2.659   5.394   7.749 -0.1415 -0.4008 -0.6795
  170SAPE  H17S19251   2.664   5.440   7.920  2.0081 -0.5599  0.7515
  170SAPE  C21819252   2.859   5.385   7.839 -0.7590  0.2262 -0.1967
  170SAPE  H18R19253   2.897   5.360   7.738 -1.5356  1.7924 -0.9175
  170SAPE  H18S19254   2.840   5.293   7.899 -0.8236  0.7870  0.6641
  170SAPE  C21919255   2.962   5.454   7.931  0.7415  0.3384  0.3616
  170SAPE  H19R19256   2.919   5.519   8.011  0.9457 -0.4827  1.1585
  170SAPE  H19S19257   3.025   5.521   7.870  2.7679 -2.1764 -0.4983
  170SAPE  C22019258   3.047   5.344   8.009  0.6138  0.2970  0.4407
  170SAPE  H20R19259   3.085   5.258   7.951  0.8793 -0.8881  2.2751
  170SAPE  H20S19260   2.985   5.289   8.083  1.1207 -2.7750 -1.2642
  170SAPE  H20T19261   3.123   5.390   8.075  0.4137  0.4388  0.5772
  170SAPE   C3319262   2.844   6.646   7.098  0.4521 -0.7093 -0.0839
  170SAPE   H3X19263   2.923   6.576   7.132  1.3888  0.5100  0.3469
  170SAPE   H3Y19264   2.753   6.587   7.076  0.5397 -0.7624 -0.3117
  170SAPE   C3419265   2.809   6.733   7.216  0.3958 -0.4181 -0.4853
  170SAPE   H4X19266   2.727   6.802   7.183 -1.0322 -2.2652 -0.9784
  170SAPE   H4Y19267   2.893   6.804   7.231 -1.3825  2.2895 -2.3921
  170SAPE   C3519268   2.758   6.656   7.340  0.2455  0.1304 -0.1279
  170SAPE   H5X19269   2.831   6.575   7.360 -0.7818 -0.5248  1.0833
  170SAPE   H5Y19270   2.669   6.607   7.295  0.8075 -1.2412  0.2235
  170SAPE   C3619271   2.727   6.734   7.468 -0.1877 -0.4630 -0.4968
  170SAPE   H6X19272   2.658   6.819   7.451  0.5286  0.9030  2.7245
  170SAPE   H6Y19273   2.818   6.780   7.511 -1.1419 -0.0772  1.1988
  170SAPE   C3719274   2.677   6.657   7.595  0.1813 -0.6761  0.1902
  170SAPE   H7X19275   2.747   6.576   7.624  0.2403 -0.7255 -0.0902
  170SAPE   H7Y19276   2.583   6.611   7.558 -0.4077  1.1863 -0.8006
  170SAPE   C3819277   2.643   6.752   7.704  0.0610 -0.4607  0.0512
  170SAPE   H8X19278   2.563   6.824   7.678  1.0969 -0.3375 -3.1933
  170SAPE   H8Y19279   2.729   6.821   7.721 -0.6135  0.3928  0.0488
  170SAPE   C3919280   2.623   6.686   7.844  0.2227 -0.5474  0.3462
  170SAPE   H9X19281   2.724   6.649   7.871  1.2476  0.8279 -1.3541
  170SAPE   H9Y19282   2.552   6.602   7.829 -1.0845  0.5041  0.4469
  170SAPE  C31019283   2.562   6.768   7.958 -0.0108  0.0050  0.4789
  170SAPE  H10X19284   2.454   6.783   7.940  0.0566 -0.0783 -0.0029
  170SAPE  H10Y19285   2.603   6.872   7.950  1.2610 -0.5361 -0.4830
  170SAPE  C31119286   2.599   6.710   8.099  0.2329  0.8870 -0.2456
  170SAPE  H11X19287   2.532   6.764   8.170  0.5086  0.5353  0.2918
  170SAPE  H11Y19288   2.703   6.742   8.120  0.5233  0.2995 -0.7532
  170SAPE  C31219289   2.574   6.558   8.100  0.1297  0.4817  0.6378
  170SAPE  H12X19290   2.667   6.510   8.063 -0.7627 -0.7120 -0.1066
  170SAPE  H12Y19291   2.483   6.527   8.044 -0.6170 -0.4181  2.2956
  170SAPE  C31319292   2.556   6.504   8.243  0.2525  0.1775  0.0951
  170SAPE  H13X19293   2.460   6.535   8.290 -0.2568 -0.4094 -0.5412
  170SAPE  H13Y19294   2.628   6.548   8.315 -0.2035  1.6951 -0.3368
  170SAPE  C31419295   2.564   6.358   8.235 -0.1115  0.1412 -0.0965
  170SAPE  H14X19296   2.660   6.321   8.193  0.3315 -0.6902  1.5363
  170SAPE  H14Y19297   2.476   6.324   8.177 -1.4553  0.4583  1.6498
  170SAPE  C31519298   2.541   6.277   8.361  0.3438  0.6926  0.7390
  170SAPE  H15X19299   2.581   6.174   8.350  1.0529  0.3658  4.8947
  170SAPE  H15Y19300   2.437   6.251   8.389 -0.2377  0.6355 -1.2582
  170SAPE  C31619301   2.605   6.336   8.490  0.1623  0.3029 -0.1851
  170SAPE  H16X19302   2.544   6.421   8.529  0.4219  0.9449 -1.1302
  170SAPE  H16Y19303   2.705   6.375   8.460  0.3601 -0.3999 -0.4517
  170SAPE  C31719304   2.612   6.234   8.609 -0.6925  0.0470  0.0735
  170SAPE  H17X19305   2.658   6.284   8.697  3.3029 -2.3366 -0.4012
  170SAPE  H17Y19306   2.680   6.154   8.572 -0.0707  0.4796  0.2616
  170SAPE  C31819307   2.478   6.177   8.650  0.1906 -0.1013  0.2598
  170SAPE  H18X19308   2.404   6.257   8.672 -0.3890 -0.4979 -0.2262
  170SAPE  H18Y19309   2.486   6.107   8.735 -0.7271 -1.6235 -0.8676
  170SAPE  H18Z19310   2.428   6.120   8.569  0.5942 -0.3330  0.1698
  171SAPE     N19311   0.003   5.698   6.542  0.7884  0.2950  0.4587
  171SAPE   HN119312  -0.063   5.767   6.585  0.7655 -0.2878  1.3924
  171SAPE   HN219313  -0.047   5.612   6.513  1.4498 -0.6553  2.0384
  171SAPE   HN319314   0.062   5.676   6.625 -1.7517  1.7403  2.8729
  171SAPE   C1219315   0.086   5.762   6.434  0.1486  0.3980 -0.2119
  171SAPE  H12A19316   0.015   5.783   6.351  0.7168  0.5393 -0.6698
  171SAPE  H12B19317   0.155   5.682   6.401  1.5000  1.7988 -0.8979
  171SAPE   C1119318   0.144   5.896   6.474 -0.3478 -0.5382 -0.3331
  171SAPE  H11A19319   0.176   5.954   6.386  2.3607  0.4302  1.1841
  171SAPE  H11B19320   0.239   5.885   6.531  3.0667  3.2114 -4.6271
  171SAPE     P19321  -0.085   6.035   6.520 -0.1366  0.3425  0.3622
  171SAPE   O1319322  -0.052   6.130   6.408  0.6698  0.0109 -0.2965
  171SAPE   O1419323  -0.170   5.917   6.489  0.2408  0.0134  0.6863
  171SAPE   O1219324   0.054   5.972   6.560 -0.3313 -0.2150  0.0221
  171SAPE   O1119325  -0.139   6.097   6.656 -0.3848  0.4513  0.2100
  171SAPE    C119326  -0.042   6.134   6.750 -1.0447  0.0268 -0.3408
  171SAPE    HA19327  -0.003   6.044   6.802 -2.2210 -0.1989  0.1753
  171SAPE    HB19328   0.047   6.187   6.711 -0.8689 -0.0082  0.0124
  171SAPE    C219329  -0.103   6.216   6.867  0.1541  0.1191  0.1097
  171SAPE    HS19330  -0.017   6.263   6.919 -0.2173 -0.4949  1.3312
  171SAPE   O2119331  -0.174   6.120   6.962 -0.3410 -0.7811  0.4218
  171SAPE   C2119332  -0.201   6.163   7.080  0.4515 -0.6520 -0.4110
  171SAPE   O2219333  -0.163   6.270   7.129  0.2359  0.1759  0.9545
  171SAPE   C2219334  -0.305   6.077   7.136 -0.2158  0.4252  0.3805
  171SAPE   H2R19335  -0.378   6.062   7.054 -1.5748  2.6189  1.1140
  171SAPE   H2S19336  -0.256   5.978   7.148  0.6196  0.5229 -1.7536
  171SAPE    C319337  -0.197   6.324   6.813 -0.0370 -0.2893 -0.0367
  171SAPE    HX19338  -0.294   6.286   6.776 -0.9766  3.7739 -2.4728
  171SAPE    HY19339  -0.144   6.360   6.721 -1.2914  0.2533 -0.5709
  171SAPE   O3119340  -0.224   6.435   6.903  0.2038 -0.1128  1.0869
  171SAPE   C3119341  -0.119   6.517   6.929 -0.2871 -0.5674 -0.2333
  171SAPE   O3219342  -0.006   6.505   6.880 -0.7096 -0.6141 -0.3933
  171SAPE   C3219343  -0.155   6.637   7.015 -0.1475 -0.4948 -0.4759
  171SAPE   H2X19344  -0.203   6.596   7.107  0.5839 -0.0159  0.1355
  171SAPE   H2Y19345  -0.219   6.711   6.963 -2.0031 -0.4512  1.7072
  171SAPE   C2319346  -0.386   6.138   7.252  0.6300  0.0024 -0.5573
  171SAPE   H3R19347  -0.489   6.096   7.255  0.2023  1.0308 -0.2207
  171SAPE   H3S19348  -0.409   6.245   7.232  0.3722  0.2821  1.0920
  171SAPE   C2419349  -0.313   6.120   7.386 -0.4598 -0.4419  0.1117
  171SAPE   H4R19350  -0.217   6.168   7.359 -0.4370 -0.5484 -0.0006
  171SAPE   H4S19351  -0.288   6.013   7.406  1.0548  0.5437  4.6929
  171SAPE   C2519352  -0.385   6.175   7.503  0.7491  0.3444 -0.2362
  171SAPE   H5R19353  -0.457   6.251   7.469  2.2340  1.5321 -0.8564
  171SAPE   C2619354  -0.355   6.150   7.631  0.6832 -0.1928  0.3178
  171SAPE   H6R19355  -0.425   6.197   7.700  2.5843  0.8505  1.6279
  171SAPE   C2719356  -0.244   6.065   7.688  0.3147  0.0480 -0.0265
  171SAPE   H7R19357  -0.163   6.050   7.613  1.0350 -1.5081  1.0101
  171SAPE   H7S19358  -0.292   5.968   7.714 -4.0695  1.8281 -0.5210
  171SAPE   C2819359  -0.178   6.124   7.809  0.1823  0.7117 -0.1117
  171SAPE   H8R19360  -0.096   6.197   7.794 -0.0708  0.8311 -0.9515
  171SAPE   C2919361  -0.225   6.110   7.936  0.5316 -0.1192  0.2150
  171SAPE   H9R19362  -0.163   6.160   8.012  1.7624  0.1936 -0.9508
  171SAPE  C21019363  -0.344   6.030   7.983  0.2217  0.2468  0.0969
  171SAPE  H10R19364  -0.302   5.930   8.006  0.4970  0.4719  0.6049
  171SAPE  H10S19365  -0.417   6.022   7.900  1.2076 -0.8639 -0.6785
  171SAPE  C21119366  -0.419   6.090   8.101 -0.1156  0.2755 -0.6117
  171SAPE  H11R19367  -0.471   6.182   8.070 -0.9230 -0.0590 -0.2774
  171SAPE  C21219368  -0.434   6.047   8.231 -0.1646 -0.3342  0.9523
  171SAPE  H12R19369  -0.502   6.088   8.307 -2.5204  0.5679 -1.5044
  171SAPE  C21319370  -0.372   5.928   8.291  0.6850  0.8868  0.2218
  171SAPE  H13R19371  -0.337   5.849   8.221 -0.6174  0.3817  0.1233
  171SAPE  H13S19372  -0.440   5.877   8.361  2.4680  0.1354  1.4803
  171SAPE  C21419373  -0.250   5.971   8.362 -1.0284 -0.0077  0.4495
  171SAPE  H14R19374  -0.208   6.069   8.336 -1.1308  0.0436  0.4773
  171SAPE  C21519375  -0.181   5.894   8.444  0.2958 -0.2342 -0.6404
  171SAPE  H15R19376  -0.099   5.938   8.503 -1.3005  1.1568  0.6384
  171SAPE  C21619377  -0.209   5.744   8.478 -0.8608 -0.3974  0.2484
  171SAPE  H16R19378  -0.112   5.690   8.470 -1.1333 -0.8138 -0.4356
  171SAPE  H16S19379  -0.262   5.681   8.403  1.8862 -0.6982 -1.6091
  171SAPE  C21719380  -0.255   5.727   8.627  0.2601 -0.1410  0.1312
  171SAPE  H17R19381  -0.262   5.619   8.648 -1.4386  0.1130  0.9772
  171SAPE  H17S19382  -0.353   5.775   8.644 -0.2862 -1.6581  1.4086
  171SAPE  C21819383  -0.158   5.792   8.725  0.0442  0.2341  0.1076
  171SAPE  H18R19384  -0.203   5.772   8.824  1.9528 -4.0956  0.3149
  171SAPE  H18S19385  -0.137   5.900   8.709 -1.2855  0.6150  0.7776
  171SAPE  C21919386  -0.012   5.734   8.722 -0.3882  0.4689  0.2170
  171SAPE  H19R19387   0.027   5.739   8.618  0.0740  2.7694  0.4420
  171SAPE  H19S19388  -0.017   5.624   8.741  0.0299  0.1294 -1.5156
  171SAPE  C22019389   0.080   5.808   8.816  0.2517  0.2857  0.3332
  171SAPE  H20R19390   0.187   5.779   8.813 -0.5927 -3.4526  1.1559
  171SAPE  H20S19391   0.043   5.779   8.917  0.8283 -1.1585  0.1538
  171SAPE  H20T19392   0.075   5.919   8.804  1.1910  0.1194 -2.0345
  171SAPE   C3319393  -0.036   6.715   7.050 -0.1885 -0.7983 -0.6007
  171SAPE   H3X19394  -0.062   6.814   7.093  0.6022 -1.7352  2.2843
  171SAPE   H3Y19395   0.015   6.746   6.957 -2.5761  1.5709 -1.2564
  171SAPE   C3419396   0.052   6.650   7.161  1.0983 -0.0487 -1.0248
  171SAPE   H4X19397   0.114   6.578   7.105  0.4940 -0.3004 -1.3816
  171SAPE   H4Y19398  -0.002   6.609   7.249  3.3026 -0.6921  0.0823
  171SAPE   C3519399   0.155   6.750   7.223  0.0355  0.1133  0.0605
  171SAPE   H5X19400   0.099   6.842   7.251 -0.5003 -0.8670  2.3365
  171SAPE   H5Y19401   0.242   6.772   7.157  0.2746  1.1446  0.6968
  171SAPE   C3619402   0.227   6.711   7.351  0.1806  0.4224 -0.5988
  171SAPE   H6X19403   0.303   6.631   7.337 -0.1756 -0.2427  1.0761
  171SAPE   H6Y19404   0.142   6.661   7.402  1.2868 -1.0715 -0.1542
  171SAPE   C3719405   0.277   6.828   7.435  0.3299  0.3334 -0.6756
  171SAPE   H7X19406   0.193   6.901   7.429  1.1319  1.4320  0.7566
  171SAPE   H7Y19407   0.367   6.871   7.387 -1.0091  1.0725 -2.6559
  171SAPE   C3819408   0.308   6.783   7.580 -0.3166  0.3998 -0.7195
  171SAPE   H8X19409   0.358   6.684   7.568 -0.9299 -0.2242  1.4128
  171SAPE   H8Y19410   0.216   6.758   7.637  0.5306  0.3500  0.6771
  171SAPE   C3919411   0.373   6.894   7.654 -0.4054 -0.7555  0.6394
  171SAPE   H9X19412   0.300   6.977   7.669  0.8202  0.2706  1.1396
  171SAPE   H9Y19413   0.457   6.933   7.593 -0.3849 -1.2324  0.3570
  171SAPE  C31019414   0.420   6.875   7.803 -0.4046  0.2732 -0.0587
  171SAPE  H10X19415   0.460   6.968   7.848 -0.5697  1.2283 -1.7970
  171SAPE  H10Y19416   0.501   6.801   7.813  0.6623  1.3933 -0.1785
  171SAPE  C31119417   0.305   6.850   7.901  0.9055 -0.1333  0.1063
  171SAPE  H11X19418   0.216   6.792   7.867  0.4018  0.3703  0.5374
  171SAPE  H11Y19419   0.261   6.951   7.919  0.1196 -0.7839  2.2995
  171SAPE  C31219420   0.356   6.794   8.029  0.5674 -0.2863  0.6077
  171SAPE  H12X19421   0.301   6.847   8.110  0.4415 -1.4194  1.2868
  171SAPE  H12Y19422   0.464   6.817   8.035  0.5453 -0.2710  0.9602
  171SAPE  C31319423   0.340   6.636   8.027  1.0510 -0.2113  0.0313
  171SAPE  H13X19424   0.434   6.597   8.071  2.4703  0.3992 -2.2829
  171SAPE  H13Y19425   0.337   6.601   7.922  1.2453 -1.7691  0.5288
  171SAPE  C31419426   0.218   6.577   8.105 -0.1081  0.0715 -0.0394
  171SAPE  H14X19427   0.125   6.616   8.060 -0.3723 -1.2916 -0.7486
  171SAPE  H14Y19428   0.217   6.608   8.212  1.0660  2.1506 -0.5824
  171SAPE  C31519429   0.200   6.419   8.112 -0.7077 -1.2306  0.1396
  171SAPE  H15X19430   0.293   6.381   8.160  0.1410  1.4640  0.7830
  171SAPE  H15Y19431   0.194   6.388   8.006 -1.5823  1.1787 -0.5786
  171SAPE  C31619432   0.081   6.372   8.198 -0.5215 -0.4584  0.2061
  171SAPE  H16X19433  -0.012   6.402   8.146 -0.2730  0.7422  0.4262
  171SAPE  H16Y19434   0.064   6.435   8.288  2.2966  2.8059 -1.3133
  171SAPE  C31719435   0.092   6.231   8.238 -0.1754  0.5713 -0.5597
  171SAPE  H17X19436  -0.009   6.205   8.276 -0.8600  2.5511 -0.9392
  171SAPE  H17Y19437   0.163   6.223   8.323  0.1053 -1.5096 -0.9284
  171SAPE  C31819438   0.130   6.127   8.126 -0.0688  0.3277  0.6162
  171SAPE  H18X19439   0.056   6.130   8.044 -0.9293 -0.7608  1.3154
  171SAPE  H18Y19440   0.120   6.027   8.174  2.5280 -1.4942 -2.2616
  171SAPE  H18Z19441   0.237   6.141   8.098 -0.9456  1.2604 -2.5684
  172SAPE     N19442   6.291   5.962   6.662  0.0621  0.2756 -0.1416
  172SAPE   HN119443   6.386   5.924   6.676 -1.6399 -4.3212  0.5546
  172SAPE   HN219444   6.279   6.065   6.665 -0.5686  0.1782  1.8210
  172SAPE   HN319445   6.245   5.931   6.749 -0.7768  1.6172 -0.0795
  172SAPE   C1219446   6.226   5.884   6.546  0.5822  0.7246  0.3219
  172SAPE  H12A19447   6.241   5.939   6.450  1.0422 -0.7920 -0.5068
  172SAPE  H12B19448   6.121   5.885   6.580  0.5473 -0.0489  0.2367
  172SAPE   C1119449   6.274   5.738   6.527  0.1197 -0.2894 -0.0874
  172SAPE  H11A19450   6.262   5.698   6.630  0.8967  0.1432  0.1819
  172SAPE  H11B19451   6.384   5.736   6.514  0.2513 -0.4744  0.9643
  172SAPE     P19452   6.056   5.628   6.413 -0.0493 -0.0815  0.3937
  172SAPE   O1319453   5.980   5.732   6.481  0.0721  0.0489  0.6378
  172SAPE   O1419454   6.021   5.619   6.264 -0.3983  0.4972  0.3455
  172SAPE   O1219455   6.214   5.663   6.415 -0.6141 -0.1465 -0.1457
  172SAPE   O1119456   6.050   5.490   6.479  0.3093 -0.2903  0.7874
  172SAPE    C119457   6.120   5.381   6.415 -0.0067  0.2925 -0.8443
  172SAPE    HA19458   6.050   5.306   6.374  0.7818 -1.9546  1.6565
  172SAPE    HB19459   6.189   5.406   6.331 -2.9892  2.6029 -2.8380
  172SAPE    C219460   6.219   5.309   6.520 -0.3399  1.0249  0.3752
  172SAPE    HS19461   6.274   5.231   6.464  0.5514  1.9302 -0.0454
  172SAPE   O2119462   6.146   5.268   6.636  0.5015 -0.0997  0.5333
  172SAPE   C2119463   6.061   5.170   6.624  0.2961 -0.0066  0.4992
  172SAPE   O2219464   6.054   5.088   6.534  0.8942  0.5699 -0.5999
  172SAPE   C2219465   5.977   5.168   6.750 -0.7172 -0.1889  0.0094
  172SAPE   H2R19466   6.005   5.253   6.816 -1.2503  0.5495 -0.6979
  172SAPE   H2S19467   5.871   5.190   6.725 -0.1948  2.5034 -0.0822
  172SAPE    C319468   6.324   5.410   6.555 -0.0617  0.0893 -0.5288
  172SAPE    HX19469   6.277   5.499   6.601 -0.6697 -1.2943  1.7356
  172SAPE    HY19470   6.381   5.434   6.463 -0.6258  2.5518 -0.2838
  172SAPE   O3119471   6.421   5.368   6.656  0.5165 -0.8532  0.3869
  172SAPE   C3119472   6.511   5.451   6.692  0.3304  0.0672  0.6754
  172SAPE   O3219473   6.535   5.560   6.639  0.5034  0.6044  0.3940
  172SAPE   C3219474   6.579   5.404   6.817 -0.6590 -0.4480 -0.4926
  172SAPE   H2X19475   6.645   5.485   6.856  0.9162 -1.1686 -1.5547
  172SAPE   H2Y19476   6.656   5.328   6.790  1.0527  1.3776 -1.0499
  172SAPE   C2319477   5.992   5.042   6.843  0.7303 -0.3701  0.2626
  172SAPE   H3R19478   6.007   4.953   6.778  2.7025 -0.6263  0.9882
  172SAPE   H3S19479   5.900   5.021   6.901  0.4954 -1.9089 -0.6074
  172SAPE   C2419480   6.128   5.043   6.912 -0.3899  0.5073 -1.1595
  172SAPE   H4R19481   6.122   5.116   6.996 -0.7012 -3.6558  2.8309
  172SAPE   H4S19482   6.203   5.072   6.835  2.3376 -2.0995  0.3286
  172SAPE   C2519483   6.165   4.906   6.970 -0.8001 -0.2325 -0.2578
  172SAPE   H5R19484   6.213   4.835   6.901  1.3956  0.3855  0.5536
  172SAPE   C2619485   6.154   4.866   7.097  0.3878  0.3122  0.5872
  172SAPE   H6R19486   6.183   4.764   7.126 -0.1813 -1.8369 -5.1185
  172SAPE   C2719487   6.095   4.943   7.221 -0.3457 -0.7235 -0.3160
  172SAPE   H7R19488   6.025   5.025   7.192 -0.3339  0.2336  2.1569
  172SAPE   H7S19489   6.173   4.990   7.284  0.0955  0.4987 -1.7001
  172SAPE   C2819490   6.005   4.858   7.301  1.3302  0.4769 -0.0467
  172SAPE   H8R19491   5.915   4.821   7.249 -1.5430  0.9090  4.0941
  172SAPE   C2919492   6.012   4.826   7.431 -0.2278 -0.7047  0.1981
  172SAPE   H9R19493   5.927   4.771   7.474  0.2877 -0.5720  1.4497
  172SAPE  C21019494   6.120   4.872   7.521 -0.0666  0.5900  0.6246
  172SAPE  H10R19495   6.170   4.967   7.493 -1.1909  0.8302 -0.6932
  172SAPE  H10S19496   6.202   4.799   7.502  0.9475  2.0374 -0.8033
  172SAPE  C21119497   6.093   4.879   7.668 -0.1107  1.3216 -0.2170
  172SAPE  H11R19498   6.012   4.816   7.707  0.4772  0.1784 -0.7943
  172SAPE  C21219499   6.160   4.946   7.770 -0.3209 -0.5368 -0.3917
  172SAPE  H12R19500   6.119   4.943   7.873  1.2829  1.0256  0.3490
  172SAPE  C21319501   6.282   5.030   7.751  0.6881  1.1823  1.0294
  172SAPE  H13R19502   6.267   5.135   7.782  0.8470  1.2414  0.9091
  172SAPE  H13S19503   6.311   5.037   7.644  2.2931  2.7843  1.5185
  172SAPE  C21419504   6.405   4.964   7.825  0.0501  0.6035 -0.4385
  172SAPE  H14R19505   6.428   4.869   7.775 -1.9599 -0.8424  1.2151
  172SAPE  C21519506   6.480   5.009   7.927 -0.6106 -0.1541 -0.6382
  172SAPE  H15R19507   6.558   4.944   7.970 -1.3256 -0.9824 -0.5646
  172SAPE  C21619508   6.469   5.140   8.003  0.2150  0.4963  0.2835
  172SAPE  H16R19509   6.393   5.201   7.949  0.1056 -0.7880 -1.1026
  172SAPE  H16S19510   6.567   5.193   8.005  0.5038  0.0524 -0.9475
  172SAPE  C21719511   6.432   5.136   8.153  0.0550 -0.4981  0.8843
  172SAPE  H17R19512   6.524   5.110   8.211  1.2761  1.9512  0.1990
  172SAPE  H17S19513   6.347   5.068   8.174  1.5480 -2.5223  0.6544
  172SAPE  C21819514   6.394   5.280   8.187  0.2760  0.1271  1.0302
  172SAPE  H18R19515   6.322   5.326   8.116 -0.0123 -3.5546 -1.3528
  172SAPE  H18S19516   6.486   5.343   8.191  0.1451  0.5207 -1.0185
  172SAPE  C21919517   6.349   5.291   8.330  0.5587  0.2480 -0.5156
  172SAPE  H19R19518   6.256   5.230   8.331  1.1147 -0.6632 -1.8286
  172SAPE  H19S19519   6.335   5.401   8.331  0.3828  0.2297  0.6077
  172SAPE  C22019520   6.448   5.253   8.444 -0.0487 -0.4780 -0.1558
  172SAPE  H20R19521   6.532   5.323   8.427  1.2674 -2.1206 -0.7169
  172SAPE  H20S19522   6.486   5.150   8.427  2.1374  0.4155 -1.0145
  172SAPE  H20T19523   6.398   5.257   8.543 -1.6972  0.2112 -0.9736
  172SAPE   C3319524   6.489   5.342   6.924 -0.0235  0.1820  0.3548
  172SAPE   H3X19525   6.415   5.270   6.881 -0.1321  1.4580 -1.7650
  172SAPE   H3Y19526   6.433   5.424   6.974 -0.4222 -0.0639  0.3137
  172SAPE   C3419527   6.573   5.269   7.029 -0.7726  0.5514  0.1784
  172SAPE   H4X19528   6.625   5.354   7.077 -0.0510  0.5791 -0.6261
  172SAPE   H4Y19529   6.640   5.189   6.989 -0.1304  0.6899  0.9545
  172SAPE   C3519530   6.489   5.185   7.130 -1.0144  0.4148 -0.2450
  172SAPE   H5X19531   6.429   5.106   7.081  0.7525 -1.6354  0.7640
  172SAPE   H5Y19532   6.411   5.258   7.163 -1.9872  0.5044 -2.5077
  172SAPE   C3619533   6.573   5.137   7.252  0.3556  0.5838 -0.4157
  172SAPE   H6X19534   6.618   5.225   7.303  2.4499 -1.5805  1.8047
  172SAPE   H6Y19535   6.653   5.062   7.230  0.5425  0.9708 -1.0709
  172SAPE   C3719536   6.483   5.066   7.360  0.3936  0.0656 -0.2605
  172SAPE   H7X19537   6.412   4.997   7.310  1.9927 -0.7065 -1.5319
  172SAPE   H7Y19538   6.415   5.136   7.413 -0.2221 -1.4427  1.0446
  172SAPE   C3819539   6.575   4.991   7.469 -0.1163 -0.1402  0.5707
  172SAPE   H8X19540   6.623   4.901   7.426  2.7530  1.8211 -0.6944
  172SAPE   H8Y19541   6.515   4.952   7.554  2.3222 -1.1276  1.9131
  172SAPE   C3919542   6.673   5.090   7.530  0.4837 -0.2411  0.5799
  172SAPE   H9X19543   6.616   5.179   7.563  2.2000  1.9774 -1.9807
  172SAPE   H9Y19544   6.747   5.132   7.458  1.5957  1.4728  2.6010
  172SAPE  C31019545   6.738   5.025   7.653 -0.2654  0.7028  0.0991
  172SAPE  H10X19546   6.794   4.936   7.617  0.0469 -0.9165  4.0560
  172SAPE  H10Y19547   6.658   4.986   7.720  0.1431  0.4390  0.4427
  172SAPE  C31119548   6.828   5.113   7.738 -0.4422 -0.0027 -0.2145
  172SAPE  H11X19549   6.776   5.210   7.753 -0.5995  0.1702 -1.7191
  172SAPE  H11Y19550   6.923   5.140   7.685  0.9935 -1.0424  1.7046
  172SAPE  C31219551   6.880   5.072   7.877  0.1051  0.2681  0.1920
  172SAPE  H12X19552   6.988   5.047   7.875  0.0674  0.0460 -2.5954
  172SAPE  H12Y19553   6.817   4.987   7.912 -0.0739  0.4292  0.2645
  172SAPE  C31319554   6.860   5.187   7.972 -0.1731  0.8907 -0.1889
  172SAPE  H13X19555   6.762   5.238   7.965 -0.2501  0.6477 -1.0302
  172SAPE  H13Y19556   6.939   5.263   7.952  1.1953 -1.0054 -2.6254
  172SAPE  C31419557   6.892   5.128   8.109 -0.3535  0.1520  0.4781
  172SAPE  H14X19558   6.988   5.072   8.112 -0.2432  0.3970  2.5221
  172SAPE  H14Y19559   6.811   5.055   8.130 -2.2319  2.5901  2.3472
  172SAPE  C31519560   6.907   5.232   8.225  0.3812  0.8971 -0.3295
  172SAPE  H15X19561   6.824   5.306   8.226 -0.2276  0.2395 -0.7573
  172SAPE  H15Y19562   6.995   5.295   8.201  0.4005  0.3488 -1.7897
  172SAPE  C31619563   6.920   5.165   8.362 -0.1537  0.5154 -0.5449
  172SAPE  H16X19564   6.999   5.087   8.365  0.0681  0.7681  0.7476
  172SAPE  H16Y19565   6.830   5.102   8.375  0.3742 -0.4175 -1.2445
  172SAPE  C31719566   6.923   5.261   8.482 -0.1546  1.0229  0.0821
  172SAPE  H17X19567   6.822   5.306   8.491 -0.3482  0.8196 -0.9487
  172SAPE  H17Y19568   6.987   5.350   8.462 -0.4336  1.4707  1.1116
  172SAPE  C31819569   6.945   5.195   8.621 -0.3529 -0.8154  0.2352
  172SAPE  H18X19570   6.864   5.120   8.630 -1.5724  0.6118  2.0131
  172SAPE  H18Y19571   6.924   5.271   8.700  1.5371 -1.1473  1.1288
  172SAPE  H18Z19572   7.047   5.151   8.631  0.0547  0.2034  0.8073
  173SOPE     N19573   0.923   3.497  10.900 -0.3921  0.6186 -0.0193
  173SOPE   HN119574   0.975   3.585  10.883  0.9997 -0.2014 -0.1297
  173SOPE   HN219575   0.914   3.447  10.809 -2.0094  0.1246  0.3848
  173SOPE   HN319576   0.827   3.531  10.923 -1.9193  0.0667 -4.5760
  173SOPE   C1219577   1.002   3.406  10.993  0.5593  0.6420 -0.1358
  173SOPE  H12A19578   0.933   3.331  11.038  1.7530 -1.4799 -1.6158
  173SOPE  H12B19579   1.043   3.470  11.074 -0.3000  1.1379 -0.0814
  173SOPE   C1119580   1.113   3.333  10.917  0.0246 -0.3946  0.1763
  173SOPE  H11A19581   1.171   3.407  10.859 -1.2694  0.6252  0.1422
  173SOPE  H11B19582   1.064   3.274  10.836 -0.7298 -1.5542  1.4443
  173SOPE     P19583   1.220   3.104  10.999  0.2654  0.0052 -0.0375
  173SOPE   O1319584   1.095   3.035  10.961 -0.7461 -0.5538 -0.2515
  173SOPE   O1419585   1.277   3.063  11.131 -0.4809  0.0649 -0.3694
  173SOPE   O1219586   1.210   3.261  11.003 -0.8827 -0.0610  0.1766
  173SOPE   O1119587   1.327   3.075  10.880  0.0541  0.1423  0.0970
  173SOPE    C119588   1.451   3.147  10.873 -0.1338 -0.0673 -0.2639
  173SOPE    HA19589   1.538   3.096  10.921  0.9562 -1.0564 -3.0484
  173SOPE    HB19590   1.437   3.249  10.914 -0.1139 -0.2818  0.2919
  173SOPE    C219591   1.496   3.162  10.730 -0.2054  0.0821  0.6208
  173SOPE    HS19592   1.408   3.198  10.673 -0.0744 -1.8969 -0.9189
  173SOPE   O2119593   1.541   3.041  10.671  0.5780  0.3206  0.0689
  173SOPE   C2119594   1.522   3.031  10.542  0.3624 -0.2902  0.6033
  173SOPE   O2219595   1.481   3.115  10.464  0.1516 -0.0819 -0.8369
  173SOPE   C2219596   1.565   2.893  10.495  0.2852 -0.2971  0.0273
  173SOPE   H2R19597   1.467   2.845  10.477  1.0492 -1.6242 -0.8019
  173SOPE   H2S19598   1.623   2.843  10.575  0.7632  0.7176  0.3345
  173SOPE    C319599   1.612   3.273  10.725  0.3593 -0.1421  0.4562
  173SOPE    HX19600   1.688   3.245  10.801  1.6066  0.6528 -0.4404
  173SOPE    HY19601   1.564   3.370  10.750  2.2352  0.2845  2.7386
  173SOPE   O3119602   1.665   3.282  10.590  0.2357 -0.1226  0.0527
  173SOPE   C3119603   1.614   3.371  10.500 -0.5086  0.0366  0.0419
  173SOPE   O3219604   1.506   3.426  10.523 -0.0493  0.4698 -0.3479
  173SOPE   C3219605   1.686   3.380  10.364  0.8622 -0.3785  0.0868
  173SOPE   H2X19606   1.718   3.276  10.344 -1.3120 -1.0031 -0.3522
  173SOPE   H2Y19607   1.766   3.457  10.378  2.4900 -1.7309 -1.3673
  173SOPE   C2319608   1.653   2.896  10.369 -0.1985  0.4232 -0.5960
  173SOPE   H3R19609   1.600   2.942  10.283  1.9316 -0.7018 -2.6467
  173SOPE   H3S19610   1.669   2.791  10.334 -2.4368 -0.2774  0.3218
  173SOPE   C2419611   1.802   2.957  10.380 -0.3110  0.1208  0.3047
  173SOPE   H4R19612   1.792   3.058  10.424  1.5173 -0.1594  1.4453
  173SOPE   H4S19613   1.854   2.890  10.452  1.0352 -0.6741 -1.3267
  173SOPE   C2519614   1.874   2.962  10.255  0.1172  0.1844 -0.8254
  173SOPE   H5R19615   1.969   3.017  10.271  1.4284 -2.1894  0.2114
  173SOPE   H5S19616   1.895   2.859  10.218 -0.6211  0.1289 -1.1070
  173SOPE   C2619617   1.803   3.047  10.150 -0.0508  0.2705 -0.0524
  173SOPE   H6R19618   1.715   2.985  10.122  1.2762 -1.3105 -0.8651
  173SOPE   H6S19619   1.775   3.145  10.195 -3.4266 -0.3187 -0.6115
  173SOPE   C2719620   1.896   3.069  10.034 -0.0543  0.3094  0.4512
  173SOPE   H7R19621   1.842   3.134   9.961 -0.3374 -1.9473 -1.4332
  173SOPE   H7S19622   1.993   3.120  10.055  0.4921  0.4889 -2.1944
  173SOPE   C2819623   1.942   2.935   9.965  0.8295  0.5005  0.0732
  173SOPE   H8R19624   1.984   2.860  10.035  0.1298 -0.6058 -0.6543
  173SOPE   H8S19625   1.848   2.886   9.932  0.0340  1.2275  1.1853
  173SOPE   C2919626   2.029   2.960   9.850 -0.1373  0.1205  0.3090
  173SOPE   H9119627   2.121   3.018   9.864  3.0246 -4.1057 -0.9137
  173SOPE  C21019628   1.998   2.920   9.724  0.0039 -0.0769 -0.1157
  173SOPE  H10119629   2.078   2.946   9.653  1.7627  2.9837  2.7026
  173SOPE  C21119630   1.887   2.838   9.663 -0.6967  0.0806  0.1298
  173SOPE  H11R19631   1.809   2.788   9.724  1.6463 -2.6220  1.1204
  173SOPE  H11S19632   1.929   2.746   9.619 -1.7232 -0.6803  0.6980
  173SOPE  C21219633   1.828   2.912   9.546 -0.3924  0.3691 -0.0375
  173SOPE  H12R19634   1.897   2.976   9.486 -0.1495  0.5898  0.4714
  173SOPE  H12S19635   1.762   2.988   9.594  0.2271 -0.4539  2.2463
  173SOPE  C21319636   1.745   2.826   9.448 -0.5356 -0.0518  0.0274
  173SOPE  H13R19637   1.672   2.761   9.501 -1.0999  1.3005  0.9500
  173SOPE  H13S19638   1.822   2.761   9.401  0.9862  1.1141  0.8197
  173SOPE  C21419639   1.678   2.906   9.332 -0.2676  0.3269 -0.1716
  173SOPE  H14R19640   1.736   2.991   9.291 -1.5574  0.9438 -0.8053
  173SOPE  H14S19641   1.585   2.950   9.374 -0.2596  0.1354  0.0465
  173SOPE  C21519642   1.627   2.814   9.217 -0.0244 -0.7770 -0.0530
  173SOPE  H15R19643   1.561   2.732   9.255  0.3358 -1.0704 -0.0579
  173SOPE  H15S19644   1.720   2.765   9.183 -0.5639 -0.1662 -2.6047
  173SOPE  C21619645   1.573   2.890   9.102 -0.1025 -0.0510 -0.2192
  173SOPE  H16R19646   1.651   2.960   9.066  1.3023 -2.0720 -1.2694
  173SOPE  H16S19647   1.491   2.948   9.150 -1.0936 -1.8371  0.3527
  173SOPE  C21719648   1.525   2.809   8.986 -0.4204 -0.2214  0.4520
  173SOPE  H17R19649   1.468   2.724   9.028 -2.1454 -0.9573 -2.9884
  173SOPE  H17S19650   1.603   2.745   8.937 -0.8215 -1.0256  0.8368
  173SOPE  C21819651   1.444   2.872   8.875 -0.6264 -0.1673  0.4588
  173SOPE  H18R19652   1.504   2.954   8.829 -2.2151  0.3915 -0.6986
  173SOPE  H18S19653   1.351   2.919   8.913 -1.0268 -0.8687  0.3603
  173SOPE  H18T19654   1.424   2.798   8.794 -1.5643 -0.3452  0.8503
  173SOPE   C3319655   1.604   3.447  10.246 -0.1005  0.3169  0.0255
  173SOPE   H3X19656   1.549   3.538  10.277  0.1796 -0.0739  1.7663
  173SOPE   H3Y19657   1.538   3.369  10.202 -0.0490  0.6488 -0.6493
  173SOPE   C3419658   1.703   3.490  10.138  0.3378 -0.5470  0.0143
  173SOPE   H4X19659   1.755   3.399  10.103 -0.2960 -1.7217  1.9442
  173SOPE   H4Y19660   1.777   3.567  10.169  1.5877 -2.1805  1.2291
  173SOPE   C3519661   1.619   3.532  10.016  0.2812  0.6372 -0.8892
  173SOPE   H5X19662   1.538   3.606  10.036 -1.5518 -0.5688 -3.3600
  173SOPE   H5Y19663   1.554   3.450   9.980  0.5381 -1.8324  3.5374
  173SOPE   C3619664   1.698   3.581   9.894 -0.2600  0.2011 -0.9267
  173SOPE   H6X19665   1.754   3.493   9.855  1.2688  0.2074  1.0786
  173SOPE   H6Y19666   1.771   3.662   9.912  0.9319 -0.9019 -0.6305
  173SOPE   C3719667   1.607   3.630   9.780 -0.2123 -0.1877 -0.9887
  173SOPE   H7X19668   1.586   3.736   9.807 -0.2016  0.0257 -1.7961
  173SOPE   H7Y19669   1.508   3.580   9.778  1.0614 -3.0075  0.8105
  173SOPE   C3819670   1.673   3.630   9.642 -0.1207  0.7335 -0.4363
  173SOPE   H8X19671   1.729   3.535   9.630 -1.3979  0.0388 -1.1081
  173SOPE   H8Y19672   1.756   3.703   9.635  1.5479 -1.1815 -1.4343
  173SOPE   C3919673   1.591   3.671   9.520 -0.8163  0.1611  0.0791
  173SOPE   H9X19674   1.542   3.768   9.545  1.7451  1.2404  1.2011
  173SOPE   H9Y19675   1.525   3.584   9.502  1.0840 -1.8529  2.2084
  173SOPE  C31019676   1.675   3.690   9.387 -1.1101  1.0572 -0.2331
  173SOPE  H10X19677   1.703   3.588   9.354 -1.8778  0.4987  0.7665
  173SOPE  H10Y19678   1.761   3.756   9.412 -0.6975  0.0916  1.0225
  173SOPE  C31119679   1.592   3.756   9.281  0.7981  0.6783 -0.1821
  173SOPE  H11X19680   1.535   3.841   9.326 -1.3614 -0.4392 -0.6687
  173SOPE  H11Y19681   1.526   3.680   9.235  3.3343 -2.0771  0.4437
  173SOPE  C31219682   1.678   3.817   9.166  0.0123 -1.2749  0.3990
  173SOPE  H12X19683   1.771   3.848   9.219 -0.2705 -2.5871  1.7313
  173SOPE  H12Y19684   1.627   3.899   9.110  4.1598  0.2757 -1.4740
  173SOPE  C31319685   1.737   3.717   9.063  0.1493  0.2956 -0.1285
  173SOPE  H13X19686   1.652   3.675   9.006 -1.2269  1.4017  1.0383
  173SOPE  H13Y19687   1.795   3.640   9.118 -1.7060 -1.7217 -0.8685
  173SOPE  C31419688   1.843   3.795   8.973 -0.2446 -0.2151  0.0884
  173SOPE  H14X19689   1.912   3.838   9.049 -0.6213 -0.7792  0.7519
  173SOPE  H14Y19690   1.801   3.884   8.922 -2.8968 -0.9278  0.8905
  173SOPE  C31519691   1.914   3.705   8.873 -0.2019  0.2939 -0.1395
  173SOPE  H15X19692   1.839   3.662   8.804 -1.0609  2.4326 -0.6134
  173SOPE  H15Y19693   1.944   3.620   8.939 -1.4275  1.3919  1.9455
  173SOPE  C31619694   2.023   3.766   8.790  0.1025 -0.3057 -0.2646
  173SOPE  H16X19695   2.104   3.790   8.863 -0.4805 -1.9709  0.9928
  173SOPE  H16Y19696   1.979   3.852   8.734  0.0445 -1.8979 -2.8036
  173SOPE  C31719697   2.082   3.674   8.682  0.2316 -0.0127  0.5978
  173SOPE  H17X19698   2.158   3.730   8.624  0.0942 -2.8150 -2.6166
  173SOPE  H17Y19699   1.992   3.646   8.622 -0.7882  0.0113  2.0664
  173SOPE  C31819700   2.157   3.555   8.737  0.0982 -0.3462  0.1413
  173SOPE  H18X19701   2.224   3.521   8.655 -1.1493 -1.2877 -0.5370
  173SOPE  H18Y19702   2.087   3.474   8.766 -0.6087  0.1437 -0.1519
  173SOPE  H18Z19703   2.221   3.576   8.825  0.2293 -1.5829  0.3578
  174SOPE     N19704   0.600   5.443  11.101 -0.3987  0.1391  0.3792
  174SOPE   HN119705   0.535   5.390  11.163 -3.4478  2.1720 -0.7954
  174SOPE   HN219706   0.681   5.478  11.156 -0.2605 -0.2732  0.4368
  174SOPE   HN319707   0.544   5.528  11.077  0.3250  0.0759 -1.7915
  174SOPE   C1219708   0.648   5.358  10.984 -0.7072 -0.7087 -0.5617
  174SOPE  H12A19709   0.555   5.334  10.927 -0.5266 -1.5497 -0.5252
  174SOPE  H12B19710   0.693   5.269  11.034 -0.4880 -0.4057 -0.2218
  174SOPE   C1119711   0.756   5.421  10.890  0.7894 -0.3592 -0.3986
  174SOPE  H11A19712   0.721   5.513  10.839 -0.2466 -0.6399 -0.2208
  174SOPE  H11B19713   0.774   5.350  10.806  1.3884 -0.3324 -0.2978
  174SOPE     P19714   0.996   5.352  10.962 -0.4375 -0.1530  0.2509
  174SOPE   O1319715   0.963   5.233  11.046  0.4742  0.2814  0.2337
  174SOPE   O1419716   1.117   5.421  11.000  0.0858 -0.9256  0.0728
  174SOPE   O1219717   0.874   5.450  10.964 -0.2149 -0.3978  0.0336
  174SOPE   O1119718   1.002   5.307  10.808  0.9152 -0.5769 -0.1578
  174SOPE    C119719   1.036   5.412  10.714  0.0719  0.5117  0.6728
  174SOPE    HA19720   1.143   5.439  10.710 -0.3064  1.9559 -1.4303
  174SOPE    HB19721   0.981   5.507  10.726 -0.3125  0.1386  1.9797
  174SOPE    C219722   1.011   5.362  10.569 -0.5369  0.0848  0.4858
  174SOPE    HS19723   0.902   5.345  10.567 -0.2807 -1.7742 -1.1063
  174SOPE   O2119724   1.079   5.237  10.549 -0.0103  0.1880 -0.1544
  174SOPE   C2119725   0.999   5.131  10.508 -0.8068 -0.1680 -0.0312
  174SOPE   O2219726   0.880   5.134  10.507  0.5769 -0.8813  0.0407
  174SOPE   C2219727   1.076   5.003  10.474  0.2909  0.3752  0.5186
  174SOPE   H2R19728   1.092   4.953  10.572  2.5704 -1.0659 -0.4811
  174SOPE   H2S19729   1.171   5.043  10.432  2.0762 -2.3449  1.6912
  174SOPE    C319730   1.045   5.461  10.456 -0.1832 -0.4388  0.5372
  174SOPE    HX19731   1.155   5.474  10.451 -0.3773  0.9121 -1.3054
  174SOPE    HY19732   1.006   5.562  10.481 -2.9041 -0.0510 -4.0842
  174SOPE   O3119733   0.989   5.426  10.330 -0.2077  0.6098 -0.4083
  174SOPE   C3119734   0.863   5.457  10.318  0.3799  0.0513 -0.5438
  174SOPE   O3219735   0.804   5.528  10.398 -0.5229 -0.1344 -0.1769
  174SOPE   C3219736   0.795   5.375  10.204 -0.3934 -0.4453  0.2209
  174SOPE   H2X19737   0.687   5.361  10.224 -0.8166 -0.1513 -1.6271
  174SOPE   H2Y19738   0.835   5.272  10.215  2.0516  0.2867 -0.9504
  174SOPE   C2319739   0.995   4.890  10.391  0.1370  0.1590 -0.0731
  174SOPE   H3R19740   0.890   4.878  10.427 -2.0575  2.2195 -4.8772
  174SOPE   H3S19741   1.055   4.797  10.397  0.9926  0.7332  0.5662
  174SOPE   C2419742   0.973   4.923  10.244  1.0505  0.2798 -0.1965
  174SOPE   H4R19743   0.888   4.868  10.199 -0.4315  1.4085  1.0891
  174SOPE   H4S19744   0.943   5.030  10.240 -1.1767 -0.2269  1.0250
  174SOPE   C2519745   1.102   4.904  10.166  0.5900  0.2057 -0.1513
  174SOPE   H5R19746   1.179   4.975  10.203 -0.3067  0.1643  2.0072
  174SOPE   H5S19747   1.140   4.803  10.190 -0.9394 -0.7479 -1.5568
  174SOPE   C2619748   1.083   4.913  10.019  0.1235  0.6537  0.1348
  174SOPE   H6R19749   0.999   4.851   9.981  1.2177  0.0162 -1.3682
  174SOPE   H6S19750   1.052   5.016   9.991 -0.7442  0.7040  1.2427
  174SOPE   C2719751   1.220   4.887   9.944 -0.0474  0.2264 -0.3496
  174SOPE   H7R19752   1.299   4.952   9.988  0.4114  1.1793 -2.4635
  174SOPE   H7S19753   1.253   4.783   9.965  2.6678  0.6727 -1.9375
  174SOPE   C2819754   1.209   4.912   9.795  0.3754 -0.5754  0.4580
  174SOPE   H8R19755   1.311   4.886   9.758  0.8942  1.2050  0.5307
  174SOPE   H8S19756   1.134   4.843   9.752  3.3537 -3.0774 -1.1970
  174SOPE   C2919757   1.186   5.053   9.748 -0.3077 -0.3228  0.9542
  174SOPE   H9119758   1.206   5.133   9.821  0.0244  0.4490  0.0404
  174SOPE  C21019759   1.150   5.088   9.622 -0.0358 -0.1825  0.3348
  174SOPE  H10119760   1.129   5.192   9.592 -0.6700 -1.4369 -4.2351
  174SOPE  C21119761   1.124   5.006   9.502  0.2036 -0.2574  0.3051
  174SOPE  H11R19762   1.015   5.001   9.479 -0.2676 -2.7291  2.5931
  174SOPE  H11S19763   1.158   4.901   9.520  4.2458  0.8334 -0.1205
  174SOPE  C21219764   1.202   5.068   9.381 -0.2113 -0.0076 -0.7575
  174SOPE  H12R19765   1.312   5.065   9.399 -0.2432 -0.0385 -0.5630
  174SOPE  H12S19766   1.166   5.173   9.376  0.9211  0.3468 -1.9646
  174SOPE  C21319767   1.167   4.995   9.246  0.6382 -0.3371 -0.4205
  174SOPE  H13R19768   1.057   4.986   9.234  0.3958  0.9686  0.6522
  174SOPE  H13S19769   1.216   4.896   9.258  1.4432  0.2559  1.6612
  174SOPE  C21419770   1.222   5.060   9.122  0.1700  0.4679  0.0994
  174SOPE  H14R19771   1.325   5.101   9.137 -0.4285  1.7856  0.7456
  174SOPE  H14S19772   1.164   5.154   9.113  1.6552  1.4095 -0.1033
  174SOPE  C21519773   1.198   4.977   8.995 -0.6564  0.2793  0.5312
  174SOPE  H15R19774   1.214   5.035   8.902  0.6230  0.4685  0.8439
  174SOPE  H15S19775   1.098   4.929   8.992 -0.0384 -1.1620  1.4749
  174SOPE  C21619776   1.298   4.865   8.983  0.1309 -0.8003 -0.4650
  174SOPE  H16R19777   1.273   4.791   9.062  1.2952 -0.3869  0.3193
  174SOPE  H16S19778   1.398   4.901   9.016 -1.2661  2.7487  0.2927
  174SOPE  C21719779   1.285   4.810   8.838  0.2287  0.6433  1.0225
  174SOPE  H17R19780   1.317   4.897   8.777 -0.4979 -0.0438 -0.3865
  174SOPE  H17S19781   1.178   4.784   8.819  0.6927 -2.0815  1.7341
  174SOPE  C21819782   1.378   4.689   8.810  0.5552  0.4511 -0.3550
  174SOPE  H18R19783   1.377   4.645   8.708  1.1029  0.7391 -0.4875
  174SOPE  H18S19784   1.359   4.605   8.880  1.3169 -0.3870 -1.1362
  174SOPE  H18T19785   1.484   4.713   8.832 -0.3951  4.4811  0.7411
  174SOPE   C3319786   0.809   5.432  10.062  0.1777 -0.0277 -0.7060
  174SOPE   H3X19787   0.916   5.462  10.055  0.1252  1.1623  2.1437
  174SOPE   H3Y19788   0.758   5.529  10.046  1.5463  0.8416 -0.0479
  174SOPE   C3419789   0.773   5.332   9.960 -0.2295  0.3272  0.1489
  174SOPE   H4X19790   0.674   5.284   9.976  1.3105 -3.0472  0.4389
  174SOPE   H4Y19791   0.849   5.252   9.975 -1.2162 -0.3496  1.8305
  174SOPE   C3519792   0.767   5.380   9.818 -0.4874  0.2630  0.8501
  174SOPE   H5X19793   0.833   5.466   9.795 -1.1285  0.6372  0.3971
  174SOPE   H5Y19794   0.661   5.407   9.800 -0.2133  0.3596 -0.7423
  174SOPE   C3619795   0.800   5.263   9.724 -0.5000 -0.4743 -0.2080
  174SOPE   H6X19796   0.727   5.181   9.736  0.0370 -1.1617 -1.4483
  174SOPE   H6Y19797   0.902   5.226   9.745 -1.0734 -2.3982 -0.6159
  174SOPE   C3719798   0.812   5.324   9.583  0.0310  0.0848 -0.7705
  174SOPE   H7X19799   0.852   5.246   9.514 -0.1395 -1.3334  0.6535
  174SOPE   H7Y19800   0.889   5.403   9.578  0.2699  0.0310  1.2849
  174SOPE   C3819801   0.675   5.353   9.516  0.6023  0.4200 -0.7490
  174SOPE   H8X19802   0.613   5.406   9.590  0.2938  0.9627 -1.3920
  174SOPE   H8Y19803   0.617   5.264   9.483  0.8902  0.5328 -1.5747
  174SOPE   C3919804   0.669   5.447   9.396  0.2301 -0.9107 -0.2865
  174SOPE   H9X19805   0.734   5.534   9.421  2.4555 -3.0688  2.0543
  174SOPE   H9Y19806   0.562   5.471   9.380 -0.7792 -0.9596  4.7227
  174SOPE  C31019807   0.720   5.393   9.256  0.9282 -0.1807  0.1545
  174SOPE  H10X19808   0.647   5.326   9.207 -0.9482  1.2100  0.9186
  174SOPE  H10Y19809   0.814   5.336   9.268  1.0091 -0.7089 -2.4542
  174SOPE  C31119810   0.752   5.513   9.157 -0.3963  0.6892 -0.6405
  174SOPE  H11X19811   0.818   5.582   9.212 -1.1575 -0.7514  2.2845
  174SOPE  H11Y19812   0.654   5.555   9.123  0.1320  1.1708 -1.6308
  174SOPE  C31219813   0.810   5.450   9.034 -0.1873  0.7314 -0.1572
  174SOPE  H12X19814   0.731   5.412   8.966 -0.7829  1.6476  0.0027
  174SOPE  H12Y19815   0.870   5.361   9.063 -1.1452 -0.4465 -1.6447
  174SOPE  C31319816   0.892   5.542   8.938 -0.7020 -1.0904  0.2950
  174SOPE  H13X19817   0.962   5.613   8.989  0.2202 -1.8144  0.0579
  174SOPE  H13Y19818   0.828   5.622   8.894  3.4339  2.3529 -0.1397
  174SOPE  C31419819   0.960   5.468   8.828  0.2600  0.4650 -0.0259
  174SOPE  H14X19820   0.881   5.396   8.798 -0.9139  1.5588  0.3607
  174SOPE  H14Y19821   1.045   5.414   8.874 -2.3956 -0.5688  4.1414
  174SOPE  C31519822   0.986   5.541   8.693  0.0391  0.9371  0.3509
  174SOPE  H15X19823   1.047   5.630   8.719  1.7582  0.0644 -0.5349
  174SOPE  H15Y19824   0.892   5.583   8.651 -0.4202  1.0580  1.4723
  174SOPE  C31619825   1.072   5.466   8.587 -0.6402 -0.1044  0.6432
  174SOPE  H16X19826   1.040   5.361   8.569  0.5877 -0.4396  0.3132
  174SOPE  H16Y19827   1.179   5.458   8.618  0.2887  1.0966 -1.9520
  174SOPE  C31719828   1.079   5.540   8.453 -0.4968  0.1261 -0.4046
  174SOPE  H17X19829   1.135   5.633   8.480  0.5291 -0.7043  0.4023
  174SOPE  H17Y19830   0.975   5.568   8.426 -0.5503 -0.0200 -0.3499
  174SOPE  C31819831   1.151   5.467   8.343  0.0848 -0.7589 -0.0567
  174SOPE  H18X19832   1.075   5.405   8.291 -1.2593 -0.7605  1.8156
  174SOPE  H18Y19833   1.232   5.406   8.389  0.1028  0.2264  1.2537
  174SOPE  H18Z19834   1.196   5.534   8.266 -2.8979 -0.5898 -1.8191
  175SOPE     N19835   2.995   5.416  11.035  0.2816  0.1155 -0.4024
  175SOPE   HN119836   2.976   5.371  11.126  2.3105  1.0864  0.5723
  175SOPE   HN219837   3.000   5.517  11.059 -0.8386 -0.4374  2.6162
  175SOPE   HN319838   2.919   5.406  10.965 -1.9740  2.5706  1.4684
  175SOPE   C1219839   3.134   5.378  10.991  0.0862  0.4723  0.4179
  175SOPE  H12A19840   3.158   5.276  11.026  1.7621  0.4725 -0.6050
  175SOPE  H12B19841   3.201   5.445  11.050  1.7300  0.5538 -1.4276
  175SOPE   C1119842   3.157   5.384  10.842 -0.1102 -0.1898 -0.1423
  175SOPE  H11A19843   3.082   5.324  10.785  1.1108 -0.3488 -1.6411
  175SOPE  H11B19844   3.259   5.344  10.825 -0.1341 -0.3102 -0.0051
  175SOPE     P19845   3.050   5.579  10.697  0.3573  0.0515  0.1117
  175SOPE   O1319846   3.060   5.721  10.693 -0.2626  0.2241 -0.0340
  175SOPE   O1419847   2.915   5.521  10.728 -0.9558 -0.4437 -0.6227
  175SOPE   O1219848   3.156   5.522  10.802  0.1983  0.1774  0.3254
  175SOPE   O1119849   3.085   5.508  10.560 -0.1444  0.3579 -0.0236
  175SOPE    C119850   3.211   5.507  10.507 -0.4322 -0.1237  0.5122
  175SOPE    HA19851   3.210   5.447  10.413 -2.7137  0.3721  0.1564
  175SOPE    HB19852   3.272   5.445  10.577 -1.8636 -1.4294  0.6566
  175SOPE    C219853   3.279   5.641  10.482 -0.0821  0.5741  0.1310
  175SOPE    HS19854   3.281   5.691  10.581  1.0564  0.9563 -0.0726
  175SOPE   O2119855   3.204   5.723  10.390  0.1666  0.3751  0.1931
  175SOPE   C2119856   3.230   5.850  10.400  0.5606  0.3584  0.1538
  175SOPE   O2219857   3.308   5.897  10.481 -0.2700  0.0539  0.6003
  175SOPE   C2219858   3.132   5.925  10.303  0.1437  0.8533 -0.6639
  175SOPE   H2R19859   3.067   5.991  10.364 -0.5314 -1.0723  0.8341
  175SOPE   H2S19860   3.056   5.853  10.265  1.3417 -0.8270 -0.0198
  175SOPE    C319861   3.421   5.627  10.426 -0.0284  0.5620  0.0693
  175SOPE    HX19862   3.482   5.586  10.510  0.0900 -1.6788 -1.0467
  175SOPE    HY19863   3.467   5.727  10.410  0.2465  0.5791  0.9058
  175SOPE   O3119864   3.427   5.532  10.318  0.8282  0.0537 -0.2937
  175SOPE   C3119865   3.469   5.584  10.204 -0.0227 -0.1872  0.5894
  175SOPE   O3219866   3.523   5.695  10.190  0.1097 -0.4487 -0.1320
  175SOPE   C3219867   3.432   5.493  10.083 -0.3452 -0.3892 -0.1458
  175SOPE   H2X19868   3.331   5.528  10.053 -0.0392  0.0057 -0.7295
  175SOPE   H2Y19869   3.425   5.391  10.126 -0.2575 -0.4359 -0.2413
  175SOPE   C2319870   3.204   5.993  10.188 -0.8496  0.1836 -0.5522
  175SOPE   H3R19871   3.276   5.920  10.146 -0.6639  0.3113 -0.4583
  175SOPE   H3S19872   3.271   6.076  10.219  1.7390 -1.8518 -0.3209
  175SOPE   C2419873   3.123   6.033  10.066 -0.1104 -0.3027  0.4301
  175SOPE   H4R19874   3.051   5.955  10.032  0.0050 -0.1031 -0.2840
  175SOPE   H4S19875   3.058   6.119  10.095 -2.0545 -1.4486 -0.3196
  175SOPE   C2519876   3.216   6.073   9.950 -0.1581  0.0630 -0.8403
  175SOPE   H5R19877   3.273   6.159   9.992 -0.5970  0.0730 -0.2550
  175SOPE   H5S19878   3.281   5.989   9.918 -0.0165 -0.0729 -0.2079
  175SOPE   C2619879   3.144   6.130   9.827  0.1322  0.0983 -0.4239
  175SOPE   H6R19880   3.061   6.197   9.859 -0.1656 -0.6391  0.3900
  175SOPE   H6S19881   3.224   6.187   9.776  0.7654 -1.3204 -1.0795
  175SOPE   C2719882   3.095   6.016   9.729 -0.4240 -1.0411  0.2148
  175SOPE   H7R19883   3.182   5.960   9.687  0.9998  0.5267  0.9778
  175SOPE   H7S19884   3.041   5.945   9.795 -0.7564  1.7105  3.1497
  175SOPE   C2819885   3.006   6.054   9.608 -0.2757  0.6102 -0.9450
  175SOPE   H8R19886   2.962   5.965   9.557 -0.9279  0.7977 -0.7206
  175SOPE   H8S19887   2.916   6.105   9.649  0.4112  1.1493 -0.0749
  175SOPE   C2919888   3.091   6.134   9.514  0.1511 -0.7423  0.2400
  175SOPE   H9119889   3.135   6.226   9.553 -1.0766 -0.6743  1.5670
  175SOPE  C21019890   3.106   6.099   9.386  0.1623  0.1743  0.1031
  175SOPE  H10119891   3.168   6.165   9.323  0.1239  0.6304  0.5346
  175SOPE  C21119892   3.055   5.977   9.307 -0.2887  0.4131 -0.5687
  175SOPE  H11R19893   2.953   5.990   9.265  0.2761  0.0619 -2.1152
  175SOPE  H11S19894   3.053   5.891   9.379  0.5851 -0.8382 -1.9826
  175SOPE  C21219895   3.154   5.957   9.193 -0.3687 -0.7115  0.1865
  175SOPE  H12R19896   3.136   5.854   9.156 -0.4254 -0.5928 -0.1221
  175SOPE  H12S19897   3.258   5.962   9.231 -0.8330  1.2194  1.3785
  175SOPE  C21319898   3.130   6.054   9.083 -0.6310 -0.2268  0.0447
  175SOPE  H13R19899   3.195   6.142   9.103 -0.4503 -0.1355 -0.8900
  175SOPE  H13S19900   3.028   6.096   9.093  0.3380  2.1300  0.6560
  175SOPE  C21419901   3.143   5.996   8.943 -0.4544 -0.3782  0.0523
  175SOPE  H14R19902   3.080   5.904   8.935  0.2484 -1.1863  2.8199
  175SOPE  H14S19903   3.246   5.971   8.911  0.3572  1.7035  0.9056
  175SOPE  C21519904   3.090   6.097   8.842  0.1698  0.4780  0.4618
  175SOPE  H15R19905   3.140   6.066   8.748 -0.0576 -0.9696  0.7917
  175SOPE  H15S19906   3.119   6.202   8.863  2.9482  0.3309 -2.0439
  175SOPE  C21619907   2.940   6.095   8.821  0.2581  0.5989 -0.1933
  175SOPE  H16R19908   2.912   6.152   8.729 -1.1511  1.7112  0.8639
  175SOPE  H16S19909   2.897   6.160   8.900 -0.9180  0.3157 -0.5792
  175SOPE  C21719910   2.866   5.956   8.807 -0.6105 -0.4823  0.0298
  175SOPE  H17R19911   2.760   5.978   8.781 -1.2635 -1.4449  1.7415
  175SOPE  H17S19912   2.862   5.906   8.906 -2.6691  0.7039  0.6242
  175SOPE  C21819913   2.914   5.865   8.703  0.1280  0.0815  0.4142
  175SOPE  H18R19914   2.842   5.783   8.686 -0.9669  1.0173  0.4518
  175SOPE  H18S19915   3.018   5.828   8.716  0.0127 -0.1636  0.6281
  175SOPE  H18T19916   2.920   5.912   8.603  0.0933 -3.2125 -1.2662
  175SOPE   C3319917   3.537   5.511   9.965 -0.3238 -0.0769 -0.2842
  175SOPE   H3X19918   3.515   5.421   9.903 -0.9478 -1.4215  1.7922
  175SOPE   H3Y19919   3.641   5.508  10.004  0.4245 -0.3837 -2.1805
  175SOPE   C3419920   3.520   5.629   9.872  0.2562 -0.0316  0.1852
  175SOPE   H4X19921   3.619   5.653   9.830 -0.8965 -0.1936 -2.8569
  175SOPE   H4Y19922   3.480   5.712   9.935  0.3552  0.0303  0.1650
  175SOPE   C3519923   3.425   5.608   9.754  0.5878 -0.5620 -0.5463
  175SOPE   H5X19924   3.331   5.568   9.797  0.8676 -0.7295 -0.0912
  175SOPE   H5Y19925   3.463   5.527   9.689  1.9131 -0.7102  0.3713
  175SOPE   C3619926   3.413   5.739   9.675  0.0767 -0.4030 -0.7452
  175SOPE   H6X19927   3.509   5.760   9.624  0.2546 -0.9523 -0.6324
  175SOPE   H6Y19928   3.400   5.830   9.739 -0.1086 -1.4571  0.7635
  175SOPE   C3719929   3.309   5.726   9.554 -0.4355  0.2749  0.0718
  175SOPE   H7X19930   3.301   5.827   9.510  1.5658  0.3203 -0.2668
  175SOPE   H7Y19931   3.209   5.701   9.595  0.2208  0.2895  1.7746
  175SOPE   C3819932   3.361   5.623   9.442  0.2447  0.4781 -0.6574
  175SOPE   H8X19933   3.374   5.521   9.483  1.8537  0.8520 -0.1464
  175SOPE   H8Y19934   3.461   5.667   9.422  0.2858  0.8541  0.3251
  175SOPE   C3919935   3.279   5.627   9.318  0.2231 -0.0090 -0.6266
  175SOPE   H9X19936   3.255   5.734   9.302 -1.6685 -0.0309  1.5552
  175SOPE   H9Y19937   3.185   5.573   9.344  0.4582  0.4555  1.3681
  175SOPE  C31019938   3.349   5.554   9.199 -0.0385  0.1766 -0.6957
  175SOPE  H10X19939   3.459   5.567   9.206  0.5592 -3.5253 -1.2557
  175SOPE  H10Y19940   3.323   5.593   9.098 -0.2780  1.0898 -0.2898
  175SOPE  C31119941   3.328   5.401   9.197  0.5941  0.4211 -0.6520
  175SOPE  H11X19942   3.220   5.372   9.197  0.7975 -0.4249  0.3167
  175SOPE  H11Y19943   3.360   5.368   9.299 -1.2759  0.2572 -0.0683
  175SOPE  C31219944   3.405   5.342   9.085 -0.1511 -0.0174  0.3120
  175SOPE  H12X19945   3.458   5.253   9.125  0.3914  0.1114 -0.1064
  175SOPE  H12Y19946   3.493   5.402   9.054 -0.0906 -1.2274 -2.1387
  175SOPE  C31319947   3.322   5.315   8.962  0.0703 -0.1420  0.9283
  175SOPE  H13X19948   3.315   5.414   8.913 -0.5775  0.2540  1.7902
  175SOPE  H13Y19949   3.222   5.292   9.003 -0.2649 -2.0830 -0.8278
  175SOPE  C31419950   3.372   5.196   8.873  0.0119 -0.1026 -0.5663
  175SOPE  H14X19951   3.311   5.163   8.786 -2.5838 -0.7824  1.3784
  175SOPE  H14Y19952   3.385   5.112   8.945 -0.0947  2.3861  2.5385
  175SOPE  C31519953   3.512   5.228   8.810 -0.1651 -0.2778  0.3298
  175SOPE  H15X19954   3.546   5.136   8.758  2.2375  1.2136 -0.8910
  175SOPE  H15Y19955   3.590   5.256   8.884  1.9373 -0.9149 -1.5255
  175SOPE  C31619956   3.512   5.341   8.716  0.7711 -0.2808  0.4999
  175SOPE  H16X19957   3.474   5.429   8.773  1.6275  0.0896  0.5147
  175SOPE  H16Y19958   3.431   5.324   8.641  0.9567 -0.4385  0.3355
  175SOPE  C31719959   3.643   5.374   8.650  0.5011  0.0818  0.2273
  175SOPE  H17X19960   3.634   5.469   8.594 -2.9220  1.0488  2.1167
  175SOPE  H17Y19961   3.659   5.293   8.576 -0.4825  0.9376 -0.9727
  175SOPE  C31819962   3.765   5.377   8.739  0.3109  0.1099 -0.7585
  175SOPE  H18X19963   3.759   5.467   8.804 -0.7922 -0.9456  0.6717
  175SOPE  H18Y19964   3.861   5.385   8.683 -0.4108 -0.0831 -2.0584
  175SOPE  H18Z19965   3.765   5.280   8.792 -1.2393  0.1728 -0.6188
  176SOPE     N19966   2.176   6.369  11.102  0.1581  0.1139  0.4119
  176SOPE   HN119967   2.219   6.287  11.150 -2.4101 -1.4223  0.3107
  176SOPE   HN219968   2.074   6.347  11.111  0.1024  1.2692  3.5498
  176SOPE   HN319969   2.206   6.367  11.002 -0.2569  1.3683  0.2414
  176SOPE   C1219970   2.205   6.503  11.159  0.5960 -0.2294  0.0588
  176SOPE  H12A19971   2.313   6.518  11.179  1.0138 -1.4067 -1.1864
  176SOPE  H12B19972   2.146   6.511  11.252 -0.9831 -2.0702 -0.7054
  176SOPE   C1119973   2.163   6.619  11.068 -0.2791  0.2746  0.2972
  176SOPE  H11A19974   2.238   6.640  10.989 -1.5045  2.3168 -0.4131
  176SOPE  H11B19975   2.150   6.709  11.132  1.5169  0.0651  1.0015
  176SOPE     P19976   1.899   6.586  11.074 -0.3728  0.2304 -0.0988
  176SOPE   O1319977   1.854   6.725  11.102 -0.5355 -0.3229  0.2614
  176SOPE   O1419978   1.911   6.492  11.185  0.2066 -0.6048 -0.4642
  176SOPE   O1219979   2.042   6.590  10.998  0.3160 -0.6178 -0.5104
  176SOPE   O1119980   1.805   6.518  10.964  0.0725 -0.1526 -0.3119
  176SOPE    C119981   1.789   6.584  10.833  0.1193  0.8057 -0.2609
  176SOPE    HA19982   1.837   6.684  10.828 -0.4511  1.0482 -1.1423
  176SOPE    HB19983   1.681   6.594  10.810  0.1020 -1.7170 -1.6116
  176SOPE    C219984   1.852   6.496  10.730  0.2310 -0.2539 -0.1640
  176SOPE    HS19985   1.962   6.486  10.745  0.5865  0.9488 -1.7106
  176SOPE   O2119986   1.816   6.541  10.599 -0.0854  0.3078 -0.8138
  176SOPE   C2119987   1.870   6.653  10.560  0.2858  1.0112 -0.1528
  176SOPE   O2219988   1.928   6.734  10.629  0.6259 -0.0133  0.2077
  176SOPE   C2219989   1.868   6.650  10.411  0.0228  0.2132  0.0029
  176SOPE   H2R19990   1.772   6.646  10.355 -0.6359  0.3601  1.0833
  176SOPE   H2S19991   1.931   6.561  10.386 -2.7251 -1.9098  0.1350
  176SOPE    C319992   1.790   6.351  10.729  0.2682 -0.2252  0.2040
  176SOPE    HX19993   1.681   6.345  10.748  0.1789 -0.2622 -0.3127
  176SOPE    HY19994   1.840   6.289  10.807 -0.5076 -1.2954 -0.1233
  176SOPE   O3119995   1.825   6.282  10.604 -0.1469  0.5618  0.3599
  176SOPE   C3119996   1.941   6.225  10.597  0.2338  0.2056  0.8853
  176SOPE   O3219997   2.035   6.245  10.660 -0.2977 -0.3901 -0.0251
  176SOPE   C3219998   1.938   6.117  10.488 -0.2383 -0.3741 -0.9946
  176SOPE   H2X19999   1.914   6.176  10.398 -0.2304 -2.1715 -2.2271
  176SOPE   H2Y20000   1.851   6.050  10.503 -0.5025  0.3485  1.0347
  176SOPE   C2320001   1.935   6.767  10.336 -0.7372 -0.2448  0.7021
  176SOPE   H3R20002   2.031   6.799  10.380 -0.8346  2.5050 -0.8086
  176SOPE   H3S20003   1.864   6.852  10.349 -1.3229 -0.5323 -0.4062
  176SOPE   C2420004   1.950   6.751  10.179 -0.1625 -0.9127  0.0405
  176SOPE   H4R20005   2.029   6.679  10.149  0.9586  0.5500 -0.6491
  176SOPE   H4S20006   1.855   6.700  10.154 -0.3590 -0.6827  0.3093
  176SOPE   C2520007   1.966   6.880  10.107 -0.8064  0.5705  0.4690
  176SOPE   H5R20008   1.873   6.927  10.069 -1.1234  0.5979  1.2548
  176SOPE   H5S20009   2.026   6.949  10.171 -0.4706  1.4443 -0.7506
  176SOPE   C2620010   2.060   6.871   9.983 -0.3062  0.8394  0.5392
  176SOPE   H6R20011   2.070   6.974   9.942  0.6479  0.7314  0.4822
  176SOPE   H6S20012   2.154   6.829  10.025 -0.5756  0.4172  0.7266
  176SOPE   C2720013   2.024   6.778   9.866 -0.5295 -0.5040 -0.2047
  176SOPE   H7R20014   2.011   6.672   9.895  0.2055 -0.5316  0.0466
  176SOPE   H7S20015   1.931   6.820   9.821 -0.3664  0.9950  0.7918
  176SOPE   C2820016   2.133   6.768   9.761 -0.8384 -0.1393 -0.4507
  176SOPE   H8R20017   2.145   6.872   9.724 -0.1344 -0.0909 -0.1173
  176SOPE   H8S20018   2.237   6.746   9.795 -1.7263 -1.3850  1.6662
  176SOPE   C2920019   2.088   6.673   9.655 -0.5374 -0.6190  0.4825
  176SOPE   H9120020   2.108   6.565   9.663  1.3304 -0.2105  1.8662
  176SOPE  C21020021   2.039   6.701   9.529  0.4321  0.6500 -0.4031
  176SOPE  H10120022   1.997   6.611   9.481 -0.8439  0.4848  0.9785
  176SOPE  C21120023   2.017   6.830   9.453 -0.0047 -0.0808 -0.6984
  176SOPE  H11R20024   2.117   6.864   9.421 -0.1013  0.7811 -0.1189
  176SOPE  H11S20025   1.976   6.911   9.517 -0.2467 -1.6499  1.2365
  176SOPE  C21220026   1.919   6.790   9.338  0.1825  0.2971 -0.0804
  176SOPE  H12R20027   1.828   6.745   9.384 -1.1758  2.7817 -0.1515
  176SOPE  H12S20028   1.973   6.722   9.270  0.7656  1.3059 -0.6517
  176SOPE  C21320029   1.876   6.920   9.262  0.4888 -0.0330  0.4352
  176SOPE  H13R20030   1.963   6.945   9.197 -1.0764  1.5387 -1.1605
  176SOPE  H13S20031   1.848   7.007   9.325 -1.4155  0.1666 -0.6039
  176SOPE  C21420032   1.745   6.887   9.187  0.3900 -0.6149  0.1090
  176SOPE  H14R20033   1.660   6.908   9.256 -1.4710  2.2325 -2.7399
  176SOPE  H14S20034   1.743   6.778   9.169 -2.3823 -0.5856 -0.2001
  176SOPE  C21520035   1.717   6.971   9.064 -0.4307  0.5448  0.1016
  176SOPE  H15R20036   1.807   6.969   8.999  0.1104 -0.1345  0.8452
  176SOPE  H15S20037   1.707   7.079   9.090 -0.9219  0.4052  0.5014
  176SOPE  C21620038   1.594   6.921   8.980 -0.4228 -0.4504  0.2129
  176SOPE  H16R20039   1.502   6.959   9.030 -0.2450  0.4072 -0.1020
  176SOPE  H16S20040   1.594   6.810   8.976 -0.2722 -0.4097 -2.8510
  176SOPE  C21720041   1.603   6.969   8.837 -0.1660 -0.0090  0.6378
  176SOPE  H17R20042   1.691   6.925   8.787 -1.4082 -0.7160 -1.0166
  176SOPE  H17S20043   1.605   7.080   8.845  0.6780 -0.0468  1.0141
  176SOPE  C21820044   1.480   6.925   8.760 -0.2878 -0.4246 -0.7441
  176SOPE  H18R20045   1.502   6.913   8.652 -2.3875  0.5831 -1.3518
  176SOPE  H18S20046   1.412   7.013   8.767  0.8198  0.3941  0.1582
  176SOPE  H18T20047   1.433   6.834   8.804 -1.3731  0.2449 -0.4778
  176SOPE   C3320048   2.059   6.024  10.473 -0.7101 -0.0760 -1.1117
  176SOPE   H3X20049   2.067   5.963  10.566  0.6338 -0.6331 -1.5619
  176SOPE   H3Y20050   2.160   6.071  10.474  0.0263 -1.4890 -2.7675
  176SOPE   C3420051   2.054   5.932  10.348 -0.2301 -0.2940  0.5231
  176SOPE   H4X20052   1.964   5.868  10.361 -0.5630  0.4993  2.5084
  176SOPE   H4Y20053   2.142   5.867  10.364  0.1673 -0.1293 -0.8629
  176SOPE   C3520054   2.056   6.006  10.223 -0.0470  0.5573 -0.3835
  176SOPE   H5X20055   2.134   6.084  10.225  2.4228 -1.7783  0.0004
  176SOPE   H5Y20056   1.958   6.058  10.218  0.4352  1.5184  0.0320
  176SOPE   C3620057   2.073   5.920  10.099  0.1205  0.1076  0.8395
  176SOPE   H6X20058   2.007   5.831  10.106 -0.2147  0.1940 -0.9287
  176SOPE   H6Y20059   2.175   5.876  10.098 -0.3221 -1.0552 -2.1663
  176SOPE   C3720060   2.040   5.995   9.968 -0.1371 -0.1111  0.2505
  176SOPE   H7X20061   2.105   6.081   9.941 -1.4981  0.4839 -1.3509
  176SOPE   H7Y20062   1.935   6.032   9.974 -0.0651 -0.0178  1.0802
  176SOPE   C3820063   2.065   5.905   9.838 -0.1210  0.0819 -0.0810
  176SOPE   H8X20064   2.002   5.816   9.856 -2.0787  1.0834 -1.6311
  176SOPE   H8Y20065   2.173   5.879   9.846 -0.1703 -0.1008 -0.0073
  176SOPE   C3920066   2.024   5.974   9.710 -0.4355 -0.1437  0.1275
  176SOPE   H9X20067   2.060   6.078   9.696 -1.8263  0.2093 -1.0500
  176SOPE   H9Y20068   1.914   5.983   9.701 -0.7492 -3.4447 -0.8740
  176SOPE  C31020069   2.056   5.880   9.590 -0.4406 -0.4505 -0.2420
  176SOPE  H10X20070   1.998   5.786   9.581  0.3950 -0.9204 -0.8253
  176SOPE  H10Y20071   2.163   5.851   9.595 -1.2474 -3.6233  1.0040
  176SOPE  C31120072   2.040   5.952   9.451  0.3323 -0.1324 -0.2329
  176SOPE  H11X20073   2.077   6.056   9.460  1.7836 -0.6409 -0.0123
  176SOPE  H11Y20074   1.929   5.950   9.441  0.3519 -0.5625 -0.4126
  176SOPE  C31220075   2.096   5.877   9.334 -0.7066 -0.0902  0.0333
  176SOPE  H12X20076   2.041   5.781   9.334  1.1804 -1.2389 -1.0500
  176SOPE  H12Y20077   2.203   5.862   9.360 -0.5054  1.3375  0.0814
  176SOPE  C31320078   2.076   5.944   9.204 -0.5989 -0.4663 -0.3720
  176SOPE  H13X20079   2.084   6.054   9.218 -0.5569 -0.2603 -1.9285
  176SOPE  H13Y20080   1.974   5.928   9.165 -1.6929  4.8586 -0.4506
  176SOPE  C31420081   2.177   5.904   9.102 -0.0090 -0.1958  0.4442
  176SOPE  H14X20082   2.195   5.795   9.106 -0.3957 -0.2384  1.1152
  176SOPE  H14Y20083   2.273   5.950   9.134  1.5329 -2.4178 -0.7335
  176SOPE  C31520084   2.129   5.938   8.957 -0.5382 -0.7759  0.2078
  176SOPE  H15X20085   2.061   5.852   8.935 -0.0947 -1.8105  2.6331
  176SOPE  H15Y20086   2.214   5.927   8.887 -0.3821  0.9503  0.0896
  176SOPE  C31620087   2.060   6.063   8.928  0.4233 -0.4380 -0.5960
  176SOPE  H16X20088   2.124   6.154   8.931 -1.1534  0.7163  0.0343
  176SOPE  H16Y20089   1.985   6.091   9.005  0.6118 -0.8140 -0.2792
  176SOPE  C31720090   1.990   6.068   8.785 -0.3115  0.5024  0.2948
  176SOPE  H17X20091   1.952   5.967   8.761  0.5694  0.6806 -2.1331
  176SOPE  H17Y20092   2.070   6.091   8.712  0.2228 -1.6592  0.1180
  176SOPE  C31820093   1.882   6.164   8.741  0.6054  0.0864  0.2767
  176SOPE  H18X20094   1.792   6.141   8.803  0.4319 -3.1549 -0.9323
  176SOPE  H18Y20095   1.863   6.150   8.632  0.3234 -2.6510  0.6013
  176SOPE  H18Z20096   1.915   6.269   8.749 -1.4723  0.8490 -0.4536
  177SOPE     N20097   2.633   2.343  11.126 -0.0504  0.2743 -0.3893
  177SOPE   HN120098   2.570   2.261  11.138 -0.2316  0.5000  0.2177
  177SOPE   HN220099   2.722   2.331  11.179 -0.6920 -0.3068  0.5869
  177SOPE   HN320100   2.588   2.427  11.166 -0.6995  0.5767 -1.6749
  177SOPE   C1220101   2.662   2.354  10.982  0.5772  0.0302 -0.9054
  177SOPE  H12A20102   2.568   2.315  10.936 -0.3770 -2.1050  2.5386
  177SOPE  H12B20103   2.758   2.298  10.972  0.2429 -1.3582  2.4924
  177SOPE   C1120104   2.692   2.503  10.946  0.0929  0.6047  0.2797
  177SOPE  H11A20105   2.594   2.555  10.950 -1.2047 -1.6643 -0.4081
  177SOPE  H11B20106   2.715   2.522  10.839 -2.7971  0.1705 -0.5126
  177SOPE     P20107   2.936   2.563  11.028  0.3552  0.1941 -0.3979
  177SOPE   O1320108   2.989   2.474  11.133 -0.0459  0.5615  0.5208
  177SOPE   O1420109   2.989   2.696  11.036 -0.3271 -0.5819 -0.1400
  177SOPE   O1220110   2.782   2.567  11.040  0.5898  0.0199 -0.2527
  177SOPE   O1120111   2.957   2.501  10.888 -0.7963 -0.2108  0.0657
  177SOPE    C120112   3.084   2.506  10.818 -0.4023 -0.2069 -0.5158
  177SOPE    HA20113   3.139   2.410  10.831  0.3106  0.1484 -0.8019
  177SOPE    HB20114   3.151   2.588  10.852  0.1753 -1.0730  0.4856
  177SOPE    C220115   3.059   2.526  10.662  0.5563 -0.0833 -0.1038
  177SOPE    HS20116   3.159   2.498  10.621  1.3834  0.6783  1.3435
  177SOPE   O2120117   3.023   2.661  10.642 -0.9163 -0.4218 -0.0503
  177SOPE   C2120118   3.123   2.753  10.646 -0.6080 -0.0378  1.0018
  177SOPE   O2220119   3.239   2.729  10.669  0.3411 -0.3334  0.7381
  177SOPE   C2220120   3.059   2.897  10.620 -0.6464 -0.0973 -1.1500
  177SOPE   H2R20121   3.142   2.971  10.629 -0.2582 -0.3645 -2.3490
  177SOPE   H2S20122   2.983   2.900  10.701 -0.0859  0.7692 -0.6282
  177SOPE    C320123   2.955   2.442  10.589  0.1653 -0.8846  0.6975
  177SOPE    HX20124   2.861   2.474  10.639  0.8404  2.4833  0.0661
  177SOPE    HY20125   2.982   2.337  10.614  1.9095 -0.5381  0.4009
  177SOPE   O3120126   2.958   2.462  10.443  0.2884  0.2262  0.2188
  177SOPE   C3120127   2.842   2.451  10.390 -1.0859 -0.2221  0.3919
  177SOPE   O3220128   2.738   2.440  10.455  0.0127  0.0312 -0.4015
  177SOPE   C3220129   2.852   2.441  10.241 -0.2930 -0.0512  0.4625
  177SOPE   H2X20130   2.805   2.341  10.229 -2.7100  0.9627  0.7559
  177SOPE   H2Y20131   2.958   2.451  10.209 -0.4129  0.4341  0.1946
  177SOPE   C2320132   2.997   2.910  10.480 -0.6420  0.1900  0.7844
  177SOPE   H3R20133   2.939   3.005  10.477  1.1791  1.3886  1.4934
  177SOPE   H3S20134   2.937   2.820  10.458  1.2346 -0.7126 -1.0572
  177SOPE   C2420135   3.111   2.900  10.373  0.0268 -0.1746  0.7352
  177SOPE   H4R20136   3.193   2.973  10.389  1.9584 -1.0945 -3.5132
  177SOPE   H4S20137   3.161   2.801  10.387  1.1040  0.1621 -0.4696
  177SOPE   C2520138   3.056   2.929  10.232 -0.1633 -0.4918 -0.0447
  177SOPE   H5R20139   3.137   2.931  10.156 -2.9952  1.0726 -3.3372
  177SOPE   H5S20140   2.985   2.850  10.200  1.9524 -2.3621 -0.3975
  177SOPE   C2620141   2.987   3.073  10.213 -0.1383  0.2397  0.3497
  177SOPE   H6R20142   2.891   3.081  10.268 -1.0218 -1.3842 -0.8573
  177SOPE   H6S20143   3.062   3.148  10.245  1.5122 -0.6592 -1.2199
  177SOPE   C2720144   2.938   3.108  10.069  0.2083 -1.0561  0.6864
  177SOPE   H7R20145   2.884   3.205  10.076  0.4942 -0.5503 -2.5418
  177SOPE   H7S20146   3.027   3.129  10.006 -0.1192  0.2539  0.6240
  177SOPE   C2820147   2.842   3.014   9.987  0.3432 -0.1243 -0.2267
  177SOPE   H8R20148   2.891   2.915   9.979 -1.8133 -1.2752  0.0136
  177SOPE   H8S20149   2.747   2.993  10.041  1.2393 -0.0765  1.4250
  177SOPE   C2920150   2.794   3.078   9.856 -0.9198  0.0519 -0.6370
  177SOPE   H9120151   2.698   3.131   9.857 -0.4275  1.0633  2.0581
  177SOPE  C21020152   2.866   3.079   9.742  0.2597  0.3056 -0.2459
  177SOPE  H10120153   2.831   3.147   9.663  0.3279 -0.8572 -1.3071
  177SOPE  C21120154   3.002   3.010   9.714  0.1858  0.2614  0.2741
  177SOPE  H11R20155   3.059   2.979   9.804 -0.9018 -0.0326  0.8736
  177SOPE  H11S20156   3.064   3.082   9.656 -0.8080  0.6486 -0.3357
  177SOPE  C21220157   2.993   2.893   9.614 -0.1111 -0.4612 -0.3857
  177SOPE  H12R20158   2.960   2.797   9.659  0.8624 -1.0912 -0.9923
  177SOPE  H12S20159   3.097   2.882   9.576 -0.1615 -0.0375 -0.6529
  177SOPE  C21320160   2.917   2.934   9.485 -0.0311 -1.0319  0.6636
  177SOPE  H13R20161   2.814   2.973   9.501  0.3722  0.2941  0.1661
  177SOPE  H13S20162   2.911   2.846   9.418 -0.0688 -0.2645 -0.3759
  177SOPE  C21420163   2.984   3.053   9.408 -0.4073 -0.0521 -0.5012
  177SOPE  H14R20164   3.092   3.029   9.413 -0.6755 -1.0539  2.1302
  177SOPE  H14S20165   2.973   3.145   9.471 -3.8024  0.8959 -2.2637
  177SOPE  C21520166   2.927   3.066   9.268 -0.5479  0.0894  0.1315
  177SOPE  H15R20167   2.959   2.987   9.196  0.1613  1.9604 -1.7027
  177SOPE  H15S20168   2.970   3.161   9.230  0.5603 -0.8702 -1.0774
  177SOPE  C21620169   2.776   3.085   9.253 -0.1373 -0.3550 -0.2455
  177SOPE  H16R20170   2.735   3.178   9.298 -0.7577 -0.6367 -0.2179
  177SOPE  H16S20171   2.723   3.006   9.311 -0.9751  1.4029  1.4827
  177SOPE  C21720172   2.735   3.077   9.107  0.2578 -0.1222  0.2777
  177SOPE  H17R20173   2.627   3.052   9.096  0.2294 -0.1542  0.6363
  177SOPE  H17S20174   2.785   3.005   9.039 -1.0052  0.8635 -1.7967
  177SOPE  C21820175   2.749   3.213   9.044 -0.0310 -0.3953  0.4777
  177SOPE  H18R20176   2.851   3.253   9.066  0.8662 -1.1247 -2.0223
  177SOPE  H18S20177   2.671   3.282   9.081 -0.8747  0.2365 -2.2763
  177SOPE  H18T20178   2.736   3.228   8.935 -0.5145  2.2297  0.8276
  177SOPE   C3320179   2.764   2.544  10.169  0.6062  0.1824  0.0425
  177SOPE   H3X20180   2.814   2.642  10.185 -0.0863  0.6978 -0.8130
  177SOPE   H3Y20181   2.656   2.542  10.196  0.8465 -2.0852  1.0809
  177SOPE   C3420182   2.774   2.518  10.016  0.7216 -0.4602  0.2973
  177SOPE   H4X20183   2.711   2.429   9.994  0.3101 -0.5328  1.6901
  177SOPE   H4Y20184   2.880   2.498   9.988  0.5678 -1.5701  0.4726
  177SOPE   C3520185   2.712   2.640   9.933 -0.6862  0.4935 -0.5867
  177SOPE   H5X20186   2.754   2.735   9.971  1.0699  0.4084 -2.1638
  177SOPE   H5Y20187   2.601   2.639   9.937 -0.7032  1.0585 -0.8577
  177SOPE   C3620188   2.742   2.628   9.780  0.0244  0.4274 -0.0874
  177SOPE   H6X20189   2.837   2.685   9.770  0.0279  0.2642 -1.0735
  177SOPE   H6Y20190   2.661   2.682   9.726  0.2810 -0.9496 -1.9421
  177SOPE   C3720191   2.750   2.491   9.733  0.0990  0.0596  0.7412
  177SOPE   H7X20192   2.677   2.428   9.788 -0.6652  1.1062  0.9773
  177SOPE   H7Y20193   2.855   2.460   9.752 -0.0436  0.4475  2.3388
  177SOPE   C3820194   2.718   2.499   9.579  0.3033 -0.2172  0.6985
  177SOPE   H8X20195   2.622   2.551   9.561 -2.4364 -5.4260 -2.3322
  177SOPE   H8Y20196   2.692   2.393   9.558  0.1504 -1.0176  4.2815
  177SOPE   C3920197   2.825   2.549   9.488  0.3452  0.1485  0.0642
  177SOPE   H9X20198   2.910   2.489   9.526  0.4794  1.0314  1.2489
  177SOPE   H9Y20199   2.847   2.656   9.511  0.9247 -0.0788  0.5827
  177SOPE  C31020200   2.802   2.520   9.341  0.1061 -0.0284  0.2738
  177SOPE  H10X20201   2.757   2.419   9.336  0.3740 -0.0892 -1.7906
  177SOPE  H10Y20202   2.898   2.514   9.287  0.5032 -0.0819  0.9809
  177SOPE  C31120203   2.724   2.625   9.266  0.6751 -0.5904 -0.7324
  177SOPE  H11X20204   2.774   2.721   9.290 -2.0639  0.3046  1.8411
  177SOPE  H11Y20205   2.618   2.624   9.297  0.9292 -0.4586  0.1493
  177SOPE  C31220206   2.730   2.616   9.113  0.6280  0.5465 -0.7031
  177SOPE  H12X20207   2.790   2.530   9.078  2.1938  1.5884 -0.6883
  177SOPE  H12Y20208   2.777   2.711   9.079 -0.0865  1.0280 -0.3821
  177SOPE  C31320209   2.594   2.620   9.045  0.4402 -0.4854 -0.1497
  177SOPE  H13X20210   2.532   2.705   9.082 -0.7106 -0.5599 -1.8060
  177SOPE  H13Y20211   2.533   2.532   9.070  0.8357 -1.0451 -1.0730
  177SOPE  C31420212   2.595   2.647   8.895 -0.3300  0.6965  0.5488
  177SOPE  H14X20213   2.650   2.562   8.850  0.5121  0.7811  1.4051
  177SOPE  H14Y20214   2.647   2.745   8.893  0.1775  0.4718 -2.3994
  177SOPE  C31520215   2.472   2.668   8.814 -0.2275  0.2975  0.3311
  177SOPE  H15X20216   2.485   2.733   8.725 -0.7204  1.5709  1.1637
  177SOPE  H15Y20217   2.399   2.728   8.871 -2.3984  0.2372 -2.2012
  177SOPE  C31620218   2.400   2.534   8.770 -0.6482 -0.6208 -0.0432
  177SOPE  H16X20219   2.293   2.558   8.748  0.1039  0.9500 -2.4267
  177SOPE  H16Y20220   2.401   2.464   8.856  1.9657 -0.1196  0.4079
  177SOPE  C31720221   2.466   2.474   8.646  0.6390  0.2888  0.0469
  177SOPE  H17X20222   2.567   2.439   8.678  0.6185  0.5997  0.4523
  177SOPE  H17Y20223   2.456   2.539   8.556 -4.1260  0.2321  0.2611
  177SOPE  C31820224   2.395   2.344   8.604  0.2485  0.7611 -0.4831
  177SOPE  H18X20225   2.398   2.278   8.693 -0.3408  1.4956  0.0984
  177SOPE  H18Y20226   2.437   2.303   8.510 -0.8197 -0.6559 -0.3739
  177SOPE  H18Z20227   2.290   2.374   8.586  0.5718  2.3452  0.0319
  178SOPE     N20228   5.228   5.258  10.729 -0.9478  0.4223  0.4418
  178SOPE   HN120229   5.128   5.235  10.708 -0.3802  0.2312 -2.4224
  178SOPE   HN220230   5.236   5.360  10.713  0.4415  0.1039 -1.1493
  178SOPE   HN320231   5.281   5.203  10.657  0.1682  1.1129  0.7234
  178SOPE   C1220232   5.272   5.219  10.863  0.2925  0.5755  0.8612
  178SOPE  H12A20233   5.258   5.109  10.876 -0.8329  0.5056 -0.7163
  178SOPE  H12B20234   5.207   5.275  10.934 -0.5929  2.0092 -1.0169
  178SOPE   C1120235   5.419   5.254  10.895  0.6517 -0.3619  0.0484
  178SOPE  H11A20236   5.482   5.163  10.885  2.3288  0.7256  0.2702
  178SOPE  H11B20237   5.423   5.275  11.004 -0.4873 -1.6527  0.3663
  178SOPE     P20238   5.625   5.389  10.832 -0.2335  0.2004  0.8760
  178SOPE   O1320239   5.694   5.259  10.820 -0.6241 -0.2459  0.3668
  178SOPE   O1420240   5.646   5.468  10.954 -0.0206  1.3927  0.2531
  178SOPE   O1220241   5.471   5.364  10.812 -0.1355 -0.0061 -1.0816
  178SOPE   O1120242   5.674   5.486  10.715  0.8417  0.7327  0.0190
  178SOPE    C120243   5.583   5.567  10.649  0.2833  0.3627  1.0401
  178SOPE    HA20244   5.637   5.654  10.606 -0.2791 -1.2819 -3.6126
  178SOPE    HB20245   5.507   5.612  10.716  0.0003  1.6179 -0.0895
  178SOPE    C220246   5.524   5.499  10.523  1.2450 -0.1424 -0.2354
  178SOPE    HS20247   5.488   5.395  10.540  1.2548 -0.4580 -1.9360
  178SOPE   O2120248   5.628   5.512  10.427 -0.2387  0.2064 -0.0788
  178SOPE   C2120249   5.634   5.423  10.330  0.0878  0.0676  0.1756
  178SOPE   O2220250   5.557   5.326  10.321 -0.2514  0.4120 -0.1963
  178SOPE   C2220251   5.751   5.438  10.239 -0.4848 -0.0526 -0.8007
  178SOPE   H2R20252   5.830   5.379  10.290  0.2493  1.7051  0.1873
  178SOPE   H2S20253   5.773   5.547  10.240  1.3252 -0.3857  1.2811
  178SOPE    C320254   5.404   5.587  10.476 -0.7682  0.3277 -0.8340
  178SOPE    HX20255   5.441   5.689  10.452 -0.3023  0.1159 -1.0328
  178SOPE    HY20256   5.337   5.614  10.560  0.8465  1.5365  0.1387
  178SOPE   O3120257   5.348   5.529  10.361  0.3451  0.3950 -0.1463
  178SOPE   C3120258   5.245   5.449  10.388 -0.5663  0.0882  0.1320
  178SOPE   O3220259   5.201   5.422  10.498  0.1915  0.4291  0.0264
  178SOPE   C3220260   5.183   5.405  10.266 -0.6319  0.7470 -0.0332
  178SOPE   H2X20261   5.090   5.465  10.252 -0.6982  1.0617  1.5120
  178SOPE   H2Y20262   5.149   5.300  10.269 -1.3329  0.8642 -2.2596
  178SOPE   C2320263   5.717   5.379  10.099 -0.0269  0.2251 -0.1554
  178SOPE   H3R20264   5.610   5.372  10.069  0.6645 -0.7875 -2.5200
  178SOPE   H3S20265   5.760   5.278  10.089  0.3993  0.5056 -1.2609
  178SOPE   C2420266   5.778   5.464   9.986  0.1466  0.4065  0.1633
  178SOPE   H4R20267   5.717   5.554   9.964 -1.9999 -1.2688 -1.2632
  178SOPE   H4S20268   5.879   5.497  10.019 -0.7863  3.9512 -0.1263
  178SOPE   C2520269   5.786   5.385   9.855  0.5018 -0.2060 -0.3226
  178SOPE   H5R20270   5.804   5.277   9.876 -2.2047 -0.5530  0.6987
  178SOPE   H5S20271   5.688   5.388   9.803 -1.3169  2.6422  2.8765
  178SOPE   C2620272   5.891   5.446   9.752  0.9167  0.0483  0.9766
  178SOPE   H6R20273   5.894   5.556   9.771  1.3224 -0.1831  2.3271
  178SOPE   H6S20274   5.985   5.395   9.783  0.9389 -1.6050 -1.4692
  178SOPE   C2720275   5.875   5.412   9.596  0.3216  0.0024 -0.8796
  178SOPE   H7R20276   5.969   5.449   9.550  2.2827 -3.3021  0.1601
  178SOPE   H7S20277   5.881   5.302   9.599  2.1282  0.0603  1.7188
  178SOPE   C2820278   5.761   5.483   9.529  0.5485  0.1005 -0.5814
  178SOPE   H8R20279   5.660   5.464   9.573 -0.0740  1.9191 -1.1407
  178SOPE   H8S20280   5.765   5.594   9.526  1.1821  0.0649 -1.7999
  178SOPE   C2920281   5.750   5.428   9.387 -0.0888 -0.2444  0.3012
  178SOPE   H9120282   5.730   5.320   9.385 -1.5549 -0.0703  2.1875
  178SOPE  C21020283   5.744   5.498   9.274  0.2967 -0.6280  0.0327
  178SOPE  H10120284   5.755   5.438   9.182 -0.5010 -2.0059  0.8030
  178SOPE  C21120285   5.736   5.649   9.254  0.0080  0.2910  0.4543
  178SOPE  H11R20286   5.836   5.692   9.229 -0.1513 -1.2982 -3.7053
  178SOPE  H11S20287   5.700   5.692   9.350 -0.5158 -0.0049  0.3914
  178SOPE  C21220288   5.625   5.676   9.154  0.6540  0.9485  0.6544
  178SOPE  H12R20289   5.602   5.785   9.161  1.8411  1.1376  2.3850
  178SOPE  H12S20290   5.537   5.614   9.180  2.0858 -0.8965  1.3340
  178SOPE  C21320291   5.655   5.638   9.004 -0.1887 -0.1583  0.5015
  178SOPE  H13R20292   5.630   5.530   8.996 -1.1794  0.0596  0.5668
  178SOPE  H13S20293   5.757   5.665   8.971  0.1463 -0.9055  0.8960
  178SOPE  C21420294   5.562   5.713   8.905  0.6027  0.2208  0.4716
  178SOPE  H14R20295   5.454   5.688   8.919  0.9443 -0.8251  1.4546
  178SOPE  H14S20296   5.590   5.679   8.803 -0.4782 -1.9851  0.8323
  178SOPE  C21520297   5.564   5.873   8.908 -0.1158 -0.1173  0.0132
  178SOPE  H15R20298   5.670   5.903   8.922  0.0481 -1.0590  0.9216
  178SOPE  H15S20299   5.513   5.917   8.996  1.1539  2.4939 -0.4614
  178SOPE  C21620300   5.502   5.931   8.781  1.1122  0.7299  0.9512
  178SOPE  H16R20301   5.403   5.885   8.761  1.8123 -0.4781  0.1443
  178SOPE  H16S20302   5.560   5.904   8.690 -3.4732 -1.3276 -1.7628
  178SOPE  C21720303   5.508   6.082   8.784  0.4031 -0.1715  0.1882
  178SOPE  H17R20304   5.593   6.123   8.843 -2.2261  2.8905  2.1819
  178SOPE  H17S20305   5.420   6.126   8.836  1.5882 -1.6263  3.8256
  178SOPE  C21820306   5.511   6.150   8.644  1.0200  0.5209 -0.8513
  178SOPE  H18R20307   5.470   6.253   8.653 -2.6177 -0.9532  2.3128
  178SOPE  H18S20308   5.437   6.090   8.588 -0.3371  1.6234 -0.2895
  178SOPE  H18T20309   5.615   6.140   8.605  0.8111  2.5103 -2.0693
  178SOPE   C3320310   5.287   5.418  10.145 -0.3393 -0.0672  0.0593
  178SOPE   H3X20311   5.369   5.347  10.170 -1.0128  0.3479  3.9872
  178SOPE   H3Y20312   5.333   5.518  10.134 -0.9815  0.1049 -1.2312
  178SOPE   C3420313   5.226   5.378  10.009  0.4078  0.4298  0.1932
  178SOPE   H4X20314   5.128   5.429  10.001 -0.6156 -1.5611 -0.8516
  178SOPE   H4Y20315   5.201   5.270  10.012  0.2785  0.4408 -0.3170
  178SOPE   C3520316   5.323   5.408   9.898 -0.2989 -0.4313  0.2790
  178SOPE   H5X20317   5.423   5.364   9.917 -0.0657 -1.4876 -2.8615
  178SOPE   H5Y20318   5.340   5.516   9.879 -0.0489 -0.5200 -0.0140
  178SOPE   C3620319   5.289   5.344   9.756  0.2440 -0.7786  0.4878
  178SOPE   H6X20320   5.189   5.387   9.731  1.2132  1.1854 -0.2423
  178SOPE   H6Y20321   5.286   5.235   9.778 -0.6850 -0.9031 -0.1588
  178SOPE   C3720322   5.395   5.385   9.654  0.6123  0.0208  0.3197
  178SOPE   H7X20323   5.489   5.364   9.711 -0.4056  0.9050  2.4512
  178SOPE   H7Y20324   5.388   5.492   9.627 -0.5602 -0.4963 -1.5932
  178SOPE   C3820325   5.406   5.289   9.531 -0.0530 -0.5354 -0.2211
  178SOPE   H8X20326   5.411   5.188   9.578 -1.3087 -2.3141 -3.5441
  178SOPE   H8Y20327   5.495   5.316   9.471 -1.1373  1.3139 -1.0695
  178SOPE   C3920328   5.288   5.319   9.436  0.2523 -0.1948  0.4552
  178SOPE   H9X20329   5.194   5.336   9.492 -1.0324 -0.2821 -1.5636
  178SOPE   H9Y20330   5.274   5.218   9.392  2.4112 -0.3821  0.1178
  178SOPE  C31020331   5.319   5.437   9.344  0.2692 -0.1463 -0.0872
  178SOPE  H10X20332   5.414   5.421   9.289  2.2048  1.7239  2.4666
  178SOPE  H10Y20333   5.332   5.537   9.391 -0.6540  2.0551 -4.0843
  178SOPE  C31120334   5.222   5.473   9.237 -0.8790 -0.2145  0.4716
  178SOPE  H11X20335   5.266   5.560   9.184 -0.8784 -0.3162  0.3044
  178SOPE  H11Y20336   5.126   5.499   9.285 -2.2100 -1.2906 -1.4640
  178SOPE  C31220337   5.206   5.365   9.133  0.4494  0.5496 -0.1821
  178SOPE  H12X20338   5.161   5.268   9.165 -1.6529  1.0619 -1.4093
  178SOPE  H12Y20339   5.308   5.338   9.098  0.9650 -2.6746  3.1128
  178SOPE  C31320340   5.106   5.396   9.021 -0.5132 -0.0561 -0.0284
  178SOPE  H13X20341   5.123   5.506   9.010  1.1919 -0.0683  1.8385
  178SOPE  H13Y20342   5.000   5.383   9.050 -0.2720  0.4048  1.1195
  178SOPE  C31420343   5.122   5.320   8.884 -0.5199  0.6805 -0.0885
  178SOPE  H14X20344   5.030   5.354   8.832  0.8787  0.1073 -3.1273
  178SOPE  H14Y20345   5.113   5.212   8.910 -1.8542  0.7618 -0.1388
  178SOPE  C31520346   5.248   5.356   8.812 -0.1236 -0.7295  0.3106
  178SOPE  H15X20347   5.347   5.332   8.856  0.7729 -0.8451 -1.6700
  178SOPE  H15Y20348   5.255   5.467   8.801  0.6018 -0.7735  0.2229
  178SOPE  C31620349   5.240   5.295   8.670  0.1348 -0.6888 -0.3752
  178SOPE  H16X20350   5.306   5.340   8.593 -1.9349  0.0613 -1.7883
  178SOPE  H16Y20351   5.134   5.303   8.636  0.1833  1.3888 -0.1578
  178SOPE  C31720352   5.273   5.146   8.676 -0.4273 -0.1666 -0.7526
  178SOPE  H17X20353   5.213   5.099   8.756  1.2532 -1.1660 -0.0152
  178SOPE  H17Y20354   5.377   5.136   8.716 -0.2848 -1.6324 -1.4155
  178SOPE  C31820355   5.251   5.074   8.537 -0.1191 -0.3386 -0.1996
  178SOPE  H18X20356   5.282   4.969   8.555 -0.3859 -0.6110 -1.2556
  178SOPE  H18Y20357   5.318   5.120   8.461 -1.0839  0.9015 -0.3152
  178SOPE  H18Z20358   5.145   5.083   8.505 -0.3924  0.8568  0.9686
  179SOPE     N20359   2.407   0.982   6.434 -0.6065 -0.6011  0.0405
  179SOPE   HN120360   2.499   0.979   6.482 -0.3869 -0.5145 -0.3710
  179SOPE   HN220361   2.362   0.890   6.413  0.0379 -0.5996 -1.4510
  179SOPE   HN320362   2.421   1.024   6.340 -2.2832  0.3036  0.1456
  179SOPE   C1220363   2.319   1.076   6.512  1.0758 -0.3676  0.0672
  179SOPE  H12A20364   2.238   1.091   6.438 -0.1574 -0.8191  1.2925
  179SOPE  H12B20365   2.372   1.171   6.533  0.3989 -0.1453  0.7814
  179SOPE   C1120366   2.251   1.006   6.629 -0.1791 -0.1819  0.4218
  179SOPE  H11A20367   2.174   1.078   6.665  1.1583  0.8149  1.3960
  179SOPE  H11B20368   2.327   0.999   6.709 -0.6073  3.9055  1.4242
  179SOPE     P20369   2.055   0.850   6.546 -0.3495  0.1195 -0.3499
  179SOPE   O1320370   2.042   0.706   6.512  0.0549 -0.0067 -1.0253
  179SOPE   O1420371   2.005   0.952   6.449 -0.2083  0.3229 -0.1885
  179SOPE   O1220372   2.204   0.881   6.590 -0.0557 -0.1573 -0.1433
  179SOPE   O1120373   1.975   0.870   6.679  0.0397 -0.2128 -0.0922
  179SOPE    C120374   1.988   0.805   6.800  0.0662 -0.7899 -0.1704
  179SOPE    HA20375   2.092   0.780   6.829  0.8131  0.7089 -1.3863
  179SOPE    HB20376   1.925   0.714   6.796  0.6476 -1.1824 -3.5236
  179SOPE    C220377   1.938   0.901   6.906  0.5465  0.2673  0.1549
  179SOPE    HS20378   1.981   0.859   7.000 -2.2563  0.8039  1.7720
  179SOPE   O2120379   1.790   0.900   6.910 -0.1563 -0.4082  0.0087
  179SOPE   C2120380   1.737   0.783   6.956  0.2094 -0.8251 -0.1115
  179SOPE   O2220381   1.801   0.697   7.009  0.2556  0.2784 -0.4095
  179SOPE   C2220382   1.589   0.776   6.930 -0.6596  0.5009  0.6258
  179SOPE   H2R20383   1.573   0.687   6.866  1.3394  0.5100  0.0551
  179SOPE   H2S20384   1.563   0.860   6.862  0.3002  2.2075  2.2791
  179SOPE    C320385   1.982   1.046   6.879 -0.1820 -0.2997  0.0955
  179SOPE    HX20386   1.928   1.091   6.794 -2.3561 -0.9857  1.0472
  179SOPE    HY20387   2.091   1.037   6.860 -0.8692 -0.7170 -4.8231
  179SOPE   O3120388   1.956   1.127   7.001 -0.1546 -0.5426  0.0647
  179SOPE   C3120389   1.855   1.210   6.998  0.6181  0.4248  0.3117
  179SOPE   O3220390   1.789   1.247   6.904  0.5979 -0.0234  0.2450
  179SOPE   C3220391   1.824   1.257   7.138  0.0159  0.0942  0.1445
  179SOPE   H2X20392   1.715   1.280   7.136 -0.3108 -0.8238  2.8764
  179SOPE   H2Y20393   1.882   1.350   7.153 -0.3457  0.3237  0.1287
  179SOPE   C2320394   1.498   0.757   7.055  0.0454  0.0192  0.5667
  179SOPE   H3R20395   1.515   0.657   7.099 -1.5508  0.4390  2.3059
  179SOPE   H3S20396   1.389   0.764   7.034  0.0300 -0.4098  0.5039
  179SOPE   C2420397   1.516   0.852   7.171 -0.6036  0.2604  0.8374
  179SOPE   H4R20398   1.614   0.906   7.166 -0.0215 -0.8914 -2.0218
  179SOPE   H4S20399   1.451   0.941   7.159 -0.9468  0.0987  1.4312
  179SOPE   C2520400   1.487   0.784   7.309 -0.3199 -0.5604  0.0318
  179SOPE   H5R20401   1.388   0.735   7.303 -0.2505 -0.8424  0.9122
  179SOPE   H5S20402   1.571   0.711   7.323 -0.2354 -0.0647  2.6129
  179SOPE   C2620403   1.478   0.892   7.418  0.1516  0.5713 -0.0267
  179SOPE   H6R20404   1.560   0.966   7.410  2.1387 -1.6026 -1.0634
  179SOPE   H6S20405   1.383   0.945   7.398 -0.3726 -0.5216 -0.5050
  179SOPE   C2720406   1.492   0.842   7.569 -0.2305  0.0071  0.2848
  179SOPE   H7R20407   1.410   0.769   7.589  1.5253 -1.6782  1.7928
  179SOPE   H7S20408   1.587   0.785   7.568  0.7385  1.5847 -0.5279
  179SOPE   C2820409   1.497   0.954   7.678 -0.3699  0.2809  0.4880
  179SOPE   H8R20410   1.547   1.042   7.633 -0.9273  1.3549  1.9163
  179SOPE   H8S20411   1.402   0.988   7.724  0.2177  2.0207  0.4559
  179SOPE   C2920412   1.601   0.916   7.782  0.4576  0.1854  0.4621
  179SOPE   H9120413   1.694   0.868   7.747  0.1180  0.6624 -1.1644
  179SOPE  C21020414   1.592   0.942   7.918  0.0840  0.1232  0.5223
  179SOPE  H10120415   1.679   0.907   7.976  0.0683 -2.3658 -0.8358
  179SOPE  C21120416   1.471   1.000   7.989  0.0106 -0.4854  0.0926
  179SOPE  H11R20417   1.386   1.030   7.925  1.3074  3.7787  0.0726
  179SOPE  H11S20418   1.506   1.097   8.030 -1.9765  0.5571 -0.5441
  179SOPE  C21220419   1.411   0.898   8.100  0.2576 -0.3749  1.1764
  179SOPE  H12R20420   1.497   0.860   8.160  0.7023 -0.5091  0.4604
  179SOPE  H12S20421   1.372   0.817   8.035  1.4670 -0.3796  0.4342
  179SOPE  C21320422   1.297   0.957   8.178 -0.0645 -0.1600 -0.6698
  179SOPE  H13R20423   1.204   0.972   8.120 -1.6641 -0.3717  1.7219
  179SOPE  H13S20424   1.340   1.056   8.208 -0.6370 -0.2274  0.4102
  179SOPE  C21420425   1.245   0.892   8.307  0.4429  0.2506 -0.2941
  179SOPE  H14R20426   1.199   0.793   8.287  0.7267  0.0661 -0.0501
  179SOPE  H14S20427   1.161   0.958   8.335  1.5292  1.2756  0.6490
  179SOPE  C21520428   1.353   0.891   8.417  0.0966  0.4581 -0.3955
  179SOPE  H15R20429   1.356   0.980   8.484  0.1953 -0.5325  0.9683
  179SOPE  H15S20430   1.454   0.876   8.372  0.5043  1.9299 -0.0045
  179SOPE  C21620431   1.334   0.762   8.507  0.6732  0.0213 -0.3128
  179SOPE  H16R20432   1.302   0.679   8.442 -2.3222  1.2663 -0.5976
  179SOPE  H16S20433   1.242   0.783   8.566 -0.3906 -2.1173 -1.1293
  179SOPE  C21720434   1.456   0.728   8.592  0.3236 -0.4373 -0.8815
  179SOPE  H17R20435   1.490   0.806   8.663  2.1865 -1.3529 -0.7001
  179SOPE  H17S20436   1.547   0.725   8.527  0.5223 -0.0780 -0.6186
  179SOPE  C21820437   1.445   0.596   8.678  0.2434 -0.2768  0.1731
  179SOPE  H18R20438   1.543   0.576   8.727  0.7365  1.7110  0.0952
  179SOPE  H18S20439   1.424   0.510   8.611 -1.3310 -0.3209  0.6853
  179SOPE  H18T20440   1.379   0.602   8.767  1.2647 -1.5329  1.0410
  179SOPE   C3320441   1.863   1.166   7.258 -0.3209 -0.0576  0.2904
  179SOPE   H3X20442   1.973   1.166   7.271 -0.3724  0.7881  0.7692
  179SOPE   H3Y20443   1.835   1.060   7.238  0.4951 -0.4994  1.3718
  179SOPE   C3420444   1.796   1.230   7.382 -0.8213  0.2539  0.5233
  179SOPE   H4X20445   1.689   1.203   7.381 -0.2738 -2.1491 -0.0772
  179SOPE   H4Y20446   1.802   1.340   7.370  1.1962  0.0939 -0.3173
  179SOPE   C3520447   1.860   1.195   7.518  0.3740  0.5639  0.1505
  179SOPE   H5X20448   1.788   1.229   7.595  0.3319 -1.2072  0.9479
  179SOPE   H5Y20449   1.953   1.256   7.527  1.2221 -0.7095  0.3899
  179SOPE   C3620450   1.906   1.049   7.533  0.8158 -0.2022  0.5817
  179SOPE   H6X20451   1.986   1.021   7.462  0.4336 -0.0829  0.0983
  179SOPE   H6Y20452   1.811   0.993   7.518  1.5666 -1.7184  1.3184
  179SOPE   C3720453   1.947   1.023   7.677 -0.9932 -0.4728 -1.1282
  179SOPE   H7X20454   1.969   0.915   7.683  1.2236 -0.0542 -0.6399
  179SOPE   H7Y20455   1.865   1.043   7.748 -0.1312 -1.5737  0.2408
  179SOPE   C3820456   2.080   1.091   7.718 -0.1105  0.8471  0.4653
  179SOPE   H8X20457   2.079   1.201   7.726  0.8300  0.8304  0.8742
  179SOPE   H8Y20458   2.150   1.079   7.633 -1.2017  1.8347 -0.6080
  179SOPE   C3920459   2.144   1.024   7.834  0.3334 -0.2631  0.3982
  179SOPE   H9X20460   2.246   1.067   7.847  0.5368 -1.0517  1.4991
  179SOPE   H9Y20461   2.155   0.916   7.810  1.3846 -0.1587  0.3469
  179SOPE  C31020462   2.076   1.052   7.969  0.4725 -0.1433  0.3946
  179SOPE  H10X20463   1.980   0.997   7.971 -0.8703  1.9046 -1.8917
  179SOPE  H10Y20464   2.045   1.157   7.985  2.3835  0.3143  1.4327
  179SOPE  C31120465   2.158   1.008   8.090 -0.6751  0.6423 -0.3829
  179SOPE  H11X20466   2.095   1.026   8.180  1.5330 -2.3794  1.9356
  179SOPE  H11Y20467   2.248   1.071   8.110  0.2593 -0.7232 -0.1921
  179SOPE  C31220468   2.193   0.860   8.112  0.1270 -0.0438 -0.2411
  179SOPE  H12X20469   2.272   0.841   8.035  1.7927  2.9758  0.5624
  179SOPE  H12Y20470   2.102   0.797   8.108  0.7770 -1.3009  2.4003
  179SOPE  C31320471   2.272   0.829   8.245 -0.1534 -0.2229 -0.0189
  179SOPE  H13X20472   2.358   0.895   8.270 -0.4023 -0.4229  1.4658
  179SOPE  H13Y20473   2.317   0.728   8.236 -0.5242 -0.5934  1.9234
  179SOPE  C31420474   2.196   0.828   8.378  0.6131 -0.2098  0.0324
  179SOPE  H14X20475   2.167   0.934   8.395  2.9715  0.8482 -1.9780
  179SOPE  H14Y20476   2.270   0.807   8.457  0.9175  1.2721  0.1802
  179SOPE  C31520477   2.064   0.739   8.377 -0.0791 -0.1465 -0.0447
  179SOPE  H15X20478   2.076   0.629   8.364  2.2679  0.1197 -0.5998
  179SOPE  H15Y20479   1.982   0.782   8.316  0.1314 -0.9432 -0.9228
  179SOPE  C31620480   2.008   0.743   8.525  0.8610 -1.0180  0.0597
  179SOPE  H16X20481   2.085   0.702   8.594 -1.4319 -1.4640  2.5264
  179SOPE  H16Y20482   1.917   0.679   8.531 -0.8233  0.9855 -2.2011
  179SOPE  C31720483   1.978   0.880   8.578 -0.1360 -0.9653 -0.8122
  179SOPE  H17X20484   1.909   0.925   8.503 -1.2694 -1.6620 -0.2164
  179SOPE  H17Y20485   2.073   0.936   8.588 -0.4638 -0.2004 -1.7532
  179SOPE  C31820486   1.893   0.899   8.708 -0.3941  0.1715  0.6163
  179SOPE  H18X20487   1.789   0.881   8.673 -0.3059  0.3318  0.2723
  179SOPE  H18Y20488   1.904   1.003   8.743  0.4890 -0.4182  2.1947
  179SOPE  H18Z20489   1.919   0.820   8.782  1.0776  2.0916  2.2492
  180SOPE     N20490   2.141   5.919   6.022 -0.5074 -0.1179 -0.3210
  180SOPE   HN120491   2.070   5.965   5.960 -1.2294 -0.2335  0.3961
  180SOPE   HN220492   2.139   5.816   6.016  1.0932 -0.3833  2.4150
  180SOPE   HN320493   2.116   5.951   6.118 -0.8510  0.3659 -0.5652
  180SOPE   C1220494   2.277   5.963   5.971  0.8245 -0.5642  0.4165
  180SOPE  H12A20495   2.279   6.074   5.977  0.7184 -0.5639  0.4321
  180SOPE  H12B20496   2.273   5.932   5.864  2.5097  0.4093  0.0208
  180SOPE   C1120497   2.391   5.897   6.048 -0.3566  0.4073  0.1691
  180SOPE  H11A20498   2.396   5.947   6.147  4.9393  0.9559 -0.0945
  180SOPE  H11B20499   2.485   5.915   5.991 -0.2998 -0.6028 -0.0847
  180SOPE     P20500   2.470   5.667   6.131  0.2283 -0.0964  0.1980
  180SOPE   O1320501   2.596   5.720   6.076  0.3017  0.7749  0.6779
  180SOPE   O1420502   2.443   5.523   6.103 -0.0103  0.2558 -0.3340
  180SOPE   O1220503   2.362   5.757   6.077  0.4336  0.3623 -0.2083
  180SOPE   O1120504   2.470   5.695   6.284 -0.3167  0.5764 -0.6881
  180SOPE    C120505   2.352   5.710   6.370 -0.2629 -0.3169  0.0248
  180SOPE    HA20506   2.300   5.613   6.388 -1.1811  0.0098 -0.8012
  180SOPE    HB20507   2.284   5.786   6.328 -0.7465 -0.3610  0.7030
  180SOPE    C220508   2.388   5.751   6.521  0.7171  0.3023  0.3835
  180SOPE    HS20509   2.461   5.835   6.519 -1.1066  2.0137  1.5778
  180SOPE   O2120510   2.443   5.627   6.579  0.1775 -0.0414 -0.1572
  180SOPE   C2120511   2.577   5.627   6.578  1.0399 -0.1627 -0.2145
  180SOPE   O2220512   2.639   5.721   6.537 -0.0384 -0.2882 -0.5981
  180SOPE   C2220513   2.631   5.500   6.643 -0.7258  0.6014 -0.3552
  180SOPE   H2R20514   2.696   5.461   6.562  0.5938 -0.4464  1.1505
  180SOPE   H2S20515   2.548   5.433   6.672 -0.0567 -0.2623 -0.4091
  180SOPE    C320516   2.258   5.783   6.598  0.1225 -0.1854 -0.5320
  180SOPE    HX20517   2.183   5.701   6.592 -0.8437  0.5956  0.3010
  180SOPE    HY20518   2.216   5.882   6.570 -0.5267 -0.5843 -0.9785
  180SOPE   O3120519   2.283   5.794   6.737 -0.5728 -0.1714 -0.2366
  180SOPE   C3120520   2.187   5.830   6.820  0.4176  0.7180 -0.6151
  180SOPE   O3220521   2.071   5.859   6.792 -0.3394 -0.5514  0.0138
  180SOPE   C3220522   2.250   5.833   6.958 -0.5231 -0.3210 -0.3525
  180SOPE   H2X20523   2.331   5.910   6.954 -0.8900  0.0391 -1.4111
  180SOPE   H2Y20524   2.302   5.737   6.974  0.2529  0.2433  0.6177
  180SOPE   C2320525   2.707   5.518   6.782  0.0354 -0.2417 -0.2083
  180SOPE   H3R20526   2.723   5.625   6.808 -0.2736 -0.3942  0.6473
  180SOPE   H3S20527   2.813   5.489   6.765 -0.7291 -1.5740 -3.2617
  180SOPE   C2420528   2.657   5.440   6.907 -0.1555 -0.0306  0.0605
  180SOPE   H4R20529   2.574   5.493   6.959 -0.3239 -0.1301 -0.1070
  180SOPE   H4S20530   2.631   5.338   6.871  0.4394 -0.2085  0.1195
  180SOPE   C2520531   2.769   5.426   7.010  0.1516  0.1705  0.2231
  180SOPE   H5R20532   2.864   5.406   6.955 -0.3578 -1.7603 -0.0422
  180SOPE   H5S20533   2.791   5.530   7.040  0.5854  0.5294 -1.2331
  180SOPE   C2620534   2.740   5.329   7.122  0.6123  0.2281  0.0279
  180SOPE   H6R20535   2.652   5.377   7.168 -0.0203  0.0782 -0.9794
  180SOPE   H6S20536   2.706   5.226   7.096 -0.7225  0.5094  0.5845
  180SOPE   C2720537   2.863   5.323   7.208 -0.7442  0.1558 -0.3809
  180SOPE   H7R20538   2.949   5.288   7.146  1.4067  1.4423  1.6814
  180SOPE   H7S20539   2.884   5.428   7.239 -0.2056 -0.4302  1.3539
  180SOPE   C2820540   2.842   5.234   7.326 -0.5594  0.5313 -0.1135
  180SOPE   H8R20541   2.833   5.126   7.302  1.3410  0.4067 -0.4102
  180SOPE   H8S20542   2.935   5.244   7.385  0.7098  2.2680 -2.2561
  180SOPE   C2920543   2.726   5.272   7.411  0.1564  0.7580 -0.0792
  180SOPE   H9120544   2.688   5.374   7.397  0.1791  0.6294 -1.2540
  180SOPE  C21020545   2.651   5.188   7.480  0.7159  0.2708 -0.2854
  180SOPE  H10120546   2.570   5.235   7.538  1.6293  0.8574  0.5613
  180SOPE  C21120547   2.658   5.040   7.496 -0.1978  0.1857 -0.0011
  180SOPE  H11R20548   2.755   5.012   7.448 -0.0979  1.7052 -0.7676
  180SOPE  H11S20549   2.581   4.990   7.434  0.0849 -2.0550  1.3808
  180SOPE  C21220550   2.650   4.986   7.638 -0.0130  0.0543  0.5288
  180SOPE  H12R20551   2.697   4.887   7.625  1.1823  0.9093 -2.2380
  180SOPE  H12S20552   2.539   4.982   7.650 -0.2992  0.2851 -1.6756
  180SOPE  C21320553   2.714   5.059   7.755 -0.0354 -0.3966  0.0178
  180SOPE  H13R20554   2.674   5.163   7.763 -2.1535 -0.7938 -3.4464
  180SOPE  H13S20555   2.824   5.067   7.741 -0.2105 -0.5563 -1.7369
  180SOPE  C21420556   2.685   4.989   7.888  0.1520 -0.2967  0.0961
  180SOPE  H14R20557   2.766   4.916   7.905  1.7744  1.7288  1.6136
  180SOPE  H14S20558   2.587   4.940   7.875  0.7366 -1.6826  0.7784
  180SOPE  C21520559   2.693   5.082   8.010 -0.3437  0.0249 -0.4783
  180SOPE  H15R20560   2.624   5.165   7.985  1.4173  1.4552 -0.7564
  180SOPE  H15S20561   2.801   5.110   8.011  0.4897 -2.7583  0.5966
  180SOPE  C21620562   2.657   5.018   8.144 -0.3470  0.4154  0.6007
  180SOPE  H16R20563   2.740   4.947   8.168  0.4336  0.5073 -1.5856
  180SOPE  H16S20564   2.561   4.963   8.134  0.8537 -1.6702 -0.2734
  180SOPE  C21720565   2.646   5.122   8.251 -0.4268 -0.7921  0.1435
  180SOPE  H17R20566   2.550   5.174   8.231 -0.3462 -1.3395 -1.8782
  180SOPE  H17S20567   2.730   5.194   8.257  0.1625 -0.6460 -5.1911
  180SOPE  C21820568   2.630   5.041   8.381 -0.5052 -0.2379  0.1765
  180SOPE  H18R20569   2.542   4.975   8.374  1.1105 -2.2910 -3.1528
  180SOPE  H18S20570   2.617   5.116   8.462 -0.2338 -1.7074  1.6380
  180SOPE  H18T20571   2.726   4.986   8.392  2.1734  3.4207 -2.2340
  180SOPE   C3320572   2.157   5.867   7.076 -0.1271 -0.9604 -0.8023
  180SOPE   H3X20573   2.069   5.799   7.082 -0.4449 -0.4575  0.7692
  180SOPE   H3Y20574   2.124   5.972   7.059  2.3435 -0.2017 -1.2566
  180SOPE   C3420575   2.225   5.854   7.210  0.2460  0.1815  0.1537
  180SOPE   H4X20576   2.324   5.903   7.210  0.7322 -0.6759  2.4459
  180SOPE   H4Y20577   2.234   5.744   7.227  1.2051  0.0962 -0.7983
  180SOPE   C3520578   2.155   5.927   7.334 -0.0992 -0.3442 -0.4377
  180SOPE   H5X20579   2.057   5.875   7.346 -0.9505  1.0677 -0.8988
  180SOPE   H5Y20580   2.135   6.036   7.325  1.0926 -0.1336 -0.6900
  180SOPE   C3620581   2.239   5.914   7.472 -0.2924  0.4429  0.3974
  180SOPE   H6X20582   2.338   5.963   7.475 -0.5630  1.1838 -1.4900
  180SOPE   H6Y20583   2.243   5.803   7.482 -0.5049  0.2359 -1.3949
  180SOPE   C3720584   2.178   5.986   7.591  0.2767  0.4709 -0.0501
  180SOPE   H7X20585   2.133   6.081   7.557  1.5402  2.0607  2.3943
  180SOPE   H7Y20586   2.246   6.016   7.673 -0.2955  2.5396 -0.2842
  180SOPE   C3820587   2.070   5.903   7.657 -0.1568 -0.0289  0.0196
  180SOPE   H8X20588   2.126   5.817   7.699  0.5097  0.2923 -0.1859
  180SOPE   H8Y20589   1.995   5.866   7.584  0.3365  0.9857 -1.0497
  180SOPE   C3920590   2.006   5.967   7.777 -0.2512 -0.3513 -0.3681
  180SOPE   H9X20591   1.900   5.933   7.786 -0.0396 -0.7912  0.5695
  180SOPE   H9Y20592   2.004   6.077   7.763 -2.1295 -0.4227 -1.0490
  180SOPE  C31020593   2.065   5.900   7.900 -0.2545 -0.6625  0.6354
  180SOPE  H10X20594   2.176   5.899   7.900 -0.1759  1.5716  1.1700
  180SOPE  H10Y20595   2.027   5.796   7.896 -0.3903 -0.5794 -0.9401
  180SOPE  C31120596   2.019   5.959   8.035  0.0465  0.3806 -0.9035
  180SOPE  H11X20597   1.909   5.942   8.029 -0.3035  1.4863  1.0888
  180SOPE  H11Y20598   2.028   6.070   8.042 -0.3789  0.3321  1.0678
  180SOPE  C31220599   2.069   5.881   8.164  0.5019  0.6710  0.0144
  180SOPE  H12X20600   2.178   5.902   8.175  0.4543  0.6693  0.5354
  180SOPE  H12Y20601   2.050   5.772   8.151 -0.7691  1.0655 -1.7557
  180SOPE  C31320602   1.989   5.926   8.293  0.4489  0.3891 -0.5064
  180SOPE  H13X20603   1.887   5.890   8.269  1.2479 -1.6193 -1.1051
  180SOPE  H13Y20604   1.983   6.037   8.303 -4.0786  0.2359  0.4837
  180SOPE  C31420605   2.034   5.871   8.429 -0.4642 -0.3346 -0.2133
  180SOPE  H14X20606   2.034   5.760   8.434  0.6660 -0.3858 -0.8348
  180SOPE  H14Y20607   1.974   5.914   8.511  0.7683  0.6225  0.2277
  180SOPE  C31520608   2.180   5.914   8.448 -0.0178 -0.2867  0.7260
  180SOPE  H15X20609   2.194   6.024   8.446  3.6877 -0.6255  1.2543
  180SOPE  H15Y20610   2.245   5.871   8.369 -0.8100  1.3179 -0.8701
  180SOPE  C31620611   2.230   5.870   8.587 -0.9852  0.0216  0.0237
  180SOPE  H16X20612   2.166   5.789   8.627 -1.5813  1.1608  1.4977
  180SOPE  H16Y20613   2.226   5.959   8.653  0.1555 -0.5979  0.9750
  180SOPE  C31720614   2.372   5.824   8.583 -0.2759 -0.4598 -0.3896
  180SOPE  H17X20615   2.435   5.901   8.533  0.7814 -0.5460  0.7677
  180SOPE  H17Y20616   2.392   5.727   8.532  0.1673 -1.0046  0.7835
  180SOPE  C31820617   2.424   5.799   8.731  0.4464  0.2333  0.0819
  180SOPE  H18X20618   2.401   5.887   8.796 -0.8691 -1.4437  2.0142
  180SOPE  H18Y20619   2.530   5.767   8.738  0.4981  0.5090  0.6517
  180SOPE  H18Z20620   2.354   5.727   8.778  0.4215  1.5311  2.1751
  181SOPE     N20621   2.758   5.770   6.299 -0.0486  0.4833 -0.0464
  181SOPE   HN120622   2.687   5.778   6.224 -0.9943  0.3834  0.8038
  181SOPE   HN220623   2.817   5.690   6.267  0.3078  1.6576 -2.5346
  181SOPE   HN320624   2.715   5.751   6.392  0.7510  0.9351  0.4206
  181SOPE   C1220625   2.843   5.896   6.299 -0.4782  0.2834  0.2944
  181SOPE  H12A20626   2.889   5.912   6.199 -1.1281 -1.2337 -0.2798
  181SOPE  H12B20627   2.927   5.879   6.369 -1.3233  2.5701  2.0011
  181SOPE   C1120628   2.760   6.022   6.339 -0.1300 -0.5825  0.6226
  181SOPE  H11A20629   2.828   6.108   6.354 -1.9524  0.9804  0.3145
  181SOPE  H11B20630   2.711   6.010   6.438 -0.7346 -0.2766  0.3661
  181SOPE     P20631   2.603   6.185   6.201 -0.0350  0.1193  0.3990
  181SOPE   O1320632   2.466   6.170   6.157  0.1046  0.3027 -0.2020
  181SOPE   O1420633   2.690   6.259   6.106  0.4523 -0.2697  0.4049
  181SOPE   O1220634   2.663   6.048   6.237 -0.4151 -0.2674 -0.6128
  181SOPE   O1120635   2.607   6.263   6.332  0.2920  0.2547 -0.8438
  181SOPE    C120636   2.510   6.237   6.435  0.4829 -0.9965 -0.2666
  181SOPE    HA20637   2.556   6.215   6.534  2.2985 -2.3008 -1.3425
  181SOPE    HB20638   2.437   6.156   6.417 -1.6641  0.7023  0.3125
  181SOPE    C220639   2.412   6.357   6.451 -0.0862  0.1486 -0.2601
  181SOPE    HS20640   2.391   6.403   6.352  0.9634  2.8677  0.6984
  181SOPE   O2120641   2.465   6.453   6.544 -0.6987 -0.3713 -0.1561
  181SOPE   C2120642   2.467   6.579   6.505  0.0241 -0.1688 -0.0412
  181SOPE   O2220643   2.424   6.619   6.398 -0.4482 -0.4654  0.2132
  181SOPE   C2220644   2.531   6.678   6.602  0.1119  0.4963 -0.3500
  181SOPE   H2R20645   2.636   6.681   6.566  1.4573  1.0445  3.2479
  181SOPE   H2S20646   2.533   6.633   6.703 -1.6214 -0.1539 -0.5678
  181SOPE    C320647   2.274   6.314   6.511 -0.0746  0.3357 -0.2503
  181SOPE    HX20648   2.221   6.251   6.437 -0.2424  0.8559 -0.5855
  181SOPE    HY20649   2.201   6.397   6.518 -2.0263 -1.4650  2.3487
  181SOPE   O3120650   2.287   6.229   6.634  0.1525 -0.1812  0.0704
  181SOPE   C3120651   2.296   6.305   6.739 -0.3681  0.0750 -0.8071
  181SOPE   O3220652   2.260   6.418   6.758  0.2796 -0.5709 -0.4496
  181SOPE   C3220653   2.336   6.208   6.847  0.0436 -0.4233 -0.1430
  181SOPE   H2X20654   2.406   6.133   6.804  2.9539  1.0194  1.7547
  181SOPE   H2Y20655   2.240   6.162   6.881 -0.1360 -0.4712 -0.7072
  181SOPE   C2320656   2.475   6.826   6.590 -0.0933  0.5412  0.2035
  181SOPE   H3R20657   2.475   6.861   6.484  0.1999  2.8676  0.9305
  181SOPE   H3S20658   2.561   6.880   6.634  0.5006  0.5869 -0.9791
  181SOPE   C2420659   2.338   6.848   6.663 -0.3806 -0.2762  0.4702
  181SOPE   H4R20660   2.309   6.954   6.677 -0.4396 -0.4362  1.6228
  181SOPE   H4S20661   2.264   6.788   6.605 -1.5030 -0.6604  2.2500
  181SOPE   C2520662   2.331   6.782   6.800 -0.0205  0.6499  0.2013
  181SOPE   H5R20663   2.239   6.815   6.853  0.0568  1.5341 -0.2078
  181SOPE   H5S20664   2.328   6.671   6.788  0.9816  0.5503  0.8300
  181SOPE   C2620665   2.445   6.828   6.907 -0.3357  0.4735  0.6199
  181SOPE   H6R20666   2.546   6.800   6.871 -0.3738 -0.4559  1.1882
  181SOPE   H6S20667   2.441   6.937   6.926 -0.3012  0.6905 -0.5646
  181SOPE   C2720668   2.431   6.753   7.045 -0.2935  0.0408  0.0854
  181SOPE   H7R20669   2.376   6.658   7.029  1.5424 -1.1765  0.6357
  181SOPE   H7S20670   2.535   6.715   7.060 -0.1620  0.3836  0.0604
  181SOPE   C2820671   2.387   6.841   7.167  0.1172  0.1382  0.0663
  181SOPE   H8R20672   2.451   6.931   7.175 -1.1884  1.1327 -0.3305
  181SOPE   H8S20673   2.285   6.878   7.146 -0.1368 -1.0429 -0.8807
  181SOPE   C2920674   2.394   6.753   7.289  0.7313 -0.1032 -0.2809
  181SOPE   H9120675   2.446   6.656   7.285  0.1666 -0.4465  0.5824
  181SOPE  C21020676   2.339   6.792   7.409 -0.2344  0.5856  0.0585
  181SOPE  H10120677   2.346   6.717   7.489 -1.4252 -0.1672 -0.5277
  181SOPE  C21120678   2.269   6.925   7.431 -0.5923  0.7517 -0.2806
  181SOPE  H11R20679   2.163   6.919   7.398  0.1294  0.1363 -2.6645
  181SOPE  H11S20680   2.315   6.994   7.357  0.4713 -0.2889 -0.6125
  181SOPE  C21220681   2.309   6.990   7.564 -0.3365 -0.2664  0.6472
  181SOPE  H12R20682   2.277   7.095   7.546  2.2670  0.4141 -0.4961
  181SOPE  H12S20683   2.417   6.985   7.592 -0.1335 -1.2561 -0.2428
  181SOPE  C21320684   2.231   6.936   7.679 -0.3848  0.7295 -0.2124
  181SOPE  H13R20685   2.244   6.827   7.695 -4.3043  0.0765 -0.3757
  181SOPE  H13S20686   2.126   6.943   7.643 -1.2929 -2.6501  1.3008
  181SOPE  C21420687   2.260   7.017   7.802 -0.1697  0.1977 -0.1334
  181SOPE  H14R20688   2.228   7.120   7.773 -0.6768  0.2973  0.7397
  181SOPE  H14S20689   2.368   7.020   7.827 -0.3917 -0.4258  0.9705
  181SOPE  C21520690   2.187   6.959   7.922  0.3324  0.5329  0.2157
  181SOPE  H15R20691   2.249   6.871   7.949  1.8648  1.1326 -1.2079
  181SOPE  H15S20692   2.079   6.950   7.895  0.0547  0.3736  1.3344
  181SOPE  C21620693   2.185   7.042   8.051 -0.7140 -0.7001  0.7279
  181SOPE  H16R20694   2.127   7.136   8.041  1.3095  0.3777 -2.1541
  181SOPE  H16S20695   2.287   7.083   8.060 -0.9016 -0.2617  0.8687
  181SOPE  C21720696   2.142   6.958   8.169 -0.2325 -0.0961  0.2634
  181SOPE  H17R20697   2.223   6.886   8.192  0.5073  0.8546  0.6813
  181SOPE  H17S20698   2.052   6.896   8.149 -1.7826  1.8369  0.9251
  181SOPE  C21820699   2.108   7.045   8.291  0.6638 -0.4733  0.2900
  181SOPE  H18R20700   2.040   7.127   8.262  1.7298 -0.2846 -1.8800
  181SOPE  H18S20701   2.195   7.101   8.333 -0.0725  0.5730  0.4286
  181SOPE  H18T20702   2.059   6.996   8.378 -0.2777 -0.0405  0.0142
  181SOPE   C3320703   2.403   6.284   6.960  0.2266 -0.6023 -0.2721
  181SOPE   H3X20704   2.353   6.379   6.990  1.6341  0.1492 -0.2464
  181SOPE   H3Y20705   2.499   6.320   6.916  0.3239 -0.4104  0.0922
  181SOPE   C3420706   2.422   6.213   7.095  0.0264 -0.2650  0.0802
  181SOPE   H4X20707   2.493   6.127   7.093  2.0043  1.3033  0.4686
  181SOPE   H4Y20708   2.323   6.172   7.124 -0.2407  0.9960  1.0495
  181SOPE   C3520709   2.477   6.306   7.203  0.0118 -0.2389 -0.1938
  181SOPE   H5X20710   2.425   6.404   7.199  0.7765  0.1444 -1.5776
  181SOPE   H5Y20711   2.579   6.331   7.167  0.0375 -0.6581 -0.4227
  181SOPE   C3620712   2.483   6.236   7.336  0.7921  0.1264 -0.4407
  181SOPE   H6X20713   2.534   6.138   7.328 -0.7730 -0.7537 -0.0109
  181SOPE   H6Y20714   2.377   6.204   7.344  0.6733  0.4089 -0.8391
  181SOPE   C3720715   2.508   6.330   7.459 -0.1274  0.2091 -0.0144
  181SOPE   H7X20716   2.423   6.399   7.443  0.1287  0.2587 -1.2267
  181SOPE   H7Y20717   2.608   6.378   7.450  0.3305 -0.4867  1.0333
  181SOPE   C3820718   2.496   6.251   7.589  0.4014  0.0876  0.1648
  181SOPE   H8X20719   2.574   6.172   7.594  0.5253  0.1136 -1.1546
  181SOPE   H8Y20720   2.398   6.200   7.598  0.0832  0.9343  1.8947
  181SOPE   C3920721   2.516   6.332   7.712  0.0321  0.3255  0.0645
  181SOPE   H9X20722   2.439   6.413   7.715 -0.1598  0.1505 -0.1385
  181SOPE   H9Y20723   2.619   6.369   7.732  0.5228 -0.6162 -0.6389
  181SOPE  C31020724   2.478   6.245   7.837  0.7811  0.1663 -0.2744
  181SOPE  H10X20725   2.367   6.245   7.847  0.9509 -1.4478  3.1612
  181SOPE  H10Y20726   2.529   6.298   7.920 -1.3127 -1.8681  2.5270
  181SOPE  C31120727   2.521   6.105   7.838 -0.8674  0.5419  0.1432
  181SOPE  H11X20728   2.627   6.083   7.816 -0.3946  1.0220  1.7982
  181SOPE  H11Y20729   2.483   6.043   7.754  0.3761 -1.0509  0.7089
  181SOPE  C31220730   2.485   6.049   7.973  0.6121 -0.2354  0.2148
  181SOPE  H12X20731   2.376   6.062   7.992 -0.2000 -2.7835 -1.8968
  181SOPE  H12Y20732   2.533   6.105   8.056  1.8331 -1.5885  0.4591
  181SOPE  C31320733   2.520   5.903   7.995 -0.0992 -1.2194  0.0972
  181SOPE  H13X20734   2.625   5.900   7.958 -0.4495 -1.0046 -0.9516
  181SOPE  H13Y20735   2.450   5.835   7.941 -1.3739  0.0751  0.0784
  181SOPE  C31420736   2.524   5.867   8.147  0.1051 -0.1432  0.5043
  181SOPE  H14X20737   2.416   5.875   8.172 -0.0627  0.7830 -0.4406
  181SOPE  H14Y20738   2.569   5.937   8.220 -1.3765 -0.6769  2.0136
  181SOPE  C31520739   2.574   5.724   8.166 -0.0786 -0.4297  0.1827
  181SOPE  H15X20740   2.678   5.705   8.130  0.0459  0.1643  0.2116
  181SOPE  H15Y20741   2.505   5.659   8.109 -0.9343 -0.3149  1.0589
  181SOPE  C31620742   2.568   5.679   8.313  0.5100  0.2169  0.2208
  181SOPE  H16X20743   2.462   5.655   8.335 -0.2399  1.7172 -1.4527
  181SOPE  H16Y20744   2.582   5.772   8.372  2.9133  0.9422 -1.3314
  181SOPE  C31720745   2.672   5.571   8.352  0.4469 -0.1050 -0.1583
  181SOPE  H17X20746   2.776   5.610   8.348  1.0260 -1.2688  1.9500
  181SOPE  H17Y20747   2.670   5.487   8.279  0.7936 -0.4778  0.2566
  181SOPE  C31820748   2.655   5.513   8.491  0.2971  0.4827 -0.4057
  181SOPE  H18X20749   2.635   5.592   8.567 -0.9989  0.6867 -0.9334
  181SOPE  H18Y20750   2.738   5.440   8.500  0.0819  0.2336 -0.4404
  181SOPE  H18Z20751   2.562   5.454   8.502  0.9529 -0.5341 -0.2110
  182SOPE     N20752   2.465   2.742   6.288 -0.3417 -0.4744 -0.5089
  182SOPE   HN120753   2.410   2.830   6.285 -0.2381 -0.2929  1.4985
  182SOPE   HN220754   2.429   2.686   6.368  2.1493 -1.8725 -0.2414
  182SOPE   HN320755   2.566   2.766   6.289 -0.6555  1.0388 -1.7185
  182SOPE   C1220756   2.439   2.658   6.170 -0.7821  0.4042  1.0449
  182SOPE  H12A20757   2.504   2.689   6.085 -2.8398 -0.7825 -1.0583
  182SOPE  H12B20758   2.333   2.651   6.137  0.0354 -2.6339 -1.4210
  182SOPE   C1120759   2.480   2.514   6.210  0.7417 -0.6367  0.6324
  182SOPE  H11A20760   2.586   2.511   6.246  1.6469  0.6362 -1.7418
  182SOPE  H11B20761   2.474   2.454   6.117 -0.0683 -1.1285  0.9910
  182SOPE     P20762   2.369   2.303   6.320 -0.6072 -0.1124 -0.9053
  182SOPE   O1320763   2.319   2.243   6.191 -0.3191 -0.6923 -0.6952
  182SOPE   O1420764   2.298   2.279   6.452  0.8515 -0.0559  0.3410
  182SOPE   O1220765   2.383   2.457   6.296 -0.0087 -0.3430 -0.2825
  182SOPE   O1120766   2.514   2.252   6.344 -0.6073 -0.1737  0.0125
  182SOPE    C120767   2.600   2.301   6.451  0.3546 -0.2114  0.0010
  182SOPE    HA20768   2.602   2.411   6.467  0.3000 -0.4971  2.3860
  182SOPE    HB20769   2.708   2.279   6.435  0.2854 -1.3110  0.9213
  182SOPE    C220770   2.559   2.258   6.594 -0.3619  0.5626 -0.0301
  182SOPE    HS20771   2.453   2.278   6.624 -0.2047 -1.1066  1.8912
  182SOPE   O2120772   2.640   2.318   6.696  0.3484 -0.0816 -0.3572
  182SOPE   C2120773   2.607   2.433   6.729 -0.4706 -0.0533  0.4400
  182SOPE   O2220774   2.499   2.483   6.705  0.5381 -0.9508 -0.3340
  182SOPE   C2220775   2.735   2.493   6.795  0.3896  0.1448  0.1774
  182SOPE   H2R20776   2.722   2.603   6.788  0.8213  0.1821 -0.0797
  182SOPE   H2S20777   2.820   2.472   6.726 -0.5851 -1.6506 -0.5531
  182SOPE    C320778   2.554   2.106   6.610 -0.2696 -0.8377  0.1622
  182SOPE    HX20779   2.659   2.071   6.606  0.5923  1.6801 -1.2924
  182SOPE    HY20780   2.495   2.078   6.520 -1.8430 -0.3856  1.0071
  182SOPE   O3120781   2.476   2.067   6.735  0.4885  0.1212  0.0840
  182SOPE   C3120782   2.470   1.939   6.744  0.1468  0.9084 -0.6589
  182SOPE   O3220783   2.516   1.858   6.660 -0.1672  0.0843 -0.0538
  182SOPE   C3220784   2.382   1.892   6.858 -0.3356 -0.3769  0.0812
  182SOPE   H2X20785   2.350   1.794   6.817 -1.7293  0.1675 -0.1985
  182SOPE   H2Y20786   2.292   1.958   6.859 -0.6360 -0.6919 -2.0981
  182SOPE   C2320787   2.779   2.426   6.933 -0.3179 -0.1290  0.1426
  182SOPE   H3R20788   2.689   2.410   6.995  1.5194  0.4738  3.1839
  182SOPE   H3S20789   2.845   2.505   6.975 -0.3709  0.8411 -1.4965
  182SOPE   C2420790   2.867   2.299   6.927  0.2410 -0.0386  0.4958
  182SOPE   H4R20791   2.817   2.217   6.872  3.2405 -0.9709 -1.1142
  182SOPE   H4S20792   2.948   2.322   6.854 -1.1981 -2.1187 -1.9126
  182SOPE   C2520793   2.933   2.253   7.059 -0.6905  0.0859  0.0145
  182SOPE   H5R20794   3.004   2.172   7.033 -0.8184  0.1308 -0.4784
  182SOPE   H5S20795   2.987   2.337   7.108  1.2744 -0.0899 -1.7211
  182SOPE   C2620796   2.836   2.196   7.155 -0.0142  0.3315  0.0319
  182SOPE   H6R20797   2.763   2.273   7.189  0.7791  0.4025  1.7093
  182SOPE   H6S20798   2.781   2.112   7.108  0.5655 -0.2580  0.3957
  182SOPE   C2720799   2.911   2.122   7.273 -0.1773 -0.3720 -0.1839
  182SOPE   H7R20800   3.000   2.069   7.233  2.5580  1.3283  3.0967
  182SOPE   H7S20801   2.952   2.201   7.340  0.7305 -0.2791 -0.8411
  182SOPE   C2820802   2.832   2.026   7.367  0.0338 -0.0509  0.1165
  182SOPE   H8R20803   2.795   1.939   7.310  2.3237 -1.0010 -0.0359
  182SOPE   H8S20804   2.905   1.989   7.442  0.0076  1.2070  0.7914
  182SOPE   C2920805   2.713   2.082   7.432  0.0414  0.4535  0.0940
  182SOPE   H9120806   2.665   2.163   7.375 -0.3823 -0.7785 -1.3561
  182SOPE  C21020807   2.666   2.052   7.553 -0.0263  0.0531 -0.7253
  182SOPE  H10120808   2.585   2.117   7.590  1.5678  1.7100 -0.0042
  182SOPE  C21120809   2.713   1.958   7.662  0.1814 -0.8292 -0.1423
  182SOPE  H11R20810   2.813   1.915   7.642 -0.0351 -0.9560 -0.9818
  182SOPE  H11S20811   2.639   1.878   7.680 -0.7774  0.1843  0.5678
  182SOPE  C21220812   2.724   2.030   7.797  0.2315 -0.7049 -0.6956
  182SOPE  H12R20813   2.643   2.099   7.831  2.0031 -0.1589  2.8982
  182SOPE  H12S20814   2.815   2.092   7.785 -0.0907 -0.1889 -0.5085
  182SOPE  C21320815   2.754   1.934   7.917 -0.1743  0.3207  0.8748
  182SOPE  H13R20816   2.848   1.877   7.900 -0.3093  1.0839 -3.7640
  182SOPE  H13S20817   2.659   1.879   7.936 -0.2722 -0.2184 -0.9738
  182SOPE  C21420818   2.771   2.006   8.048  0.2990 -0.7307 -0.3734
  182SOPE  H14R20819   2.673   2.049   8.078  1.0148  1.7353 -1.2914
  182SOPE  H14S20820   2.836   2.093   8.022 -0.0365  0.0985  1.3519
  182SOPE  C21520821   2.823   1.914   8.150 -0.5745  0.0372  0.1009
  182SOPE  H15R20822   2.917   1.867   8.116  0.3115  0.5462  1.7388
  182SOPE  H15S20823   2.741   1.840   8.160 -0.6429  0.1035  0.0326
  182SOPE  C21620824   2.832   1.986   8.284  0.2335  0.2428 -0.0399
  182SOPE  H16R20825   2.741   2.033   8.329 -0.0976  0.2605 -0.7168
  182SOPE  H16S20826   2.909   2.066   8.284 -2.3836  3.0088  2.1546
  182SOPE  C21720827   2.873   1.891   8.399 -0.2788 -0.6952 -0.7824
  182SOPE  H17R20828   2.966   1.838   8.371  0.6929 -0.1269  1.2108
  182SOPE  H17S20829   2.789   1.818   8.396 -2.6018  1.7652  0.3769
  182SOPE  C21820830   2.894   1.950   8.536  0.2608 -0.7244  0.4153
  182SOPE  H18R20831   2.894   1.876   8.619  0.7184  0.3192  1.3736
  182SOPE  H18S20832   2.819   2.028   8.558  0.5043 -0.2484 -0.4110
  182SOPE  H18T20833   2.997   1.994   8.536 -0.1500  0.2670 -0.5564
  182SOPE   C3320834   2.453   1.877   6.999 -0.6425  0.3976  0.6912
  182SOPE   H3X20835   2.536   1.951   7.004 -0.9715  0.7286  1.4241
  182SOPE   H3Y20836   2.497   1.775   6.998 -0.7692  0.3249  1.7799
  182SOPE   C3420837   2.362   1.882   7.119  0.4548 -0.1257 -0.0161
  182SOPE   H4X20838   2.295   1.794   7.105 -0.8903  0.9632 -0.6274
  182SOPE   H4Y20839   2.295   1.970   7.114  2.4840  1.5177  0.1962
  182SOPE   C3520840   2.424   1.868   7.260  0.4706  0.2579  0.1659
  182SOPE   H5X20841   2.457   1.965   7.303  0.4185 -0.6583  2.4196
  182SOPE   H5Y20842   2.510   1.797   7.262  1.5624  1.5204 -0.0649
  182SOPE   C3620843   2.318   1.818   7.364 -0.6843 -0.3963  0.4699
  182SOPE   H6X20844   2.287   1.718   7.328  0.3572 -1.0363  1.2727
  182SOPE   H6Y20845   2.238   1.894   7.376  0.0796  0.4926  0.0776
  182SOPE   C3720846   2.393   1.802   7.498  0.1591  0.3752  0.2410
  182SOPE   H7X20847   2.426   1.900   7.540  0.4303  0.2442  0.3322
  182SOPE   H7Y20848   2.479   1.736   7.479 -1.1066 -1.4848  0.6720
  182SOPE   C3820849   2.297   1.751   7.600 -0.5373  0.3839 -0.7532
  182SOPE   H8X20850   2.257   1.656   7.559  2.4989 -1.4356  0.1742
  182SOPE   H8Y20851   2.213   1.824   7.602 -0.5036  0.4079  0.1710
  182SOPE   C3920852   2.367   1.726   7.730 -0.9319 -0.3546 -0.4239
  182SOPE   H9X20853   2.381   1.821   7.787  1.9353 -2.5464  2.9308
  182SOPE   H9Y20854   2.474   1.705   7.710 -1.0271  0.6349 -2.2587
  182SOPE  C31020855   2.313   1.624   7.831  0.7040  0.0148 -0.1836
  182SOPE  H10X20856   2.341   1.524   7.793  0.2860  0.4610 -1.7515
  182SOPE  H10Y20857   2.205   1.646   7.840  0.5181  0.9657 -3.3801
  182SOPE  C31120858   2.377   1.641   7.970 -0.4890 -0.5565 -0.0188
  182SOPE  H11X20859   2.403   1.745   7.999  0.0458 -1.2834  2.3185
  182SOPE  H11Y20860   2.475   1.589   7.958  0.4712  1.3581 -0.9890
  182SOPE  C31220861   2.293   1.578   8.084 -0.2109  0.5950  0.3557
  182SOPE  H12X20862   2.258   1.486   8.032 -1.9890  2.3039 -1.6536
  182SOPE  H12Y20863   2.207   1.642   8.112 -1.2579  0.2695 -1.8637
  182SOPE  C31320864   2.376   1.546   8.211  0.2101 -0.4643  0.3924
  182SOPE  H13X20865   2.396   1.637   8.273  0.0700 -0.7889  0.9156
  182SOPE  H13Y20866   2.474   1.509   8.173  0.2039  0.3058 -0.4238
  182SOPE  C31420867   2.314   1.417   8.270  0.2426  0.6172 -1.2209
  182SOPE  H14X20868   2.326   1.325   8.210  0.6183 -1.1106  1.3338
  182SOPE  H14Y20869   2.204   1.430   8.284  0.2391 -0.2126 -0.3474
  182SOPE  C31520870   2.373   1.381   8.403 -0.6283 -0.1190 -0.5611
  182SOPE  H15X20871   2.389   1.480   8.452  2.2536 -0.6804 -0.2181
  182SOPE  H15Y20872   2.474   1.336   8.393 -0.6273 -0.7231  1.5495
  182SOPE  C31620873   2.287   1.301   8.510  0.1637 -0.4478 -0.4376
  182SOPE  H16X20874   2.348   1.284   8.601 -2.0029  2.6128  1.7491
  182SOPE  H16Y20875   2.258   1.198   8.480 -1.5780 -0.3058  0.6374
  182SOPE  C31720876   2.162   1.376   8.557  0.1504  0.5847 -0.2243
  182SOPE  H17X20877   2.088   1.385   8.474  1.1561 -0.9526 -1.3425
  182SOPE  H17Y20878   2.187   1.484   8.556 -3.2162  1.5063  0.8359
  182SOPE  C31820879   2.109   1.329   8.698  0.1204  0.3391 -0.5536
  182SOPE  H18X20880   2.015   1.384   8.717  0.3577 -0.0839  2.1872
  182SOPE  H18Y20881   2.184   1.373   8.768  0.8444 -0.3618 -0.8692
  182SOPE  H18Z20882   2.102   1.219   8.704  1.8904 -0.0515 -3.5592
  183SOPE     N20883   4.826   5.003   6.452 -0.3230 -0.7130 -0.1955
  183SOPE   HN120884   4.728   5.019   6.422 -0.6678 -0.7826  0.8520
  183SOPE   HN220885   4.852   4.931   6.522  0.8910  0.2670  0.4034
  183SOPE   HN320886   4.864   5.098   6.474 -2.2840  0.0165  0.2968
  183SOPE   C1220887   4.884   4.962   6.322  0.7282 -0.4529 -0.1179
  183SOPE  H12A20888   4.844   5.021   6.236  3.1450  2.5205  0.6374
  183SOPE  H12B20889   4.873   4.852   6.313 -1.2558 -0.5786  2.5370
  183SOPE   C1120890   5.034   4.992   6.328  0.3100  0.2786 -0.6510
  183SOPE  H11A20891   5.082   4.947   6.239  0.3814  0.8992 -0.9353
  183SOPE  H11B20892   5.065   4.926   6.412  1.0131  2.2266  0.7098
  183SOPE     P20893   5.211   5.175   6.355  0.2953 -0.1961 -0.1804
  183SOPE   O1320894   5.211   5.320   6.322 -0.1741 -0.2639 -0.2090
  183SOPE   O1420895   5.291   5.081   6.268 -0.0626  0.0206  0.1570
  183SOPE   O1220896   5.065   5.134   6.341 -0.0911 -0.7285 -0.3182
  183SOPE   O1120897   5.247   5.165   6.499 -0.3321 -0.0527  0.1468
  183SOPE    C120898   5.168   5.115   6.612 -0.2505 -0.7269  1.0026
  183SOPE    HA20899   5.176   5.004   6.612 -2.8275 -0.9652  0.0137
  183SOPE    HB20900   5.061   5.143   6.605 -0.1355 -0.6181 -0.8740
  183SOPE    C220901   5.209   5.185   6.739  1.2687 -0.8328 -0.0213
  183SOPE    HS20902   5.202   5.295   6.727  0.6192 -0.7347  1.0963
  183SOPE   O2120903   5.349   5.155   6.759  0.5901  0.1456  0.1313
  183SOPE   C2120904   5.418   5.253   6.825 -1.0856 -0.0895  0.1944
  183SOPE   O2220905   5.368   5.351   6.871 -0.1041 -0.2058 -0.5590
  183SOPE   C2220906   5.566   5.205   6.854  0.4029 -0.9375  0.8478
  183SOPE   H2R20907   5.628   5.199   6.762  0.2911  0.5353  0.6502
  183SOPE   H2S20908   5.559   5.097   6.879  3.3510 -0.7471  2.9939
  183SOPE    C320909   5.116   5.134   6.855 -0.4847  0.5294 -0.5077
  183SOPE    HX20910   5.120   5.025   6.875  1.2498  0.7158  0.2956
  183SOPE    HY20911   5.011   5.153   6.822 -0.2410  0.1079 -1.5626
  183SOPE   O3120912   5.133   5.211   6.975 -0.6832 -0.2106  0.0705
  183SOPE   C3120913   5.195   5.143   7.074 -0.0561  0.4639 -0.4044
  183SOPE   O3220914   5.241   5.028   7.064 -0.6487 -0.7063 -0.1663
  183SOPE   C3220915   5.189   5.222   7.209  0.2012  0.5505  0.7676
  183SOPE   H2X20916   5.096   5.283   7.206 -1.7265 -2.2382 -1.5224
  183SOPE   H2Y20917   5.284   5.279   7.215  0.2047  0.5437  0.7710
  183SOPE   C2320918   5.646   5.284   6.972  0.7853 -0.2931 -0.0833
  183SOPE   H3R20919   5.631   5.393   6.961  0.8150 -0.4537 -2.1346
  183SOPE   H3S20920   5.753   5.259   6.952  0.8799  0.4899 -0.6015
  183SOPE   C2420921   5.617   5.241   7.119 -0.2617  0.2620  0.0288
  183SOPE   H4R20922   5.530   5.298   7.156 -1.3974 -0.6412 -1.1566
  183SOPE   H4S20923   5.582   5.136   7.114 -0.5061  0.3309  0.2740
  183SOPE   C2520924   5.733   5.265   7.218 -0.0530 -0.1533 -0.2741
  183SOPE   H5R20925   5.817   5.192   7.212  0.5948  0.5643 -0.0369
  183SOPE   H5S20926   5.767   5.370   7.206 -1.4743  0.4233  0.4924
  183SOPE   C2620927   5.692   5.261   7.368 -0.1850  0.4487 -0.7103
  183SOPE   H6R20928   5.640   5.352   7.405 -0.3828  0.1360 -0.2214
  183SOPE   H6S20929   5.617   5.179   7.370  1.3651 -1.1482 -2.9311
  183SOPE   C2720930   5.810   5.243   7.460 -0.1794  0.1045  0.3599
  183SOPE   H7R20931   5.866   5.150   7.439  2.2871  1.6218 -0.0971
  183SOPE   H7S20932   5.875   5.330   7.438 -1.3162  1.0773  0.7104
  183SOPE   C2820933   5.774   5.252   7.609  0.5219 -0.5256  0.1485
  183SOPE   H8R20934   5.713   5.162   7.633  0.5875 -0.5369  0.2696
  183SOPE   H8S20935   5.866   5.231   7.667  1.5538  2.5171 -0.2199
  183SOPE   C2920936   5.720   5.378   7.666  0.5127 -0.0703 -0.4084
  183SOPE   H9120937   5.771   5.470   7.633  0.1098  0.3673  0.1729
  183SOPE  C21020938   5.619   5.394   7.760  0.6368  0.0897  0.8875
  183SOPE  H10120939   5.577   5.494   7.781 -0.8206 -0.2201 -0.4236
  183SOPE  C21120940   5.542   5.276   7.821 -0.4824  0.7938  0.0670
  183SOPE  H11R20941   5.539   5.188   7.753  0.9760 -0.0242  0.9950
  183SOPE  H11S20942   5.433   5.294   7.834 -0.5392 -0.0677  1.0004
  183SOPE  C21220943   5.626   5.225   7.943 -0.5712 -0.3081 -0.4625
  183SOPE  H12R20944   5.732   5.215   7.913 -1.1554 -2.9124 -2.0168
  183SOPE  H12S20945   5.597   5.122   7.973  2.5758 -1.2706 -0.3737
  183SOPE  C21320946   5.614   5.329   8.061  0.5788 -0.3779 -0.0923
  183SOPE  H13R20947   5.505   5.350   8.065  0.7891  0.6432  0.5741
  183SOPE  H13S20948   5.663   5.425   8.033  1.7768 -1.6259 -2.7416
  183SOPE  C21420949   5.663   5.275   8.198 -0.6218  0.5882 -0.4494
  183SOPE  H14R20950   5.759   5.220   8.185 -1.7239 -2.0900  1.7720
  183SOPE  H14S20951   5.596   5.198   8.240  0.4104  1.2549  2.7181
  183SOPE  C21520952   5.679   5.381   8.313 -0.1663  0.1767 -0.2473
  183SOPE  H15R20953   5.746   5.461   8.275 -0.7136  0.6106 -0.3092
  183SOPE  H15S20954   5.722   5.326   8.399 -1.2608 -1.4695 -0.7079
  183SOPE  C21620955   5.540   5.434   8.353 -0.0518 -0.0297 -0.3765
  183SOPE  H16R20956   5.491   5.341   8.387 -0.5620  0.8670  1.4566
  183SOPE  H16S20957   5.483   5.470   8.264  0.5479  1.4468 -0.2023
  183SOPE  C21720958   5.542   5.541   8.467  0.3920  0.5384  0.2319
  183SOPE  H17R20959   5.617   5.614   8.432 -2.9296  1.7317 -5.8285
  183SOPE  H17S20960   5.571   5.505   8.568 -1.2062  0.0612  0.5527
  183SOPE  C21820961   5.408   5.617   8.472 -0.1269 -0.1970  0.7597
  183SOPE  H18R20962   5.415   5.701   8.545  0.4422  1.2619 -0.9036
  183SOPE  H18S20963   5.326   5.551   8.508  0.6170  0.1771  3.3880
  183SOPE  H18T20964   5.386   5.658   8.371  1.7888  0.3317  0.5132
  183SOPE   C3320965   5.193   5.117   7.326  0.5956  0.0552  0.6109
  183SOPE   H3X20966   5.281   5.050   7.339 -0.3650 -1.1163  1.3713
  183SOPE   H3Y20967   5.109   5.048   7.302 -1.3233  2.6905 -0.7927
  183SOPE   C3420968   5.170   5.178   7.465 -0.2542 -0.1432  0.5545
  183SOPE   H4X20969   5.080   5.243   7.473 -0.3692  0.2118 -2.4662
  183SOPE   H4Y20970   5.248   5.250   7.496 -1.4640  0.4825  2.3080
  183SOPE   C3520971   5.150   5.069   7.574  0.5532 -0.5498 -0.4647
  183SOPE   H5X20972   5.232   4.993   7.579  2.5797  1.5691  2.4342
  183SOPE   H5Y20973   5.062   5.011   7.542  0.3454 -0.2099 -0.5158
  183SOPE   C3620974   5.115   5.111   7.714 -0.5383  0.0341 -0.0972
  183SOPE   H6X20975   5.044   5.196   7.707 -0.1538  0.3159 -0.6248
  183SOPE   H6Y20976   5.203   5.136   7.778 -1.3156 -1.3215  1.6100
  183SOPE   C3720977   5.041   5.001   7.793  0.1499  0.2994 -0.0755
  183SOPE   H7X20978   5.103   4.912   7.818  1.1020  0.1905 -2.5076
  183SOPE   H7Y20979   4.955   4.965   7.732 -0.0732  0.0885  0.3630
  183SOPE   C3820980   4.966   5.056   7.913 -0.2631 -0.4452 -0.5470
  183SOPE   H8X20981   4.927   5.158   7.898  1.0739  0.1201 -0.2889
  183SOPE   H8Y20982   5.040   5.059   7.996 -1.8302 -2.8563  1.0762
  183SOPE   C3920983   4.853   4.961   7.964  0.0554  0.1151  0.8410
  183SOPE   H9X20984   4.879   4.854   7.945  1.5826  0.7431 -0.9385
  183SOPE   H9Y20985   4.764   4.981   7.900  1.6982 -1.8653 -2.3279
  183SOPE  C31020986   4.821   4.992   8.109 -0.4010  0.1196 -0.6393
  183SOPE  H10X20987   4.718   4.965   8.140 -0.6801  0.3957 -1.3045
  183SOPE  H10Y20988   4.831   5.101   8.128  3.9172 -0.2530  0.2788
  183SOPE  C31120989   4.926   4.930   8.210 -0.8050 -0.1541 -0.5592
  183SOPE  H11X20990   4.891   4.971   8.307 -2.6528  1.2186 -1.7420
  183SOPE  H11Y20991   5.026   4.975   8.194 -0.1382 -1.6792 -0.8910
  183SOPE  C31220992   4.924   4.778   8.232 -0.1842  0.7449  0.5094
  183SOPE  H12X20993   4.981   4.721   8.155  0.5275  1.4139  0.5382
  183SOPE  H12Y20994   4.817   4.747   8.225  0.0960 -0.1551 -0.0247
  183SOPE  C31320995   4.976   4.751   8.373  0.4433 -0.2358 -0.3421
  183SOPE  H13X20996   4.949   4.832   8.443 -0.0848 -1.1623  0.5569
  183SOPE  H13Y20997   5.088   4.750   8.372  0.4783  1.0232  0.4036
  183SOPE  C31420998   4.935   4.611   8.430  0.1447  0.1102  0.5245
  183SOPE  H14X20999   4.957   4.528   8.359 -0.1399  1.0986 -0.7499
  183SOPE  H14Y21000   4.826   4.619   8.446 -0.0237  1.2326 -1.0351
  183SOPE  C31521001   4.995   4.591   8.578 -0.8527 -0.5438  0.0529
  183SOPE  H15X21002   4.983   4.689   8.629 -1.2064  0.0760 -1.1871
  183SOPE  H15Y21003   5.104   4.582   8.557 -0.8905  0.0603 -0.4346
  183SOPE  C31621004   4.935   4.481   8.670  0.5644  0.2543  0.6228
  183SOPE  H16X21005   4.895   4.412   8.593  0.7282  2.1559 -1.2323
  183SOPE  H16Y21006   4.839   4.515   8.713 -0.0300 -1.0639  0.3798
  183SOPE  C31721007   5.036   4.406   8.764 -0.5039  0.2474  0.7445
  183SOPE  H17X21008   5.036   4.456   8.864 -3.0610  2.2603 -0.1601
  183SOPE  H17Y21009   5.141   4.410   8.728 -0.1886  0.4511  1.6540
  183SOPE  C31821010   4.985   4.261   8.794 -0.4724 -0.0255 -0.4573
  183SOPE  H18X21011   4.879   4.265   8.828 -0.1837 -0.9298  0.6110
  183SOPE  H18Y21012   5.044   4.206   8.871 -0.2441 -2.1658 -2.0453
  183SOPE  H18Z21013   4.979   4.200   8.701  1.4752  0.6585 -1.0847
  184SOPE     N21014   4.053   5.805   6.110  0.1287 -0.3865 -0.0961
  184SOPE   HN121015   4.070   5.901   6.145  1.0871 -0.9512  1.0452
  184SOPE   HN221016   4.081   5.735   6.182 -0.2812 -0.4088  0.0443
  184SOPE   HN321017   4.117   5.788   6.029  0.8138  1.0657  0.1145
  184SOPE   C1221018   3.914   5.792   6.054  0.0993 -0.6092 -0.1071
  184SOPE  H12A21019   3.904   5.682   6.042  2.2125 -1.0192  1.3157
  184SOPE  H12B21020   3.897   5.834   5.953 -2.2741 -0.0091  0.4632
  184SOPE   C1121021   3.808   5.853   6.153  0.3040  0.2320 -0.2810
  184SOPE  H11A21022   3.817   5.810   6.255 -3.0228 -1.0611 -0.3919
  184SOPE  H11B21023   3.718   5.814   6.100  0.2019  0.9246 -0.6244
  184SOPE     P21024   3.698   6.097   6.154  0.0195 -0.1573 -0.2289
  184SOPE   O1321025   3.598   6.052   6.059  0.1582 -0.1839  0.2658
  184SOPE   O1421026   3.767   6.224   6.110  0.6552  0.2045  0.6558
  184SOPE   O1221027   3.817   5.990   6.163 -0.0123  0.1828 -0.3620
  184SOPE   O1121028   3.645   6.095   6.302 -0.1796  0.3655 -0.0870
  184SOPE    C121029   3.562   5.981   6.342 -0.0503 -0.5681  0.0013
  184SOPE    HA21030   3.609   5.886   6.309  0.2389 -0.3530 -0.2175
  184SOPE    HB21031   3.460   5.994   6.300  0.5164  1.1504 -0.9750
  184SOPE    C221032   3.554   5.975   6.496  0.1598 -0.4802 -0.5451
  184SOPE    HS21033   3.519   5.877   6.538 -3.1582  0.9789  0.4513
  184SOPE   O2121034   3.470   6.087   6.545 -0.4965 -0.0430  0.2352
  184SOPE   C2121035   3.339   6.052   6.561 -0.9514 -0.3631 -0.2929
  184SOPE   O2221036   3.281   5.952   6.522  0.0629  0.8133 -0.2316
  184SOPE   C2221037   3.273   6.153   6.652 -0.2131  0.2928  0.1014
  184SOPE   H2R21038   3.165   6.141   6.627  0.4695  1.2040 -3.8849
  184SOPE   H2S21039   3.315   6.254   6.634 -0.2241  0.0789 -1.1606
  184SOPE    C321040   3.698   6.007   6.549  0.1756  0.0155 -0.3453
  184SOPE    HX21041   3.711   6.117   6.537 -0.6502  0.0905 -0.6161
  184SOPE    HY21042   3.777   5.951   6.494  1.1310  0.9535  0.0214
  184SOPE   O3121043   3.714   5.980   6.686 -0.5536 -0.5661 -0.5898
  184SOPE   C3121044   3.747   5.852   6.712 -0.5382 -0.0866  0.9913
  184SOPE   O3221045   3.765   5.763   6.632 -0.9215 -0.1670 -0.2329
  184SOPE   C3221046   3.773   5.823   6.854  0.1727 -0.0831 -0.6679
  184SOPE   H2X21047   3.683   5.857   6.910  0.5899  0.9163 -0.5969
  184SOPE   H2Y21048   3.853   5.889   6.893 -0.7292  0.5847  0.0961
  184SOPE   C2321049   3.314   6.120   6.799  0.6154 -0.0487  0.3784
  184SOPE   H3R21050   3.367   6.211   6.833 -1.0015  1.1067 -0.1202
  184SOPE   H3S21051   3.386   6.036   6.810  0.3062 -0.3649  0.0360
  184SOPE   C2421052   3.192   6.085   6.897 -0.2296 -0.9114 -0.2001
  184SOPE   H4R21053   3.128   6.175   6.891  0.7547 -0.2365 -0.9994
  184SOPE   H4S21054   3.133   5.999   6.858 -2.1664 -1.6391  3.8079
  184SOPE   C2521055   3.233   6.064   7.039 -0.4497  0.9233 -0.3126
  184SOPE   H5R21056   3.312   5.986   7.040  5.3631  5.9995 -0.0566
  184SOPE   H5S21057   3.295   6.152   7.067 -0.5311  0.5273  1.1416
  184SOPE   C2621058   3.122   6.025   7.137  0.0140  0.1847 -0.6217
  184SOPE   H6R21059   3.041   6.100   7.130  0.7825  1.0179 -0.7860
  184SOPE   H6S21060   3.081   5.926   7.108  0.9243 -0.4150  0.0678
  184SOPE   C2721061   3.169   6.028   7.283 -0.0977 -0.0222  0.0348
  184SOPE   H7R21062   3.260   5.964   7.278 -1.0056 -1.4018  0.5197
  184SOPE   H7S21063   3.202   6.132   7.303  1.3308 -0.1530 -1.4242
  184SOPE   C2821064   3.073   5.983   7.397 -0.4698  0.0441  0.9858
  184SOPE   H8R21065   3.032   5.887   7.360  0.5654  0.8830 -2.8736
  184SOPE   H8S21066   3.121   5.969   7.495  0.5170 -1.7581  0.2776
  184SOPE   C2921067   2.959   6.072   7.401  0.3078  0.8241 -0.1815
  184SOPE   H9121068   2.901   6.080   7.308  0.4800 -1.2051 -0.5175
  184SOPE  C21021069   2.924   6.160   7.498  0.1345  0.3019  0.9202
  184SOPE  H10121070   2.833   6.218   7.476  0.3097 -0.0484 -0.8535
  184SOPE  C21121071   2.992   6.186   7.630 -0.6942 -0.1985 -0.4554
  184SOPE  H11R21072   3.050   6.281   7.629 -1.2544  0.1999 -3.0996
  184SOPE  H11S21073   3.072   6.113   7.655 -0.6226  0.4441  1.3353
  184SOPE  C21221074   2.890   6.183   7.746  0.2571  0.1067 -0.3799
  184SOPE  H12R21075   2.863   6.075   7.750  4.3999 -1.1007 -1.1039
  184SOPE  H12S21076   2.804   6.247   7.716  1.3338  0.6661 -2.4398
  184SOPE  C21321077   2.945   6.226   7.884  0.1793 -0.3602 -0.9696
  184SOPE  H13R21078   2.990   6.326   7.862  2.2131 -0.9530  0.2684
  184SOPE  H13S21079   3.041   6.174   7.904  0.8495  1.3333  0.4888
  184SOPE  C21421080   2.858   6.252   8.008 -0.3839 -1.0678 -0.7516
  184SOPE  H14R21081   2.783   6.170   8.009  0.5377 -1.9387 -1.1117
  184SOPE  H14S21082   2.798   6.345   7.998 -2.7921 -2.1603  1.9142
  184SOPE  C21521083   2.953   6.259   8.132 -0.0236 -0.2527  0.5220
  184SOPE  H15R21084   2.905   6.315   8.215 -2.2965 -0.2866 -0.6840
  184SOPE  H15S21085   3.047   6.307   8.098 -0.3899  1.7408  2.1852
  184SOPE  C21621086   2.977   6.117   8.172 -0.2485  0.6795 -0.8631
  184SOPE  H16R21087   3.074   6.122   8.226  0.2315  0.3701 -1.6851
  184SOPE  H16S21088   2.990   6.047   8.087  4.3220  1.0501 -0.7079
  184SOPE  C21721089   2.864   6.070   8.259  0.2216 -0.5584  0.7301
  184SOPE  H17R21090   2.771   6.078   8.199 -0.1161 -3.7002  0.6639
  184SOPE  H17S21091   2.846   6.137   8.346  1.0065 -0.6263  0.9495
  184SOPE  C21821092   2.881   5.926   8.307  0.1611  0.9698 -0.1468
  184SOPE  H18R21093   2.780   5.893   8.337 -0.8025  2.6038 -1.3919
  184SOPE  H18S21094   2.954   5.939   8.390 -0.9390  0.4356  0.9258
  184SOPE  H18T21095   2.909   5.858   8.224 -3.8654  1.3016 -2.0085
  184SOPE   C3321096   3.797   5.679   6.894 -0.5581  0.5541 -0.0731
  184SOPE   H3X21097   3.872   5.625   6.832 -1.2527 -0.6957  0.1375
  184SOPE   H3Y21098   3.706   5.616   6.901  0.0603 -0.2434  1.4200
  184SOPE   C3421099   3.859   5.661   7.039 -0.0626  0.4090 -0.1885
  184SOPE   H4X21100   3.954   5.718   7.038  0.5039 -0.4582  0.9428
  184SOPE   H4Y21101   3.898   5.561   7.067 -1.6295 -0.4105 -0.8434
  184SOPE   C3521102   3.764   5.715   7.146 -0.8477 -0.6309  0.1751
  184SOPE   H5X21103   3.675   5.656   7.115 -1.3650 -0.4683  1.2762
  184SOPE   H5Y21104   3.723   5.818   7.129 -1.1087 -0.7229  0.2336
  184SOPE   C3621105   3.814   5.695   7.287 -0.0708 -0.2237  0.6214
  184SOPE   H6X21106   3.877   5.782   7.318 -1.0812  0.4203  0.9456
  184SOPE   H6Y21107   3.876   5.603   7.290  0.1904 -0.0533  0.4613
  184SOPE   C3721108   3.704   5.688   7.380  1.4217 -0.5657 -0.2466
  184SOPE   H7X21109   3.652   5.595   7.346 -0.7159  0.6442 -0.4697
  184SOPE   H7Y21110   3.641   5.778   7.367  1.6948 -0.5240 -1.3810
  184SOPE   C3821111   3.751   5.669   7.524 -0.2522  0.3556  0.3232
  184SOPE   H8X21112   3.843   5.731   7.529  1.3817 -1.9108 -0.0560
  184SOPE   H8Y21113   3.779   5.564   7.548 -3.3738 -0.1071  2.6852
  184SOPE   C3921114   3.637   5.714   7.618 -0.4952 -0.0060 -0.5742
  184SOPE   H9X21115   3.546   5.651   7.607 -1.3347  1.4916 -2.9525
  184SOPE   H9Y21116   3.608   5.815   7.582 -3.5375 -0.8866 -0.8010
  184SOPE  C31021117   3.675   5.728   7.773 -0.6529  0.3460 -0.3716
  184SOPE  H10X21118   3.678   5.628   7.820 -1.2685  0.3161 -0.3857
  184SOPE  H10Y21119   3.596   5.785   7.827 -1.1115 -0.9422  0.3852
  184SOPE  C31121120   3.807   5.802   7.799 -0.4842  0.0002 -0.3887
  184SOPE  H11X21121   3.792   5.906   7.763 -1.9913 -0.6543 -1.7733
  184SOPE  H11Y21122   3.885   5.757   7.734 -1.1044 -0.4997 -0.7979
  184SOPE  C31221123   3.837   5.802   7.954 -0.4012  0.6791 -0.5053
  184SOPE  H12X21124   3.944   5.822   7.976 -0.5274  3.2087 -1.8792
  184SOPE  H12Y21125   3.808   5.702   7.995  0.7845  1.5929  2.8539
  184SOPE  C31321126   3.759   5.907   8.034 -0.5555  0.4495  0.0496
  184SOPE  H13X21127   3.653   5.874   8.037  0.0057 -1.4822  0.0613
  184SOPE  H13Y21128   3.774   6.005   7.984 -0.3957  1.1232  1.3875
  184SOPE  C31421129   3.817   5.913   8.177  0.2328 -0.2576  0.6499
  184SOPE  H14X21130   3.920   5.952   8.166  1.4224 -2.9295  1.2832
  184SOPE  H14Y21131   3.824   5.810   8.219 -1.7870 -0.7231 -0.0004
  184SOPE  C31521132   3.726   5.994   8.264  0.3253 -0.6064  0.0185
  184SOPE  H15X21133   3.635   5.930   8.267  1.4568 -2.4853 -2.2791
  184SOPE  H15Y21134   3.700   6.093   8.222 -0.5688 -1.3904 -1.3237
  184SOPE  C31621135   3.775   6.018   8.410  0.1106  0.3825 -0.3148
  184SOPE  H16X21136   3.726   6.108   8.453 -1.3681 -1.0633  1.2274
  184SOPE  H16Y21137   3.885   6.030   8.411  0.7072 -3.5681 -1.3627
  184SOPE  C31721138   3.743   5.892   8.499 -0.0177 -0.0671  0.7977
  184SOPE  H17X21139   3.687   5.817   8.440  0.5429  0.3933 -0.3550
  184SOPE  H17Y21140   3.685   5.910   8.592 -0.6284  2.2429  0.0285
  184SOPE  C31821141   3.882   5.836   8.540 -0.0665 -0.2567  0.2669
  184SOPE  H18X21142   3.936   5.921   8.587  1.3717 -1.6675  1.2490
  184SOPE  H18Y21143   3.941   5.805   8.451 -0.7517  0.9781 -0.6608
  184SOPE  H18Z21144   3.875   5.755   8.615 -0.2804 -0.5640 -0.0833
  185SAPI   C1221145   2.210   2.484  11.334  0.4011  0.0923  0.1008
  185SAPI    H221146   2.243   2.539  11.243 -0.0729 -0.3515 -0.3436
  185SAPI    O221147   2.312   2.387  11.370  0.1235 -0.3283  0.5600
  185SAPI   HO221148   2.316   2.320  11.301 -0.3892  0.0992  0.1043
  185SAPI   C1321149   2.196   2.595  11.441  0.6155  1.0145  0.0936
  185SAPI    H321150   2.120   2.660  11.392 -1.0461 -1.8803 -1.4277
  185SAPI    O321151   2.324   2.654  11.475  0.0869 -0.1626 -0.2616
  185SAPI   HO321152   2.390   2.587  11.498 -1.3902 -1.2455  1.0917
  185SAPI   C1421153   2.146   2.521  11.568  0.0859 -0.3432 -0.6678
  185SAPI    H421154   2.220   2.445  11.601  2.5961  1.7862 -1.0829
  185SAPI    O421155   2.130   2.614  11.676  0.5940  0.5887  0.0831
  185SAPI   HO421156   2.216   2.628  11.716  0.0662  1.7401  0.8549
  185SAPI   C1521157   2.014   2.449  11.547  0.1484  0.5285 -0.0450
  185SAPI    H521158   1.936   2.526  11.527  0.6547  1.2348  0.6178
  185SAPI    O521159   1.972   2.395  11.675  0.0730 -0.7386 -0.0196
  185SAPI   HO521160   1.876   2.395  11.674  0.0549 -1.1403 -2.1803
  185SAPI   C1621161   2.017   2.349  11.434 -0.0179  0.6506 -0.0197
  185SAPI    H621162   2.093   2.272  11.462  0.9309  1.5596 -0.0043
  185SAPI    O621163   1.889   2.296  11.407  0.1504  0.4573  0.0329
  185SAPI   HO621164   1.842   2.356  11.349 -0.0169  0.2650 -0.0339
  185SAPI   C1121165   2.070   2.420  11.314 -0.5149 -0.6702 -0.2259
  185SAPI    H121166   2.003   2.505  11.290 -1.0114 -1.4431 -1.6725
  185SAPI     P21167   1.984   2.336  11.072  0.1706 -0.2984 -0.2083
  185SAPI   O1321168   1.848   2.371  11.123  0.0793 -0.2674 -0.4227
  185SAPI   O1421169   1.999   2.211  10.988  0.1755 -0.2051  0.1090
  185SAPI   O1221170   2.087   2.330  11.204  0.8627 -0.0874  0.0494
  185SAPI   O1121171   2.049   2.464  10.998 -0.4109 -0.2082 -0.0462
  185SAPI    C121172   2.183   2.461  10.944  0.4222 -0.2217 -1.0470
  185SAPI    HA21173   2.260   2.485  11.019  1.3573 -2.0006 -1.3961
  185SAPI    HB21174   2.211   2.357  10.917 -0.6192 -1.1187  1.1228
  185SAPI    C221175   2.199   2.538  10.817 -0.3707  0.6391  0.6160
  185SAPI    HS21176   2.183   2.643  10.851 -2.1463  1.2246 -1.7357
  185SAPI   O2121177   2.105   2.479  10.723 -0.4597  0.7966 -0.0361
  185SAPI   C2121178   2.014   2.558  10.682 -0.6186 -0.4201 -0.0598
  185SAPI   O2221179   2.013   2.678  10.693  0.0125 -0.3050 -0.0025
  185SAPI   C2221180   1.913   2.498  10.587 -0.2954 -0.3824 -0.1239
  185SAPI   H2R21181   1.874   2.586  10.530  0.0319  2.2624  3.3954
  185SAPI   H2S21182   1.964   2.430  10.516 -1.4425 -1.4075  0.0084
  185SAPI    C321183   2.350   2.533  10.753 -0.2568 -0.6856 -0.0961
  185SAPI    HX21184   2.389   2.429  10.758 -1.8707 -1.2710  1.1876
  185SAPI    HY21185   2.416   2.586  10.824 -1.0672 -0.4572  0.5053
  185SAPI   O3121186   2.350   2.599  10.624 -0.6379  0.5765 -0.2221
  185SAPI   C3121187   2.327   2.502  10.521 -0.3138 -0.9800 -1.0660
  185SAPI   O3221188   2.310   2.385  10.535  0.4952 -0.2669 -0.2718
  185SAPI   C3221189   2.360   2.574  10.396  0.1051  0.2466 -0.2286
  185SAPI   H2X21190   2.469   2.579  10.377 -0.1090  1.1062 -1.2768
  185SAPI   H2Y21191   2.314   2.674  10.404 -0.2765  0.1809 -1.4937
  185SAPI   C2321192   1.801   2.431  10.666 -0.0904  0.4145  0.2013
  185SAPI   H3R21193   1.763   2.515  10.729 -1.9413 -0.1286 -0.1340
  185SAPI   H3S21194   1.853   2.355  10.727 -0.2890 -0.3181 -0.5286
  185SAPI   C2421195   1.697   2.368  10.576  0.9654  0.2250 -0.4833
  185SAPI   H4R21196   1.634   2.300  10.637 -2.4384  3.4419  0.0292
  185SAPI   H4S21197   1.742   2.315  10.490 -3.7387 -1.8505 -2.0342
  185SAPI   C2521198   1.600   2.463  10.518  0.3107  0.8283  0.0065
  185SAPI   H5R21199   1.539   2.510  10.596 -0.4874 -1.3082  0.7232
  185SAPI   C2621200   1.591   2.496  10.389  0.4584  0.1949 -1.0161
  185SAPI   H6R21201   1.519   2.579  10.376  1.5691  1.4882  0.6412
  185SAPI   C2721202   1.662   2.442  10.273 -0.4057 -0.0379  0.5905
  185SAPI   H7R21203   1.579   2.438  10.199 -0.4912 -0.9373  0.7161
  185SAPI   H7S21204   1.702   2.338  10.277 -0.9901 -0.2649  0.6243
  185SAPI   C2821205   1.769   2.527  10.222 -0.0988 -0.9637 -0.6117
  185SAPI   H8R21206   1.853   2.539  10.292  0.7717  2.4502 -2.0285
  185SAPI   C2921207   1.779   2.600  10.112 -0.5548 -0.4820 -0.0057
  185SAPI   H9R21208   1.862   2.670  10.096 -2.4238  2.1119  1.0574
  185SAPI  C21021209   1.673   2.608  10.003 -0.2564  0.4908  0.0415
  185SAPI  H10R21210   1.597   2.528  10.013  0.1274  0.2483  1.2384
  185SAPI  H10S21211   1.724   2.598   9.906 -2.2122 -2.5338 -0.8059
  185SAPI  C21121212   1.597   2.738  10.004  0.3012  0.0534  0.9729
  185SAPI  H11R21213   1.611   2.796  10.096  1.5141  1.4315 -0.0379
  185SAPI  C21221214   1.521   2.791   9.906  0.7614  0.0318  0.4921
  185SAPI  H12R21215   1.467   2.886   9.921 -1.3451 -1.1030  0.4810
  185SAPI  C21321216   1.495   2.720   9.776 -0.1949  0.7742  0.0146
  185SAPI  H13R21217   1.499   2.610   9.791  0.0704  0.7550 -0.1814
  185SAPI  H13S21218   1.584   2.745   9.715  0.1089 -1.3993 -0.4942
  185SAPI  C21421219   1.377   2.772   9.705  0.0071 -0.0417 -0.0451
  185SAPI  H14R21220   1.315   2.849   9.754 -0.8644  0.4887 -1.8966
  185SAPI  C21521221   1.345   2.730   9.583  0.2653 -0.1657  0.1562
  185SAPI  H15R21222   1.270   2.782   9.522  1.0777  1.1280  0.2346
  185SAPI  C21621223   1.404   2.615   9.503  0.2432 -0.7102  0.0046
  185SAPI  H16R21224   1.454   2.544   9.572 -0.8947 -0.6210  0.9536
  185SAPI  H16S21225   1.488   2.651   9.440  0.7494  0.0687  1.0921
  185SAPI  C21721226   1.313   2.532   9.402  0.0277  0.4391  1.3574
  185SAPI  H17R21227   1.376   2.447   9.367 -0.8946  0.1335  0.4207
  185SAPI  H17S21228   1.285   2.597   9.316 -2.3551 -0.0376  1.7101
  185SAPI  C21821229   1.190   2.479   9.468 -0.9143  0.2313 -0.5055
  185SAPI  H18R21230   1.131   2.563   9.511  1.5588  1.1037  1.4755
  185SAPI  H18S21231   1.220   2.415   9.553 -2.6685  1.7226  1.3498
  185SAPI  C21921232   1.095   2.389   9.383 -0.3284  0.7132 -0.0111
  185SAPI  H19R21233   1.018   2.332   9.440 -0.1581 -0.4142 -0.8758
  185SAPI  H19S21234   1.159   2.307   9.345 -0.4986  0.0268  1.1133
  185SAPI  C22021235   1.005   2.446   9.262 -0.4824  0.3128  0.2509
  185SAPI  H20R21236   1.061   2.487   9.175  0.5022 -0.7110  0.3713
  185SAPI  H20S21237   0.932   2.524   9.290 -0.2449  1.2348 -1.5560
  185SAPI  H20T21238   0.939   2.365   9.224 -0.9982  0.7832  0.1433
  185SAPI   C3321239   2.291   2.499  10.286  0.7036 -1.0102  0.4794
  185SAPI   H3X21240   2.263   2.396  10.317 -2.0829 -0.0961  1.3023
  185SAPI   H3Y21241   2.364   2.496  10.202 -0.8849  0.9235 -1.0727
  185SAPI   C3421242   2.167   2.558  10.234  0.6141 -0.4452  0.0797
  185SAPI   H4X21243   2.106   2.577  10.324  0.9154  0.3678  0.1185
  185SAPI   H4Y21244   2.115   2.484  10.170 -1.6742  0.3495  0.9355
  185SAPI   C3521245   2.186   2.692  10.152 -0.9994 -0.0390  0.3302
  185SAPI   H5X21246   2.242   2.759  10.221  1.2747 -0.0777 -1.3663
  185SAPI   H5Y21247   2.084   2.735  10.136  0.5682  3.6503 -0.9017
  185SAPI   C3621248   2.238   2.684  10.008 -0.4872  0.1863  0.1296
  185SAPI   H6X21249   2.346   2.658  10.011 -0.5560 -0.1725 -0.3351
  185SAPI   H6Y21250   2.223   2.786   9.966  0.4433 -0.4692 -1.9713
  185SAPI   C3721251   2.161   2.584   9.919 -0.6714 -0.0234 -0.3591
  185SAPI   H7X21252   2.057   2.620   9.906 -0.6321  0.2673  0.1471
  185SAPI   H7Y21253   2.164   2.479   9.955 -1.1513  0.0156 -0.1922
  185SAPI   C3821254   2.210   2.567   9.776 -0.1651 -0.4999 -0.4797
  185SAPI   H8X21255   2.319   2.548   9.787  0.0890  0.5465 -1.0960
  185SAPI   H8Y21256   2.202   2.670   9.735  1.1484 -0.1286  0.1199
  185SAPI   C3921257   2.132   2.478   9.682  0.3982  0.1015  0.3598
  185SAPI   H9X21258   2.029   2.518   9.682  0.2303 -0.2879 -0.8519
  185SAPI   H9Y21259   2.143   2.372   9.715  3.2808 -0.4021 -1.7808
  185SAPI  C31021260   2.181   2.490   9.534  0.4921 -0.1143 -0.5262
  185SAPI  H10X21261   2.285   2.450   9.537  0.2661 -0.6557  0.7564
  185SAPI  H10Y21262   2.196   2.595   9.501  1.0125  0.5848  1.7725
  185SAPI  C31121263   2.105   2.408   9.435  0.4146 -0.1484  0.2317
  185SAPI  H11X21264   1.996   2.427   9.443  0.6269  0.9368  0.8061
  185SAPI  H11Y21265   2.113   2.298   9.449  0.3933 -0.0556  0.9990
  185SAPI  C31221266   2.125   2.448   9.284 -0.1077 -0.1715  0.0919
  185SAPI  H12X21267   2.232   2.472   9.263 -0.5608  0.4248 -1.7521
  185SAPI  H12Y21268   2.060   2.530   9.246  1.4551  0.6844 -0.8707
  185SAPI  C31321269   2.079   2.342   9.189 -0.6661  0.6317  0.3176
  185SAPI  H13X21270   1.973   2.309   9.196 -1.1124  1.3119 -2.1484
  185SAPI  H13Y21271   2.145   2.255   9.206 -1.9284 -0.8713 -1.9342
  185SAPI  C31421272   2.092   2.379   9.043  0.8382 -0.6918  0.4716
  185SAPI  H14X21273   2.186   2.433   9.022  0.2809 -0.5296 -1.8702
  185SAPI  H14Y21274   2.010   2.453   9.032  1.2119 -0.1323  1.2960
  185SAPI  C31521275   2.066   2.260   8.946  0.7552 -0.5088  0.4859
  185SAPI  H15X21276   1.968   2.207   8.951  1.0281 -0.9116  2.3583
  185SAPI  H15Y21277   2.146   2.185   8.964 -0.0064 -1.3239  0.5753
  185SAPI  C31621278   2.079   2.299   8.797 -0.0498  0.2853  0.2041
  185SAPI  H16X21279   2.149   2.385   8.795 -0.5401  0.6824 -0.0048
  185SAPI  H16Y21280   1.982   2.333   8.755  0.7739  0.3547 -1.7458
  185SAPI  C31721281   2.114   2.170   8.718 -0.1393 -0.2805  0.7125
  185SAPI  H17X21282   2.206   2.129   8.764  0.7700  0.9941  0.0961
  185SAPI  H17Y21283   2.131   2.198   8.611 -0.9416 -2.6193 -0.0883
  185SAPI  C31821284   2.008   2.061   8.713  0.1487 -0.0795  0.0229
  185SAPI  H18X21285   1.909   2.089   8.671  0.3562  0.9419  0.1892
  185SAPI  H18Y21286   1.992   2.033   8.820  0.1220 -0.5265 -0.0957
  185SAPI  H18Z21287   2.049   1.982   8.646 -0.7190  1.3038 -2.2475
  186SAPI   C1221288   0.309   0.343  10.957  0.4316 -0.5068 -0.1942
  186SAPI    H221289   0.352   0.375  11.054  0.2823 -1.2174  0.1148
  186SAPI    O221290   0.353   0.211  10.937  0.2326 -0.2134  0.8124
  186SAPI   HO221291   0.439   0.212  10.895  0.0663 -2.5117  0.2734
  186SAPI   C1321292   0.164   0.350  10.973 -0.4471  0.8630 -0.4111
  186SAPI    H321293   0.135   0.457  10.986 -2.0385  0.3150  0.8970
  186SAPI    O321294   0.116   0.286  11.094 -0.1021 -0.2385  0.3024
  186SAPI   HO321295   0.120   0.350  11.165  0.8517  1.4003 -1.1587
  186SAPI   C1421296   0.092   0.304  10.846 -0.4032  0.4526  0.1709
  186SAPI    H421297   0.119   0.200  10.815 -1.0422 -0.4172  2.3664
  186SAPI    O421298  -0.049   0.297  10.864 -0.0537  0.0263  0.2950
  186SAPI   HO421299  -0.066   0.221  10.921  1.8111  0.8395  2.0815
  186SAPI   C1521300   0.137   0.390  10.729 -0.2021 -0.7558  0.3164
  186SAPI    H521301   0.105   0.495  10.744  2.5435  0.0451  1.1787
  186SAPI    O521302   0.082   0.344  10.605 -0.6216 -0.2240 -0.4404
  186SAPI   HO521303   0.118   0.257  10.585 -0.4230 -0.6641  1.5828
  186SAPI   C1621304   0.296   0.400  10.716  0.3013  0.6369 -0.3322
  186SAPI    H621305   0.333   0.297  10.694 -1.0577  0.1033 -0.2247
  186SAPI    O621306   0.338   0.488  10.620 -0.3372 -0.2109  0.3007
  186SAPI   HO621307   0.431   0.509  10.634 -0.2154 -0.8664  0.5041
  186SAPI   C1121308   0.362   0.433  10.846 -0.7732 -0.7801  0.5345
  186SAPI    H121309   0.328   0.536  10.871  2.0461  0.2771  0.4191
  186SAPI     P21310   0.598   0.567  10.823  0.1532 -0.3730 -0.1301
  186SAPI   O1321311   0.736   0.538  10.857  0.1851  0.3475  0.7121
  186SAPI   O1421312   0.539   0.684  10.893  0.6022  0.5825 -0.2454
  186SAPI   O1221313   0.508   0.429  10.851  0.3415  0.0129  0.1651
  186SAPI   O1121314   0.581   0.577  10.664 -0.1701 -0.2832  0.0365
  186SAPI    C121315   0.693   0.621  10.583  0.7197  0.0146  0.7760
  186SAPI    HA21316   0.761   0.698  10.627  2.3507 -0.9034 -0.0440
  186SAPI    HB21317   0.757   0.531  10.575 -1.9861 -1.9908  0.4289
  186SAPI    C221318   0.663   0.649  10.434  0.1115 -0.0757 -0.2114
  186SAPI    HS21319   0.627   0.754  10.437  0.8015  0.1638 -0.2461
  186SAPI   O2121320   0.555   0.561  10.391 -0.5933  0.0813 -0.3297
  186SAPI   C2121321   0.482   0.609  10.295  0.5371  0.7593 -0.1802
  186SAPI   O2221322   0.489   0.716  10.244 -0.1062  0.1901  0.2271
  186SAPI   C2221323   0.365   0.505  10.260  0.0192 -0.4191  0.3397
  186SAPI   H2R21324   0.340   0.435  10.343 -1.5876 -1.8339 -1.2543
  186SAPI   H2S21325   0.277   0.571  10.244  0.5311  0.1570 -0.1545
  186SAPI    C321326   0.787   0.638  10.338  0.8443  0.0355 -0.0993
  186SAPI    HX21327   0.812   0.531  10.321 -0.4107 -0.0235 -1.8107
  186SAPI    HY21328   0.882   0.670  10.385  1.8118 -1.3166 -1.0398
  186SAPI   O3121329   0.772   0.709  10.212  0.8522 -0.0723 -0.1563
  186SAPI   C3121330   0.785   0.847  10.229 -0.0006  0.6520 -0.5377
  186SAPI   O3221331   0.813   0.906  10.328  0.3554 -0.6291  0.3127
  186SAPI   C3221332   0.771   0.909  10.094 -0.4755 -0.5212  0.3422
  186SAPI   H2X21333   0.868   0.907  10.041  0.6369 -2.7665  2.2904
  186SAPI   H2Y21334   0.752   1.013  10.126  2.1366 -0.0704  0.6114
  186SAPI   C2321335   0.374   0.417  10.131  0.2568 -0.3295  0.1720
  186SAPI   H3R21336   0.358   0.477  10.039 -3.5591 -0.9822  0.2301
  186SAPI   H3S21337   0.281   0.355  10.136  0.9157 -1.4179 -0.6076
  186SAPI   C2421338   0.489   0.311  10.135 -0.2527  0.3052 -0.5450
  186SAPI   H4R21339   0.472   0.239  10.052 -0.9258  0.8720 -0.9080
  186SAPI   H4S21340   0.467   0.254  10.228 -2.8415 -1.3752 -2.0450
  186SAPI   C2521341   0.624   0.384  10.135  0.0631 -0.3303  0.0537
  186SAPI   H5R21342   0.667   0.392  10.236 -0.9228  2.8454  0.3536
  186SAPI   C2621343   0.691   0.417  10.023  0.2563 -0.7911  0.2237
  186SAPI   H6R21344   0.785   0.472  10.040 -0.0026 -1.0848  3.0714
  186SAPI   C2721345   0.636   0.402   9.886 -0.3559  1.1930  0.2107
  186SAPI   H7R21346   0.563   0.318   9.882  0.0382  0.8674 -0.6012
  186SAPI   H7S21347   0.709   0.367   9.810  1.7641  2.6231  1.4942
  186SAPI   C2821348   0.559   0.523   9.846 -0.1942  0.2125 -0.3709
  186SAPI   H8R21349   0.509   0.570   9.931 -1.7081 -1.3329 -0.3655
  186SAPI   C2921350   0.541   0.575   9.722  0.1518 -0.6816  0.7372
  186SAPI   H9R21351   0.475   0.663   9.729 -1.1783 -1.7578  2.8881
  186SAPI  C21021352   0.590   0.532   9.587 -0.5052  0.3221  0.1689
  186SAPI  H10R21353   0.660   0.446   9.593 -1.3113 -0.2908  1.0357
  186SAPI  H10S21354   0.658   0.611   9.547 -1.2990  0.2954 -1.3196
  186SAPI  C21121355   0.489   0.497   9.478 -0.4792 -0.4307 -0.2694
  186SAPI  H11R21356   0.426   0.411   9.504 -2.2935  1.1897  1.0811
  186SAPI  C21221357   0.482   0.555   9.353 -0.1611 -0.6031 -0.1702
  186SAPI  H12R21358   0.402   0.512   9.290 -0.4938 -0.9564  0.4851
  186SAPI  C21321359   0.565   0.671   9.295 -0.0374  0.5354 -0.4569
  186SAPI  H13R21360   0.593   0.729   9.385  1.3145  0.9128 -1.0837
  186SAPI  H13S21361   0.505   0.740   9.231 -0.1762  1.3416  0.5267
  186SAPI  C21421362   0.696   0.633   9.219  0.6139  0.5152 -0.6383
  186SAPI  H14R21363   0.787   0.607   9.276  1.6574  0.5198 -2.2442
  186SAPI  C21521364   0.698   0.603   9.091  0.4126  0.1555  0.5126
  186SAPI  H15R21365   0.795   0.571   9.050 -0.5691  0.3934 -2.2080
  186SAPI  C21621366   0.581   0.612   8.998 -0.1942  0.4866 -0.1819
  186SAPI  H16R21367   0.517   0.696   9.033 -2.4528 -0.8620 -0.8673
  186SAPI  H16S21368   0.515   0.524   9.005 -0.2072  0.6308  2.9024
  186SAPI  C21721369   0.625   0.650   8.861 -0.0823 -0.3655 -0.3729
  186SAPI  H17R21370   0.682   0.564   8.819 -0.5755  0.0042 -1.8894
  186SAPI  H17S21371   0.694   0.737   8.863 -2.2051  1.4438 -0.7537
  186SAPI  C21821372   0.506   0.689   8.771 -0.4725 -0.7306 -0.2394
  186SAPI  H18R21373   0.447   0.772   8.815 -0.1137  0.6596 -2.2409
  186SAPI  H18S21374   0.448   0.594   8.764 -0.9809 -0.3573 -1.3688
  186SAPI  C21921375   0.540   0.747   8.635 -0.7521 -0.5164 -0.2526
  186SAPI  H19R21376   0.579   0.658   8.580  1.1079 -1.4320  2.3705
  186SAPI  H19S21377   0.627   0.815   8.635 -0.6273 -0.6533 -1.4940
  186SAPI  C22021378   0.425   0.824   8.565 -0.6741  0.0014  0.4223
  186SAPI  H20R21379   0.380   0.903   8.629  0.7415  0.3926  0.9615
  186SAPI  H20S21380   0.346   0.749   8.541  1.0816 -2.4977  1.9267
  186SAPI  H20T21381   0.459   0.874   8.472 -1.1905  1.4947  1.0181
  186SAPI   C3321382   0.642   0.857  10.026  0.1534  1.0592 -0.0455
  186SAPI   H3X21383   0.546   0.872  10.078 -0.3173 -1.9237  0.1512
  186SAPI   H3Y21384   0.651   0.747  10.014  0.2149  1.1349 -0.7478
  186SAPI   C3421385   0.617   0.922   9.889  0.4359  0.2560 -0.3229
  186SAPI   H4X21386   0.595   1.030   9.900  0.3338  0.1290  0.8083
  186SAPI   H4Y21387   0.523   0.881   9.846 -0.1305  0.3467  0.8130
  186SAPI   C3521388   0.733   0.895   9.792 -0.0346  0.2405  0.0420
  186SAPI   H5X21389   0.746   0.784   9.786 -0.1155  0.3189 -3.0286
  186SAPI   H5Y21390   0.827   0.935   9.835 -0.1428  0.2758  0.2490
  186SAPI   C3621391   0.690   0.946   9.652  1.1159 -0.1755 -0.4693
  186SAPI   H6X21392   0.646   1.044   9.680  1.3172 -0.9599  3.2058
  186SAPI   H6Y21393   0.614   0.879   9.607  1.7964  0.4717 -2.7170
  186SAPI   C3721394   0.809   0.932   9.561 -0.1395  0.0229 -0.1061
  186SAPI   H7X21395   0.832   0.824   9.545  1.2189  0.4753 -1.4025
  186SAPI   H7Y21396   0.902   0.979   9.600 -2.4091  4.7185  0.3099
  186SAPI   C3821397   0.767   0.989   9.423 -0.1646 -0.7550 -0.6901
  186SAPI   H8X21398   0.763   1.100   9.429 -2.5628 -0.7690 -1.1693
  186SAPI   H8Y21399   0.663   0.959   9.397 -2.1686  3.6542  1.2882
  186SAPI   C3921400   0.855   0.925   9.315 -0.5711  0.6121 -0.4109
  186SAPI   H9X21401   0.825   0.820   9.299 -0.8882  0.6691 -0.1977
  186SAPI   H9Y21402   0.956   0.911   9.359 -1.0907 -0.1196  0.5599
  186SAPI  C31021403   0.863   1.005   9.185  0.6932 -0.4659 -0.0319
  186SAPI  H10X21404   0.912   0.937   9.113  0.5207 -2.9228  2.0521
  186SAPI  H10Y21405   0.925   1.096   9.203  1.8682 -0.6065 -2.8358
  186SAPI  C31121406   0.724   1.042   9.122 -0.0479 -0.8603  0.3606
  186SAPI  H11X21407   0.678   1.120   9.186  1.5350 -0.5365  1.1652
  186SAPI  H11Y21408   0.665   0.948   9.125 -1.8002  0.2262  1.4412
  186SAPI  C31221409   0.735   1.088   8.970  0.0786 -0.2809 -0.3526
  186SAPI  H12X21410   0.791   1.009   8.917  0.6072  0.1574 -0.4540
  186SAPI  H12Y21411   0.794   1.182   8.972  0.5301 -0.5529  1.8633
  186SAPI  C31321412   0.593   1.104   8.911  0.1793  0.5535 -0.1963
  186SAPI  H13X21413   0.549   1.182   8.977  0.1861 -0.8296  1.5460
  186SAPI  H13Y21414   0.532   1.013   8.926  4.9712 -3.1515 -0.6094
  186SAPI  C31421415   0.589   1.149   8.769  0.9775  0.0750 -0.0386
  186SAPI  H14X21416   0.480   1.152   8.747  0.8182  1.9143  0.7469
  186SAPI  H14Y21417   0.647   1.078   8.707 -0.2988 -0.7952 -0.2626
  186SAPI  C31521418   0.650   1.291   8.749  0.4433  0.2637  0.0294
  186SAPI  H15X21419   0.758   1.283   8.774  1.3655  1.2905 -3.1876
  186SAPI  H15Y21420   0.592   1.358   8.816 -1.2068 -0.7202 -0.3494
  186SAPI  C31621421   0.635   1.338   8.603 -0.2325 -0.7880 -0.6692
  186SAPI  H16X21422   0.527   1.337   8.575 -0.5656  2.2331  0.1446
  186SAPI  H16Y21423   0.701   1.275   8.539  1.1946 -0.1958  0.1610
  186SAPI  C31721424   0.686   1.483   8.586  0.2131  0.0098  0.1945
  186SAPI  H17X21425   0.797   1.489   8.595  0.5564  1.0636 -3.2236
  186SAPI  H17Y21426   0.641   1.541   8.668  1.0389  1.6586 -0.4727
  186SAPI  C31821427   0.642   1.526   8.450  0.1693 -0.5242  0.1279
  186SAPI  H18X21428   0.677   1.630   8.434 -1.2748 -0.1723 -0.9209
  186SAPI  H18Y21429   0.532   1.526   8.437  0.2966  0.3077 -1.1100
  186SAPI  H18Z21430   0.691   1.462   8.374  0.6818  3.3962 -3.1906
  187SAPI   C1221431   5.190   0.522   5.973 -0.0361  0.6300 -0.2717
  187SAPI    H221432   5.181   0.427   6.030 -1.8956  0.5357 -0.6865
  187SAPI    O221433   5.314   0.578   5.985 -0.2244 -0.4407  0.5501
  187SAPI   HO221434   5.352   0.577   6.074  2.1711  2.3031 -0.2944
  187SAPI   C1321435   5.179   0.486   5.822  1.0714  0.3773  0.7245
  187SAPI    H321436   5.080   0.436   5.817  2.2282 -2.5421  3.3679
  187SAPI    O321437   5.281   0.394   5.778  0.4043 -0.0878 -0.1072
  187SAPI   HO321438   5.356   0.448   5.751 -1.6442  1.8240 -2.4367
  187SAPI   C1421439   5.174   0.610   5.734 -0.3715 -0.2860 -0.5733
  187SAPI    H421440   5.266   0.668   5.757  0.2069 -0.9812 -1.1007
  187SAPI    O421441   5.167   0.593   5.594 -0.2499  0.1051 -0.3967
  187SAPI   HO421442   5.129   0.674   5.560  0.2831  1.6422  2.4069
  187SAPI   C1521443   5.059   0.697   5.778  0.3797 -0.0626 -0.2907
  187SAPI    H521444   4.959   0.653   5.757  0.9893 -1.8590  0.4086
  187SAPI    O521445   5.063   0.817   5.697  0.4072  0.2589 -0.1321
  187SAPI   HO521446   4.991   0.874   5.723 -0.1434 -0.3763 -0.2413
  187SAPI   C1621447   5.072   0.727   5.933  0.3676  0.4458  0.2185
  187SAPI    H621448   5.166   0.782   5.952 -0.2239  0.9575  1.8370
  187SAPI    O621449   4.969   0.815   5.970  0.3307  0.0633  0.1246
  187SAPI   HO621450   4.975   0.841   6.062 -0.6775  2.3151 -0.3755
  187SAPI   C1121451   5.077   0.607   6.024  0.0745 -0.1540 -0.8370
  187SAPI    H121452   4.985   0.550   5.998  0.2122 -0.3300 -0.9298
  187SAPI     P21453   4.996   0.549   6.276  0.0844  0.1124  0.0576
  187SAPI   O1321454   5.049   0.412   6.284  0.4905 -0.6374  0.0980
  187SAPI   O1421455   4.856   0.564   6.239  1.1281  0.0360 -0.0795
  187SAPI   O1221456   5.083   0.641   6.165 -0.5554  0.5065  0.7065
  187SAPI   O1121457   5.028   0.623   6.415 -0.1396  0.3934 -0.0311
  187SAPI    C121458   5.149   0.597   6.498  0.2318 -0.2540 -0.0558
  187SAPI    HA21459   5.204   0.502   6.478  0.7091 -0.2612  1.1840
  187SAPI    HB21460   5.216   0.685   6.488 -1.7486  1.3461  0.1530
  187SAPI    C221461   5.105   0.607   6.651 -0.1087 -0.0242 -1.0911
  187SAPI    HS21462   5.057   0.512   6.684  0.3324  0.2227  0.3158
  187SAPI   O2121463   5.017   0.725   6.670  0.1858  0.2014  0.7057
  187SAPI   C2121464   4.884   0.700   6.657 -0.2512 -0.2986 -1.2110
  187SAPI   O2221465   4.836   0.589   6.637  0.1996 -0.0186 -0.8161
  187SAPI   C2221466   4.807   0.821   6.668  0.0437  0.4187 -0.5240
  187SAPI   H2R21467   4.868   0.905   6.707 -0.0239 -0.1824  0.9463
  187SAPI   H2S21468   4.776   0.858   6.568 -1.9753  2.3931  0.7356
  187SAPI    C321469   5.231   0.613   6.740  0.9304 -0.3125 -0.3405
  187SAPI    HX21470   5.298   0.698   6.717  0.2062  0.8812  1.6774
  187SAPI    HY21471   5.300   0.528   6.721 -1.0729 -2.5249  1.6147
  187SAPI   O3121472   5.196   0.594   6.882 -0.2464  0.8825 -0.3557
  187SAPI   C3121473   5.187   0.702   6.948 -0.1450 -0.5471  0.2438
  187SAPI   O3221474   5.240   0.805   6.915 -0.1119 -0.2129 -0.3973
  187SAPI   C3221475   5.113   0.681   7.083  0.3889  0.4400  0.2522
  187SAPI   H2X21476   5.079   0.575   7.091 -1.1514  0.8650 -0.2666
  187SAPI   H2Y21477   5.025   0.748   7.071 -0.5332 -1.1730 -3.4966
  187SAPI   C2321478   4.679   0.799   6.762 -0.5137 -0.0159 -0.6882
  187SAPI   H3R21479   4.629   0.700   6.752 -1.2542  0.4075 -1.2317
  187SAPI   H3S21480   4.603   0.878   6.740 -1.8638 -0.9762  0.3365
  187SAPI   C2421481   4.711   0.806   6.910  0.1661  0.8201 -0.3351
  187SAPI   H4R21482   4.778   0.724   6.943 -0.7945 -0.6959 -2.0273
  187SAPI   H4S21483   4.613   0.777   6.953  0.2313  0.1179 -0.6593
  187SAPI   C2521484   4.733   0.942   6.963 -0.7925  0.6306  0.0487
  187SAPI   H5R21485   4.732   1.022   6.887  2.2531 -0.4214 -1.2707
  187SAPI   C2621486   4.745   0.972   7.091 -0.1792 -0.3709  0.4958
  187SAPI   H6R21487   4.745   1.078   7.120 -3.3129 -0.6264  1.8433
  187SAPI   C2721488   4.742   0.876   7.208 -0.3546 -0.7514  0.1152
  187SAPI   H7R21489   4.810   0.919   7.285  0.6693 -1.4065 -0.4067
  187SAPI   H7S21490   4.790   0.780   7.182  0.8043 -0.5162  1.2498
  187SAPI   C2821491   4.602   0.845   7.256 -0.5490 -0.2528  0.0925
  187SAPI   H8R21492   4.533   0.930   7.254 -0.1161  0.1174 -1.8680
  187SAPI   C2921493   4.564   0.725   7.301 -0.2045  0.6862  0.4823
  187SAPI   H9R21494   4.473   0.718   7.362 -0.0657  0.5763  0.6807
  187SAPI  C21021495   4.662   0.606   7.322  0.5191 -0.4791 -0.1192
  187SAPI  H10R21496   4.640   0.558   7.419  1.4184 -0.4982  0.0901
  187SAPI  H10S21497   4.768   0.639   7.337  0.8287 -0.6192 -1.8318
  187SAPI  C21121498   4.648   0.506   7.207  0.8036 -0.3693 -0.1329
  187SAPI  H11R21499   4.671   0.557   7.112 -1.0258  0.1746 -0.3101
  187SAPI  C21221500   4.606   0.379   7.208  0.7129 -0.6624  0.4793
  187SAPI  H12R21501   4.607   0.323   7.113 -0.7040  2.4743 -1.5611
  187SAPI  C21321502   4.556   0.306   7.334 -0.0735 -0.1699  0.0883
  187SAPI  H13R21503   4.526   0.378   7.413  0.9205  0.2880  0.0584
  187SAPI  H13S21504   4.629   0.238   7.384  1.7551  1.4771 -0.2391
  187SAPI  C21421505   4.425   0.229   7.306 -0.3166 -0.0256  0.8944
  187SAPI  H14R21506   4.428   0.165   7.217 -2.6531  0.8371  0.1239
  187SAPI  C21521507   4.309   0.243   7.364  0.3803 -0.1774  0.1329
  187SAPI  H15R21508   4.221   0.185   7.331 -0.4635  0.9989  0.2626
  187SAPI  C21621509   4.286   0.329   7.482  0.0098  0.0829 -0.7107
  187SAPI  H16R21510   4.374   0.318   7.548 -0.7674  0.2073  0.3818
  187SAPI  H16S21511   4.201   0.286   7.541 -0.3952 -1.1499 -2.1224
  187SAPI  C21721512   4.264   0.482   7.464  0.2205  0.5874 -0.7093
  187SAPI  H17R21513   4.354   0.524   7.415 -0.4154 -0.1404 -2.5861
  187SAPI  H17S21514   4.256   0.535   7.562  1.6968 -0.7061  0.1555
  187SAPI  C21821515   4.137   0.515   7.389  0.0759  0.2305  0.6976
  187SAPI  H18R21516   4.155   0.468   7.290  2.3263 -0.8530  1.5613
  187SAPI  H18S21517   4.132   0.626   7.379  1.1126  0.2674  0.4778
  187SAPI  C21921518   3.997   0.460   7.437  0.1675  0.3848  0.4102
  187SAPI  H19R21519   4.001   0.445   7.547  0.2913 -0.2323  0.3278
  187SAPI  H19S21520   3.989   0.362   7.385 -1.9910  2.4375 -3.6730
  187SAPI  C22021521   3.866   0.539   7.407 -0.0718  0.2028 -0.4857
  187SAPI  H20R21522   3.849   0.596   7.500 -1.6814 -0.2629 -0.4701
  187SAPI  H20S21523   3.771   0.480   7.411  0.0585 -0.3064 -3.0078
  187SAPI  H20T21524   3.874   0.593   7.310  1.3963  0.3885 -0.2878
  187SAPI   C3321525   5.201   0.723   7.201  0.5177  0.1251  0.1566
  187SAPI   H3X21526   5.239   0.824   7.174 -0.0409  0.4758  0.6714
  187SAPI   H3Y21527   5.292   0.660   7.199  1.0961  0.9607 -0.5915
  187SAPI   C3421528   5.135   0.726   7.343 -0.3445 -0.2678  0.2512
  187SAPI   H4X21529   5.086   0.627   7.354 -0.9657 -0.4690 -3.1624
  187SAPI   H4Y21530   5.069   0.809   7.378  0.3137  0.6885 -0.7183
  187SAPI   C3521531   5.248   0.732   7.445 -0.1034  0.2205 -0.1709
  187SAPI   H5X21532   5.315   0.820   7.429  0.8171 -0.5187 -0.4912
  187SAPI   H5Y21533   5.321   0.649   7.437  0.9596  1.1996 -1.0030
  187SAPI   C3621534   5.185   0.730   7.590 -0.0777  0.2452  0.2362
  187SAPI   H6X21535   5.109   0.649   7.599 -0.8277  0.9969  0.7264
  187SAPI   H6Y21536   5.134   0.827   7.607  1.2260  0.8000  1.1569
  187SAPI   C3721537   5.296   0.719   7.692 -0.0441 -0.3435 -0.2918
  187SAPI   H7X21538   5.383   0.782   7.661 -0.0974 -0.6639 -1.1256
  187SAPI   H7Y21539   5.328   0.613   7.677  0.9327 -0.2577  0.9624
  187SAPI   C3821540   5.252   0.748   7.836  0.2920  0.4389  0.3226
  187SAPI   H8X21541   5.206   0.847   7.850 -0.6857  0.1140 -0.4497
  187SAPI   H8Y21542   5.349   0.752   7.889  0.0994  2.3311  0.5685
  187SAPI   C3921543   5.173   0.633   7.898 -0.1632  0.3051 -0.0600
  187SAPI   H9X21544   5.237   0.543   7.896 -0.3021  0.2042  0.0864
  187SAPI   H9Y21545   5.087   0.613   7.831  1.0292  2.3067 -2.3816
  187SAPI  C31021546   5.135   0.667   8.039  0.1174 -1.0309 -0.9689
  187SAPI  H10X21547   5.062   0.594   8.080  0.4432 -1.2677 -0.8082
  187SAPI  H10Y21548   5.090   0.769   8.039  1.6603 -0.0940  3.5357
  187SAPI  C31121549   5.253   0.671   8.146  0.1183  0.2439 -0.0519
  187SAPI  H11X21550   5.337   0.743   8.135 -0.1031  0.4920 -0.1279
  187SAPI  H11Y21551   5.301   0.572   8.133 -0.5611 -0.0765 -0.1681
  187SAPI  C31221552   5.204   0.676   8.292  0.0171  0.0815  0.1903
  187SAPI  H12X21553   5.293   0.683   8.358  0.2993 -0.2074 -0.1527
  187SAPI  H12Y21554   5.174   0.569   8.305  1.3913 -0.4665 -0.8482
  187SAPI  C31321555   5.077   0.751   8.313  0.6533  0.1997  0.2198
  187SAPI  H13X21556   4.995   0.691   8.269  1.0223 -1.0417  1.1515
  187SAPI  H13Y21557   5.078   0.845   8.254  1.3293 -0.3243 -0.6150
  187SAPI  C31421558   5.055   0.796   8.459  0.2258  0.6753 -0.6461
  187SAPI  H14X21559   5.146   0.852   8.487 -0.0492  1.1969 -0.7856
  187SAPI  H14Y21560   5.041   0.707   8.525  1.1756  1.7225  1.0210
  187SAPI  C31521561   4.938   0.889   8.492  0.7966 -0.0213  0.3906
  187SAPI  H15X21562   4.950   0.988   8.443 -1.6532  1.0801  1.8115
  187SAPI  H15Y21563   4.926   0.907   8.602  1.9598  3.0660  0.1289
  187SAPI  C31621564   4.792   0.852   8.440 -0.0443  0.7339  0.7820
  187SAPI  H16X21565   4.779   0.752   8.487  2.2340  0.5485  1.1250
  187SAPI  H16Y21566   4.788   0.840   8.329  1.7092 -0.7699  0.8335
  187SAPI  C31721567   4.694   0.954   8.497 -0.2770 -0.5850 -0.8398
  187SAPI  H17X21568   4.689   1.045   8.433 -0.8655  1.3856  1.8540
  187SAPI  H17Y21569   4.728   0.985   8.597 -1.0322 -2.1212 -0.0685
  187SAPI  C31821570   4.549   0.912   8.497  0.1261  0.1304 -0.7054
  187SAPI  H18X21571   4.536   0.828   8.568 -0.5225  0.7199 -0.1114
  187SAPI  H18Y21572   4.528   0.895   8.389  0.0975  1.9332 -1.0079
  187SAPI  H18Z21573   4.486   0.997   8.529  0.4386  0.3614 -0.7014
  188SAPI   C1221574   0.472   5.326   6.145  0.2133 -0.1686 -0.1973
  188SAPI    H221575   0.456   5.433   6.118 -1.6419  0.0526  1.5902
  188SAPI    O221576   0.361   5.284   6.217 -0.4950 -0.1717  0.1233
  188SAPI   HO221577   0.387   5.295   6.309 -4.0689  0.7614  1.2020
  188SAPI   C1321578   0.487   5.243   6.019  0.1035  0.9446  0.2017
  188SAPI    H321579   0.581   5.274   5.969  1.2040 -1.8773  0.3637
  188SAPI    O321580   0.374   5.263   5.930 -0.5542 -0.2143 -0.2278
  188SAPI   HO321581   0.381   5.349   5.887  1.0683 -1.7447 -3.3580
  188SAPI   C1421582   0.505   5.094   6.058 -0.7512  0.1582  0.2431
  188SAPI    H421583   0.408   5.060   6.100 -0.5320  1.1922  1.6948
  188SAPI    O421584   0.525   5.015   5.944  0.1882 -0.0724 -0.2345
  188SAPI   HO421585   0.439   4.979   5.921  0.4789 -0.7467 -0.2803
  188SAPI   C1521586   0.629   5.081   6.151 -0.0124  0.3652  0.2812
  188SAPI    H521587   0.714   5.102   6.083  0.8175 -3.6924 -0.1738
  188SAPI    O521588   0.650   4.946   6.197  0.2531 -0.1481 -0.5396
  188SAPI   HO521589   0.695   4.958   6.281 -0.4994  2.3614 -0.4098
  188SAPI   C1621590   0.630   5.175   6.267  0.0809  0.3730  0.6412
  188SAPI    H621591   0.557   5.132   6.338  1.5515 -1.8059  0.9526
  188SAPI    O621592   0.761   5.183   6.329  0.5845 -0.3617  0.5483
  188SAPI   HO621593   0.765   5.248   6.400 -1.1490 -0.2708  0.5972
  188SAPI   C1121594   0.602   5.322   6.227 -0.3644  0.0084 -0.3083
  188SAPI    H121595   0.686   5.359   6.165  0.1885  1.1846  1.0779
  188SAPI     P21596   0.691   5.489   6.417  0.6762  0.0013  0.4707
  188SAPI   O1321597   0.615   5.582   6.502 -0.0263 -0.0082 -0.0865
  188SAPI   O1421598   0.794   5.537   6.322 -0.1626 -0.2225 -0.2793
  188SAPI   O1221599   0.573   5.406   6.341 -0.3736 -0.1830 -0.2785
  188SAPI   O1121600   0.758   5.385   6.507  0.3693  0.5394 -0.4567
  188SAPI    C121601   0.765   5.385   6.647  0.2308  0.4949 -0.7481
  188SAPI    HA21602   0.862   5.424   6.681  1.0758 -0.0688 -2.3869
  188SAPI    HB21603   0.692   5.458   6.688  0.9359  2.4238 -2.7430
  188SAPI    C221604   0.756   5.239   6.702  0.1917 -0.4898  0.5235
  188SAPI    HS21605   0.667   5.195   6.652  1.7565 -0.1036 -2.8817
  188SAPI   O2121606   0.745   5.251   6.844  0.8061 -0.8475  0.3570
  188SAPI   C2121607   0.698   5.142   6.910 -0.0675 -0.7286  0.8189
  188SAPI   O2221608   0.645   5.047   6.857  0.0474 -0.1174 -0.3202
  188SAPI   C2221609   0.705   5.158   7.052  0.5266  0.0106  0.2392
  188SAPI   H2R21610   0.801   5.212   7.067  0.0953  0.6185  0.9017
  188SAPI   H2S21611   0.621   5.225   7.083  0.6409 -0.4651  1.5979
  188SAPI    C321612   0.890   5.168   6.660  1.1692  0.1896 -0.4219
  188SAPI    HX21613   0.903   5.176   6.550  1.7897  0.0406 -0.3624
  188SAPI    HY21614   0.864   5.061   6.677  0.6510  0.2254 -0.9421
  188SAPI   O3121615   0.999   5.222   6.733 -0.3449  0.0822 -0.0568
  188SAPI   C3121616   1.115   5.179   6.685 -0.5089 -0.9801 -0.5613
  188SAPI   O3221617   1.134   5.091   6.599  0.1570 -0.7696 -0.1868
  188SAPI   C3221618   1.227   5.264   6.754 -0.2922 -0.0961 -0.6101
  188SAPI   H2X21619   1.185   5.313   6.844 -0.3323  0.6061 -1.0045
  188SAPI   H2Y21620   1.270   5.341   6.686  2.5018 -1.8923 -1.0487
  188SAPI   C2321621   0.705   5.022   7.135  0.2771 -0.5137  0.0595
  188SAPI   H3R21622   0.765   4.945   7.083  0.9988 -0.1835  0.3849
  188SAPI   H3S21623   0.606   4.971   7.135  0.2985 -0.6438  1.8429
  188SAPI   C2421624   0.747   5.043   7.283  0.6100 -0.3084  0.0813
  188SAPI   H4R21625   0.685   5.126   7.323 -1.2679 -1.1053 -1.0617
  188SAPI   H4S21626   0.851   5.081   7.283  1.5024 -2.6096  0.1953
  188SAPI   C2521627   0.717   4.922   7.369  0.4132  0.1702 -0.3268
  188SAPI   H5R21628   0.665   4.845   7.309  1.1360  0.6051 -1.5458
  188SAPI   C2621629   0.748   4.909   7.500  0.4777 -0.0446  0.0353
  188SAPI   H6R21630   0.731   4.813   7.552  5.1422 -0.0381  2.0762
  188SAPI   C2721631   0.811   5.015   7.585 -0.4443  0.2944  0.0441
  188SAPI   H7R21632   0.725   5.067   7.631  0.1646  0.3454  1.1633
  188SAPI   H7S21633   0.875   5.092   7.538  1.1116 -0.1688  1.3169
  188SAPI   C2821634   0.897   4.953   7.700  0.5643  0.0738  0.4253
  188SAPI   H8R21635   1.002   4.936   7.673  0.2123  0.9480 -1.6212
  188SAPI   C2921636   0.853   4.919   7.822 -0.1175 -0.1156  0.2370
  188SAPI   H9R21637   0.933   4.875   7.884  0.0590  0.0610  0.1342
  188SAPI  C21021638   0.711   4.922   7.872  0.1839 -0.1336  0.1272
  188SAPI  H10R21639   0.641   4.896   7.790  0.5090  0.7323 -0.4339
  188SAPI  H10S21640   0.690   5.029   7.892  1.2735  0.2901 -0.8645
  188SAPI  C21121641   0.701   4.826   7.989 -0.3533 -0.3050  0.9783
  188SAPI  H11R21642   0.720   4.723   7.954  2.2650  0.8489 -1.3735
  188SAPI  C21221643   0.691   4.853   8.125 -0.4583  0.1438  0.0509
  188SAPI  H12R21644   0.686   4.761   8.185  1.7288 -0.3087 -0.3677
  188SAPI  C21321645   0.691   4.984   8.196 -0.3537 -0.1385  0.3028
  188SAPI  H13R21646   0.697   5.063   8.118 -1.3625 -0.8679 -0.5500
  188SAPI  H13S21647   0.785   4.994   8.255 -0.2430  4.3130 -0.3123
  188SAPI  C21421648   0.566   5.030   8.272  0.1554  0.1820 -0.6491
  188SAPI  H14R21649   0.483   5.042   8.201  0.4639  2.2011 -0.7292
  188SAPI  C21521650   0.542   5.059   8.400  0.2141 -0.5358 -0.5546
  188SAPI  H15R21651   0.443   5.099   8.425  1.7927  2.7349  0.9099
  188SAPI  C21621652   0.641   5.066   8.518 -0.0280 -0.4377  0.0196
  188SAPI  H16R21653   0.744   5.035   8.489  0.3981  1.3996 -0.5741
  188SAPI  H16S21654   0.595   4.993   8.588  0.5827 -2.0299 -1.1793
  188SAPI  C21721655   0.660   5.217   8.577  0.1347 -0.3164  1.3978
  188SAPI  H17R21656   0.716   5.195   8.670  0.1472 -3.3768  0.7602
  188SAPI  H17S21657   0.568   5.263   8.619 -0.0921 -2.0873  2.9828
  188SAPI  C21821658   0.731   5.322   8.488 -0.6203  0.5581 -0.2399
  188SAPI  H18R21659   0.822   5.277   8.442 -1.4154  2.0856 -3.6185
  188SAPI  H18S21660   0.768   5.407   8.549  1.2078 -0.8931  0.7866
  188SAPI  C21921661   0.642   5.387   8.378  0.3803 -0.1557  0.4269
  188SAPI  H19R21662   0.549   5.423   8.427  1.6972  1.6189  1.7632
  188SAPI  H19S21663   0.612   5.303   8.313  1.0146 -2.0696  2.4715
  188SAPI  C22021664   0.710   5.501   8.300 -0.3381 -0.0206  0.1341
  188SAPI  H20R21665   0.806   5.455   8.268 -0.5643 -1.4160  1.3427
  188SAPI  H20S21666   0.732   5.582   8.372  1.4743 -0.6950  0.3880
  188SAPI  H20T21667   0.643   5.526   8.215  0.1107 -0.5439 -0.3860
  188SAPI   C3321668   1.346   5.185   6.809  0.1034 -0.3302 -0.0698
  188SAPI   H3X21669   1.427   5.259   6.827 -0.3890 -0.0137  0.9218
  188SAPI   H3Y21670   1.386   5.119   6.729  2.3314 -0.4682  1.0884
  188SAPI   C3421671   1.314   5.120   6.941  0.0603  1.2072  0.6454
  188SAPI   H4X21672   1.373   5.025   6.946 -1.8115 -0.0413  0.0764
  188SAPI   H4Y21673   1.210   5.083   6.948  0.1390  0.5745 -1.0875
  188SAPI   C3521674   1.339   5.198   7.071  0.6788  0.5131  0.0273
  188SAPI   H5X21675   1.271   5.285   7.064 -2.5452 -1.8107  0.5496
  188SAPI   H5Y21676   1.446   5.228   7.076  0.7685  0.5898 -1.6677
  188SAPI   C3621677   1.305   5.110   7.195 -0.2763  0.6885 -0.3286
  188SAPI   H6X21678   1.361   5.015   7.208 -2.7254 -1.1968 -2.4906
  188SAPI   H6Y21679   1.196   5.087   7.201 -0.3303  1.2309  1.3160
  188SAPI   C3721680   1.336   5.186   7.318 -0.5677 -0.2155 -0.9821
  188SAPI   H7X21681   1.284   5.283   7.303  0.2920  0.6307  1.1381
  188SAPI   H7Y21682   1.442   5.219   7.316  0.1949 -2.3060  0.7076
  188SAPI   C3821683   1.296   5.115   7.454 -0.4021  0.0044  1.0196
  188SAPI   H8X21684   1.343   5.015   7.447  0.4053  0.4759 -3.5618
  188SAPI   H8Y21685   1.185   5.115   7.445 -0.2842 -0.7024 -0.9095
  188SAPI   C3921686   1.344   5.186   7.577 -0.9382  0.0472  0.2304
  188SAPI   H9X21687   1.285   5.280   7.583 -0.1797  0.6089 -0.6845
  188SAPI   H9Y21688   1.449   5.222   7.563 -0.6628 -0.9046 -0.2371
  188SAPI  C31021689   1.328   5.106   7.710 -0.4508 -0.4708  0.5272
  188SAPI  H10X21690   1.392   5.015   7.713 -0.0225 -0.3934 -2.7916
  188SAPI  H10Y21691   1.221   5.078   7.719 -0.4514 -0.2903  1.1794
  188SAPI  C31121692   1.374   5.201   7.828  0.9602  0.3558  0.9297
  188SAPI  H11X21693   1.325   5.299   7.809  1.6584  0.4059 -0.7545
  188SAPI  H11Y21694   1.484   5.215   7.815  0.8572 -0.5674 -1.4598
  188SAPI  C31221695   1.327   5.134   7.961 -0.4692 -0.2804 -0.6028
  188SAPI  H12X21696   1.377   5.197   8.038  0.9244  0.7876 -2.3103
  188SAPI  H12Y21697   1.373   5.034   7.971  0.8721  0.2410 -1.2638
  188SAPI  C31321698   1.175   5.115   7.985 -0.0704 -1.2294  0.5120
  188SAPI  H13X21699   1.140   5.017   7.945 -0.3083 -0.5736 -0.9590
  188SAPI  H13Y21700   1.119   5.189   7.924  0.8502 -1.7854 -1.0935
  188SAPI  C31421701   1.146   5.133   8.140  0.3009  0.1130  0.7452
  188SAPI  H14X21702   1.036   5.149   8.152  0.3995  2.2143 -0.5728
  188SAPI  H14Y21703   1.196   5.224   8.180  0.5863  0.1697  0.2649
  188SAPI  C31521704   1.193   5.023   8.226 -0.3122 -0.4475  0.8376
  188SAPI  H15X21705   1.301   5.011   8.204  0.3429  2.4422  2.0100
  188SAPI  H15Y21706   1.140   4.931   8.193  1.7883 -1.2017 -0.6478
  188SAPI  C31621707   1.175   5.040   8.378 -0.1631 -0.3542 -0.0907
  188SAPI  H16X21708   1.233   5.122   8.426  1.4123 -0.3758 -1.8479
  188SAPI  H16Y21709   1.220   4.951   8.426  0.1793 -0.4957 -0.6611
  188SAPI  C31721710   1.023   5.047   8.416 -0.7978 -0.0931 -0.2603
  188SAPI  H17X21711   0.961   4.967   8.371 -1.2527  1.0084 -1.6578
  188SAPI  H17Y21712   0.981   5.144   8.384  0.3915  0.2250 -0.9006
  188SAPI  C31821713   1.016   5.039   8.568 -0.2869 -0.5853  0.0284
  188SAPI  H18X21714   0.917   5.056   8.616 -1.2727 -0.4464 -1.9426
  188SAPI  H18Y21715   1.087   5.112   8.611  0.1037  0.8144 -2.7742
  188SAPI  H18Z21716   1.055   4.940   8.600  2.1074  0.4469  0.5173
  189POPC     N21717   6.237   5.694  11.364 -0.0219  0.2343 -0.0605
  189POPC   C1221718   6.173   5.606  11.257 -0.6726  0.0218  0.2985
  189POPC  H12A21719   6.107   5.544  11.315 -0.6772  0.6081  0.9334
  189POPC  H12B21720   6.248   5.541  11.216  1.8014  0.7976  3.2238
  189POPC   C1321721   6.134   5.764  11.441  0.2197  0.0531 -0.7939
  189POPC  H13A21722   6.169   5.842  11.507 -0.6449  1.6631 -2.1332
  189POPC  H13B21723   6.057   5.797  11.372 -0.7547 -1.0844 -0.2882
  189POPC  H13C21724   6.076   5.698  11.503 -0.8546  1.6452 -0.0338
  189POPC   C1421725   6.320   5.612  11.462 -0.2659 -0.1072  0.1808
  189POPC  H14A21726   6.251   5.542  11.506 -0.4214  0.9591  1.7201
  189POPC  H14B21727   6.409   5.570  11.418  2.0603  2.3319  2.2174
  189POPC  H14C21728   6.363   5.675  11.539  0.4145  1.8441 -1.6783
  189POPC   C1521729   6.325   5.792  11.302 -0.2906  0.5601 -0.2834
  189POPC  H15A21730   6.362   5.870  11.366 -3.0056  2.4774 -0.8613
  189POPC  H15B21731   6.267   5.854  11.235 -1.4398  0.5524  0.6872
  189POPC  H15C21732   6.399   5.740  11.242  0.1682 -1.2700  1.7620
  189POPC   C1121733   6.102   5.672  11.138 -0.9840  0.0452  0.6234
  189POPC  H11A21734   6.066   5.583  11.083 -0.2567 -0.7886  1.4597
  189POPC  H11B21735   6.165   5.721  11.060  0.2595 -1.3428  0.6987
  189POPC     P21736   5.928   5.849  11.070  0.2584 -0.1227 -0.5738
  189POPC   O1321737   5.961   5.991  11.106 -0.5184  0.2693 -0.0334
  189POPC   O1421738   5.780   5.831  11.059  0.0405  0.1190  0.5732
  189POPC   O1221739   5.991   5.753  11.169  0.8338 -0.6201 -0.3959
  189POPC   O1121740   5.999   5.812  10.939  0.3254 -0.4625  0.1957
  189POPC    C121741   5.924   5.732  10.844 -0.2462 -0.6152  0.5449
  189POPC    HA21742   5.818   5.760  10.826 -0.2401 -1.5886 -1.1888
  189POPC    HB21743   5.910   5.632  10.890  0.6390  0.0900  2.5009
  189POPC    C221744   6.001   5.729  10.711 -0.1654  1.0350 -0.4075
  189POPC    HS21745   5.950   5.661  10.639  1.6672 -0.8120 -0.0636
  189POPC   O2121746   6.138   5.678  10.730 -0.7058  0.3927  0.3721
  189POPC   C2121747   6.145   5.544  10.738 -0.2610 -0.0457  0.8247
  189POPC   O2221748   6.047   5.471  10.750 -0.5365 -0.5957 -0.1485
  189POPC   C2221749   6.294   5.505  10.747 -0.2709 -0.2173 -0.8819
  189POPC   H2R21750   6.300   5.405  10.795  1.8842  1.4490  2.8119
  189POPC   H2S21751   6.340   5.565  10.828  0.6799  0.4783 -1.9052
  189POPC    C321752   5.994   5.861  10.638 -0.0387 -0.4831  0.4928
  189POPC    HX21753   6.041   5.938  10.702  0.3045 -0.6739  0.4693
  189POPC    HY21754   5.886   5.886  10.623  0.5497  2.8037  1.0213
  189POPC   O3121755   6.058   5.839  10.508  0.0413 -0.7307 -0.0730
  189POPC   C3121756   6.040   5.927  10.412 -0.8234 -0.0541 -0.0381
  189POPC   O3221757   5.976   6.030  10.412 -0.4114  0.2064 -0.1371
  189POPC   C3221758   6.097   5.864  10.286  0.5013  0.7775  0.1350
  189POPC   H2X21759   6.091   5.755  10.264  1.1153  0.6390  0.6479
  189POPC   H2Y21760   6.202   5.899  10.275  1.2064 -0.5835  2.0861
  189POPC   C2321761   6.382   5.508  10.613  0.4693 -0.1761 -0.0014
  189POPC   H3R21762   6.360   5.410  10.564 -1.1589 -0.3839  1.0640
  189POPC   H3S21763   6.491   5.498  10.636  0.2771 -2.2116  0.2781
  189POPC   C2421764   6.360   5.630  10.518  0.1174 -0.0951 -1.1118
  189POPC   H4R21765   6.389   5.725  10.566 -3.6801  0.9393 -0.4953
  189POPC   H4S21766   6.256   5.654  10.485  0.2640  1.0627 -0.7835
  189POPC   C2521767   6.445   5.621  10.391 -0.5009 -0.2469 -0.3580
  189POPC   H5R21768   6.549   5.587  10.412  0.0427  2.0773  1.1259
  189POPC   H5S21769   6.455   5.727  10.358  0.5083  0.1948  1.2229
  189POPC   C2621770   6.387   5.536  10.276  0.2218  0.4241  0.3982
  189POPC   H6R21771   6.289   5.582  10.249  0.4418 -0.7505 -2.8663
  189POPC   H6S21772   6.359   5.434  10.311  0.3599 -0.2790 -1.4098
  189POPC   C2721773   6.483   5.516  10.156  0.5167 -0.1053  0.8100
  189POPC   H7R21774   6.578   5.483  10.205  0.2758  0.4550  1.6803
  189POPC   H7S21775   6.504   5.611  10.102  0.0887 -0.9027 -0.8071
  189POPC   C2821776   6.427   5.409  10.064  0.4008  0.2895  0.4022
  189POPC   H8R21777   6.327   5.447  10.034  0.5394 -1.0385 -2.0079
  189POPC   H8S21778   6.433   5.314  10.122  3.5143 -0.3002 -0.7224
  189POPC   C2921779   6.511   5.387   9.944 -0.2126 -0.8020 -0.4577
  189POPC   H9121780   6.613   5.352   9.967  0.2947 -0.0654 -1.5235
  189POPC  C21021781   6.478   5.403   9.817 -1.0930 -0.2538 -0.0697
  189POPC  H10121782   6.558   5.381   9.745  0.3094  0.8867  1.0759
  189POPC  C21121783   6.352   5.470   9.763 -0.0164 -0.4789  0.1541
  189POPC  H11R21784   6.293   5.531   9.834 -0.6219 -0.7706 -0.0946
  189POPC  H11S21785   6.285   5.397   9.714  0.7652  0.2384 -2.1844
  189POPC  C21221786   6.393   5.553   9.639  0.5979  0.0689 -0.2681
  189POPC  H12R21787   6.454   5.498   9.564  0.0801 -0.5194 -0.2673
  189POPC  H12S21788   6.464   5.634   9.668  0.2715  0.8392 -1.5256
  189POPC  C21321789   6.273   5.611   9.552  0.3771 -0.4921 -0.0846
  189POPC  H13R21790   6.207   5.533   9.509 -1.0288  2.5650 -4.1323
  189POPC  H13S21791   6.321   5.662   9.465  1.5364 -0.8868  0.3056
  189POPC  C21421792   6.174   5.696   9.625  0.1705 -0.0746 -0.5396
  189POPC  H14R21793   6.227   5.784   9.666  0.4304 -0.2578 -0.4813
  189POPC  H14S21794   6.122   5.651   9.712 -1.1492  0.0688 -1.2207
  189POPC  C21521795   6.051   5.749   9.538 -0.1452  0.3679 -0.0501
  189POPC  H15R21796   5.984   5.670   9.500  0.5890 -0.3395  0.1026
  189POPC  H15S21797   6.105   5.789   9.449 -0.6606  0.5140 -0.3018
  189POPC  C21621798   5.982   5.861   9.611  0.6736  0.2416 -0.5129
  189POPC  H16R21799   6.032   5.960   9.618 -1.0112  1.0967 -0.1418
  189POPC  H16S21800   5.970   5.826   9.716  0.2756 -1.5921 -1.1399
  189POPC  C21721801   5.849   5.902   9.546  0.0617 -0.2011 -0.1416
  189POPC  H17R21802   5.797   5.979   9.606  1.9338  0.7479  0.3142
  189POPC  H17S21803   5.785   5.811   9.552 -2.2578  1.3195 -0.5123
  189POPC  C21821804   5.869   5.952   9.398  0.2489 -0.1290  0.1061
  189POPC  H18R21805   5.933   6.043   9.402  0.4756 -0.0708 -2.9747
  189POPC  H18S21806   5.775   5.985   9.349  0.3835 -0.7691 -0.5903
  189POPC  H18T21807   5.925   5.881   9.335 -1.1681 -1.4446  0.2710
  189POPC   C3321808   6.032   5.934  10.165  0.3234  0.5666  0.3646
  189POPC   H3X21809   6.087   6.029  10.144  1.7150 -0.7424 -2.3911
  189POPC   H3Y21810   5.922   5.940  10.176  0.1823  2.3882 -1.4373
  189POPC   C3421811   6.042   5.853  10.038 -0.4766  0.2658 -0.9478
  189POPC   H4X21812   5.990   5.911   9.958 -0.3045  1.9280  0.1050
  189POPC   H4Y21813   5.978   5.762  10.047  0.4517 -0.2020  1.8202
  189POPC   C3521814   6.189   5.828   9.994 -0.4112  0.1284  0.4776
  189POPC   H5X21815   6.182   5.769   9.900  2.1266  0.2174  0.1717
  189POPC   H5Y21816   6.248   5.766  10.065  1.2019  0.6030 -0.4031
  189POPC   C3621817   6.273   5.951   9.954 -0.2762  0.2838  0.2122
  189POPC   H6X21818   6.297   6.029  10.029  0.5923  1.2733 -1.0603
  189POPC   H6Y21819   6.216   5.990   9.867 -0.6401  1.4684  0.9661
  189POPC   C3721820   6.406   5.907   9.898 -0.3133 -0.3816  0.1520
  189POPC   H7X21821   6.407   5.806   9.850  1.3931 -0.8377  1.0380
  189POPC   H7Y21822   6.465   5.904   9.992 -1.8810 -0.0798  1.1767
  189POPC   C3821823   6.453   6.026   9.805 -0.0405  0.2253  0.2664
  189POPC   H8X21824   6.562   6.045   9.800 -0.2482  1.1581 -1.3042
  189POPC   H8Y21825   6.401   6.118   9.839 -0.4741  0.5979 -1.2977
  189POPC   C3921826   6.395   6.002   9.663  0.7201 -0.6377  0.2571
  189POPC   H9X21827   6.287   5.977   9.673  0.8487 -1.9149 -1.2308
  189POPC   H9Y21828   6.445   5.909   9.629  1.4595 -0.5693  1.1088
  189POPC  C31021829   6.430   6.124   9.579 -0.2151 -0.0681  0.2238
  189POPC  H10X21830   6.537   6.151   9.595 -0.6878  1.5586  0.8220
  189POPC  H10Y21831   6.369   6.215   9.598  0.5555  0.3275  0.8994
  189POPC  C31121832   6.406   6.101   9.428 -0.2855  0.3308 -0.1929
  189POPC  H11X21833   6.483   6.035   9.383 -2.4696 -1.1066 -2.0958
  189POPC  H11Y21834   6.407   6.202   9.382  1.7331  0.1514 -0.6218
  189POPC  C31221835   6.265   6.044   9.392 -0.3113 -0.0240 -0.5175
  189POPC  H12X21836   6.190   6.096   9.454  0.9647  3.2132 -1.4789
  189POPC  H12Y21837   6.267   5.946   9.443 -2.1958  0.6805  1.0198
  189POPC  C31321838   6.201   6.055   9.252  0.3243  0.3793 -0.1953
  189POPC  H13X21839   6.199   6.157   9.208  1.9355  0.4513 -0.1495
  189POPC  H13Y21840   6.095   6.021   9.254  1.0779 -2.3317 -1.7040
  189POPC  C31421841   6.268   5.940   9.170  0.5271 -0.2330  0.2829
  189POPC  H14X21842   6.262   5.848   9.232  0.1996  0.8469  1.9283
  189POPC  H14Y21843   6.374   5.973   9.165  0.2672  0.8729  1.5010
  189POPC  C31521844   6.220   5.909   9.026 -0.3444 -0.6023 -0.2833
  189POPC  H15X21845   6.117   5.866   9.029 -0.3030 -0.8651 -1.6961
  189POPC  H15Y21846   6.284   5.826   8.988 -0.5300 -0.0184 -1.9378
  189POPC  C31621847   6.216   6.020   8.923  0.2070  0.4296  0.1892
  189POPC  H16X21848   6.313   6.026   8.868 -0.5459  0.9352 -1.1369
  189POPC  H16Y21849   6.204   6.121   8.968 -0.0300  0.8412 -0.7707
  189POPC  H16Z21850   6.150   6.013   8.834  2.8706  0.1934 -1.9197
  190POPC     N21851   2.678   2.912  11.269  0.4797  0.5803 -0.5199
  190POPC   C1221852   2.760   3.041  11.250 -0.2893 -0.3812  0.3818
  190POPC  H12A21853   2.857   3.015  11.209  0.0060  1.3885 -0.1291
  190POPC  H12B21854   2.779   3.091  11.344  2.3495 -1.7440  0.6762
  190POPC   C1321855   2.696   2.834  11.140 -0.3822  0.0116 -0.1885
  190POPC  H13A21856   2.664   2.896  11.058 -0.4295 -2.8931 -2.4916
  190POPC  H13B21857   2.800   2.806  11.133 -1.1590 -3.7980  0.9955
  190POPC  H13C21858   2.640   2.743  11.127 -2.1538  1.1900 -1.2374
  190POPC   C1421859   2.746   2.833  11.380 -0.7494  0.0428 -0.2581
  190POPC  H14A21860   2.846   2.807  11.350 -0.2891 -2.1267  2.6684
  190POPC  H14B21861   2.756   2.900  11.464  0.2760 -1.7659  1.1580
  190POPC  H14C21862   2.686   2.749  11.412 -2.4572  1.1756 -0.3467
  190POPC   C1521863   2.538   2.943  11.302  0.1619  0.5530  0.7064
  190POPC  H15A21864   2.506   3.024  11.237  1.9136  1.7023  1.1943
  190POPC  H15B21865   2.522   2.968  11.405 -1.0859 -0.5352  0.7997
  190POPC  H15C21866   2.464   2.864  11.299 -0.1055  0.8234 -1.1931
  190POPC   C1121867   2.701   3.150  11.149  0.5578 -0.1989 -0.2909
  190POPC  H11A21868   2.670   3.096  11.058  0.7413  0.4898 -0.7671
  190POPC  H11B21869   2.770   3.233  11.123 -0.9974  1.5732  1.0149
  190POPC     P21870   2.507   3.332  11.143  0.2296  0.0318  0.1337
  190POPC   O1321871   2.595   3.447  11.128 -0.4224  0.2928 -0.0481
  190POPC   O1421872   2.383   3.353  11.220 -0.1169  0.3326 -0.3341
  190POPC   O1221873   2.584   3.204  11.201  0.0620 -0.2641 -0.0404
  190POPC   O1121874   2.467   3.279  10.998 -0.0317  0.2564 -0.1475
  190POPC    C121875   2.353   3.194  10.973  0.7593 -0.2284  0.6502
  190POPC    HA21876   2.263   3.241  11.017  1.3903 -0.6937  2.5227
  190POPC    HB21877   2.369   3.096  11.022  2.0731 -0.2356  0.2689
  190POPC    C221878   2.333   3.157  10.825 -0.2206 -0.3974 -0.0948
  190POPC    HS21879   2.264   3.070  10.829 -0.6101 -0.0609  1.6835
  190POPC   O2121880   2.462   3.128  10.768 -0.3235  0.0617  0.0602
  190POPC   C2121881   2.519   3.018  10.799 -0.6001 -0.7853  0.2616
  190POPC   O2221882   2.471   2.938  10.882 -0.7406 -0.0311  0.8635
  190POPC   C2221883   2.650   3.005  10.725  0.0752  0.1185 -0.2919
  190POPC   H2R21884   2.728   3.025  10.802 -2.3146  0.4058  2.2280
  190POPC   H2S21885   2.663   3.089  10.654 -1.0438  0.1885 -0.4346
  190POPC    C321886   2.254   3.265  10.742 -0.5373  0.1545 -0.3831
  190POPC    HX21887   2.335   3.342  10.741  0.7214 -1.1349 -0.3647
  190POPC    HY21888   2.167   3.298  10.804  0.3948  0.4775  0.7969
  190POPC   O3121889   2.205   3.208  10.620 -0.1743 -0.0348  0.4535
  190POPC   C3121890   2.216   3.293  10.516 -0.3766 -0.1464  0.8525
  190POPC   O3221891   2.257   3.409  10.532 -0.0335  0.0462 -0.2396
  190POPC   C3221892   2.174   3.221  10.395 -0.4707 -0.4531  0.9915
  190POPC   H2X21893   2.075   3.172  10.409 -0.9579 -0.0884 -0.9189
  190POPC   H2Y21894   2.249   3.140  10.398 -1.5492 -1.6192 -1.2039
  190POPC   C2321895   2.658   2.865  10.663  0.4247 -0.6187  0.2817
  190POPC   H3R21896   2.642   2.781  10.735  0.0582 -2.0809 -1.4277
  190POPC   H3S21897   2.764   2.857  10.631 -0.0997 -2.1007 -1.2218
  190POPC   C2421898   2.578   2.842  10.537 -0.7808  0.0620 -0.6955
  190POPC   H4R21899   2.474   2.827  10.573 -0.8871 -0.7381 -1.3109
  190POPC   H4S21900   2.613   2.744  10.500 -0.7386  0.4706 -1.7792
  190POPC   C2521901   2.583   2.949  10.428  0.3820  0.1234  0.1517
  190POPC   H5R21902   2.680   2.938  10.374 -0.0297 -1.5515 -0.3049
  190POPC   H5S21903   2.574   3.051  10.469  0.1369  0.0135  0.3669
  190POPC   C2621904   2.488   2.923  10.306  0.0646  0.5934 -0.0231
  190POPC   H6R21905   2.393   2.913  10.362 -0.2539 -1.2643 -0.8299
  190POPC   H6S21906   2.511   2.825  10.260 -0.9995  0.6204 -0.6482
  190POPC   C2721907   2.482   3.045  10.207  0.1403  0.3111 -0.4202
  190POPC   H7R21908   2.576   3.073  10.155  1.4696 -0.3373  1.5260
  190POPC   H7S21909   2.455   3.132  10.270  1.0656  1.5169 -1.6235
  190POPC   C2821910   2.377   3.018  10.110 -0.1175 -0.4616  0.4363
  190POPC   H8R21911   2.274   3.016  10.152  0.4260  2.3743  2.1995
  190POPC   H8S21912   2.398   2.914  10.079 -1.5562 -0.2125 -1.5843
  190POPC   C2921913   2.376   3.112   9.990 -0.3319  0.5328 -0.9875
  190POPC   H9121914   2.352   3.216  10.018 -0.1533  0.0111  1.2843
  190POPC  C21021915   2.384   3.077   9.865 -0.3764 -0.3770  0.5988
  190POPC  H10121916   2.379   3.156   9.789 -0.1277 -0.8030  0.1371
  190POPC  C21121917   2.408   2.945   9.798  0.7045  0.4880 -0.2760
  190POPC  H11R21918   2.308   2.918   9.757  0.0782  0.2330  1.3744
  190POPC  H11S21919   2.428   2.862   9.869 -0.4158  0.4955  0.0654
  190POPC  C21221920   2.511   2.951   9.682  0.2611 -0.9000  0.0406
  190POPC  H12R21921   2.617   2.951   9.718  1.2424 -1.5658 -2.6264
  190POPC  H12S21922   2.502   3.048   9.629  3.6158  0.3876  1.5322
  190POPC  C21321923   2.498   2.833   9.584  0.1617 -0.4011 -0.4207
  190POPC  H13R21924   2.484   2.741   9.645 -0.0454 -2.0438 -2.8303
  190POPC  H13S21925   2.589   2.825   9.521  0.1021 -1.3499 -0.4023
  190POPC  C21421926   2.375   2.844   9.497 -0.4168  0.1943  0.1266
  190POPC  H14R21927   2.281   2.845   9.557  1.2127 -0.7847  2.9091
  190POPC  H14S21928   2.385   2.749   9.441 -1.2277  0.7489 -1.0079
  190POPC  C21521929   2.391   2.944   9.378  0.1158  0.3735 -0.3977
  190POPC  H15R21930   2.501   2.950   9.368  0.3983  1.9708  2.5591
  190POPC  H15S21931   2.350   3.043   9.408 -2.6122 -0.9983  0.8167
  190POPC  C21621932   2.338   2.906   9.240 -0.0311  0.3959  0.0308
  190POPC  H16R21933   2.401   2.833   9.185  0.0657  0.4436  0.0768
  190POPC  H16S21934   2.344   2.995   9.173  0.4795  1.1071  0.9985
  190POPC  C21721935   2.200   2.845   9.254  0.6574 -0.5793 -0.1294
  190POPC  H17R21936   2.197   2.757   9.321 -0.6927 -0.0856  0.5012
  190POPC  H17S21937   2.166   2.810   9.155  1.3227 -0.2568 -0.4837
  190POPC  C21821938   2.087   2.942   9.304  0.3988 -0.5629 -0.5176
  190POPC  H18R21939   2.099   2.969   9.411 -3.0128  0.7032 -0.3381
  190POPC  H18S21940   1.988   2.894   9.291 -0.5698  1.2801 -0.3426
  190POPC  H18T21941   2.084   3.036   9.244 -0.3479  1.6994  2.7754
  190POPC   C3321942   2.187   3.294  10.261  0.6665  0.2683  0.3774
  190POPC   H3X21943   2.200   3.223  10.176  2.1484  2.0120 -0.9602
  190POPC   H3Y21944   2.279   3.357  10.265 -0.5722  2.0961  1.2832
  190POPC   C3421945   2.071   3.402  10.236 -0.0324  0.0371  0.3671
  190POPC   H4X21946   2.068   3.483  10.312 -3.2909 -0.0559  0.4645
  190POPC   H4Y21947   1.969   3.359  10.243 -0.7411  1.7262  0.9618
  190POPC   C3521948   2.068   3.472  10.095  0.2372  0.0946  0.0584
  190POPC   H5X21949   2.169   3.516  10.080  1.6317 -3.3155 -2.0355
  190POPC   H5Y21950   1.990   3.550  10.086  0.1354 -0.0961 -0.9410
  190POPC   C3621951   2.025   3.381   9.980  0.4800  0.1155  0.2074
  190POPC   H6X21952   1.917   3.361   9.994  0.6022 -0.4829  0.3416
  190POPC   H6Y21953   2.087   3.289   9.985 -0.2072 -0.2979  1.5066
  190POPC   C3721954   2.062   3.445   9.840  0.4066 -0.3742  0.2521
  190POPC   H7X21955   2.172   3.460   9.834  0.2917  0.3637 -0.1700
  190POPC   H7Y21956   2.014   3.545   9.844  1.8264  0.3248  0.6026
  190POPC   C3821957   1.996   3.364   9.726  0.3818  0.3768  0.3210
  190POPC   H8X21958   1.887   3.382   9.739  1.0249  2.9310  3.4355
  190POPC   H8Y21959   2.016   3.256   9.745  0.8749  0.7404  2.0344
  190POPC   C3921960   2.033   3.393   9.580  0.1020  0.5144  0.3343
  190POPC   H9X21961   2.141   3.372   9.571 -0.4464 -2.1745 -1.2414
  190POPC   H9Y21962   2.021   3.500   9.550  1.2363  0.4533 -0.3769
  190POPC  C31021963   1.944   3.308   9.479  0.1585 -0.0259  0.6464
  190POPC  H10X21964   1.838   3.333   9.502 -0.4317  0.0428 -1.9170
  190POPC  H10Y21965   1.956   3.198   9.480 -1.6489 -0.2575  1.0217
  190POPC  C31121966   1.978   3.342   9.326  0.0505 -0.1873  0.5903
  190POPC  H11X21967   2.072   3.291   9.295 -0.0604 -0.6921  1.0711
  190POPC  H11Y21968   1.979   3.453   9.314  1.3168 -0.3316 -1.0224
  190POPC  C31221969   1.867   3.300   9.234  0.0734  0.0339 -0.0666
  190POPC  H12X21970   1.781   3.371   9.235 -2.4313 -2.6633 -2.8973
  190POPC  H12Y21971   1.827   3.201   9.263 -1.3714 -0.0030 -2.0507
  190POPC  C31321972   1.919   3.303   9.082 -0.1629 -0.5282  0.0097
  190POPC  H13X21973   2.000   3.227   9.084  1.6667  1.3145 -0.8061
  190POPC  H13Y21974   1.967   3.401   9.068  1.7728 -1.0472  2.3276
  190POPC  C31421975   1.816   3.249   8.986 -0.2257 -1.1201 -0.2584
  190POPC  H14X21976   1.733   3.324   8.987  0.9947  0.5152 -3.9565
  190POPC  H14Y21977   1.776   3.152   9.021 -0.1085  0.0322  3.5132
  190POPC  C31521978   1.862   3.248   8.837 -0.4417  0.8751  0.8248
  190POPC  H15X21979   1.945   3.179   8.808 -3.5415 -2.6403 -0.4602
  190POPC  H15Y21980   1.902   3.345   8.801  3.6414 -1.2102 -0.9386
  190POPC  C31621981   1.742   3.203   8.755 -0.4843  0.7213  0.5764
  190POPC  H16X21982   1.751   3.214   8.645  2.5913  1.6072  0.8336
  190POPC  H16Y21983   1.647   3.260   8.770 -1.8412 -1.2643 -0.0017
  190POPC  H16Z21984   1.714   3.100   8.785 -0.2501  0.4467 -0.1164
  191POPC     N21985   4.520   2.647   6.168 -0.0364 -0.5290  0.5518
  191POPC   C1221986   4.416   2.704   6.263 -0.7477 -0.6405 -0.0947
  191POPC  H12A21987   4.338   2.632   6.284 -2.9438  1.3202 -0.9770
  191POPC  H12B21988   4.367   2.788   6.215 -2.8928  0.3627  3.4944
  191POPC   C1321989   4.619   2.558   6.232 -0.2285 -0.2711 -0.1537
  191POPC  H13A21990   4.582   2.463   6.269  2.1036 -1.8883 -1.6516
  191POPC  H13B21991   4.694   2.523   6.162  0.5574 -1.6304  1.2805
  191POPC  H13C21992   4.664   2.606   6.318  0.7207 -1.7669  0.2459
  191POPC   C1421993   4.443   2.570   6.070  0.3345  0.0942  1.2189
  191POPC  H14A21994   4.504   2.541   5.986 -0.9893 -1.3405  0.7111
  191POPC  H14B21995   4.398   2.482   6.114 -2.1870  1.9185  2.5357
  191POPC  H14C21996   4.366   2.634   6.030  1.7105  1.5587  0.8111
  191POPC   C1521997   4.588   2.769   6.100 -0.4694  0.5042  0.0265
  191POPC  H15A21998   4.517   2.843   6.067 -1.7457 -0.9088 -0.4999
  191POPC  H15B21999   4.650   2.738   6.017  1.4796 -0.4377  1.7491
  191POPC  H15C22000   4.668   2.798   6.166  0.3070  1.4137 -1.2511
  191POPC   C1122001   4.474   2.758   6.400 -0.2221 -0.7840 -0.1017
  191POPC  H11A22002   4.543   2.688   6.452  0.6413  2.1633  3.0245
  191POPC  H11B22003   4.399   2.763   6.482  1.5331 -0.0491  1.5270
  191POPC     P22004   4.442   3.014   6.364 -0.2430  0.6520 -0.1885
  191POPC   O1322005   4.307   2.969   6.326  0.0037  0.3034  0.1762
  191POPC   O1422006   4.514   3.111   6.282 -0.2430 -0.2636 -0.0075
  191POPC   O1222007   4.538   2.884   6.374 -0.2099 -0.0905  0.3999
  191POPC   O1122008   4.456   3.061   6.514  0.2127 -0.0529  0.4604
  191POPC    C122009   4.585   3.074   6.568 -0.3095 -0.0328  0.5523
  191POPC    HA22010   4.643   3.158   6.524 -0.5996  0.3346  0.8740
  191POPC    HB22011   4.649   2.983   6.557  0.0672  0.1915  0.8841
  191POPC    C222012   4.572   3.096   6.722 -0.0729 -0.3878 -0.4049
  191POPC    HS22013   4.662   3.051   6.769 -3.0442 -5.5649  1.0836
  191POPC   O2122014   4.453   3.025   6.766  0.2361 -0.3914  0.1916
  191POPC   C2122015   4.453   2.897   6.772  0.0702  0.5930 -0.2440
  191POPC   O2222016   4.551   2.828   6.749 -0.0341 -0.2507  0.2192
  191POPC   C2222017   4.314   2.842   6.805 -0.3789 -0.6388 -0.1679
  191POPC   H2R22018   4.326   2.735   6.830 -0.4585 -0.4130  0.8806
  191POPC   H2S22019   4.251   2.861   6.716  0.1045  0.6494 -0.2560
  191POPC    C322020   4.571   3.248   6.769 -0.1398  0.0227 -0.1838
  191POPC    HX22021   4.491   3.306   6.718 -0.0515  1.8643  1.6649
  191POPC    HY22022   4.666   3.297   6.737 -0.1931  1.0120  1.1027
  191POPC   O3122023   4.539   3.257   6.909 -0.4277 -0.5546 -0.0772
  191POPC   C3122024   4.522   3.377   6.968  0.2043  0.0304  0.4818
  191POPC   O3222025   4.524   3.483   6.913 -0.6021  0.0423  0.3698
  191POPC   C3222026   4.493   3.354   7.113  0.1912  0.7671 -0.4194
  191POPC   H2X22027   4.585   3.388   7.165  0.8837 -0.7998 -0.5837
  191POPC   H2Y22028   4.472   3.247   7.133  1.3625  0.8261  1.3711
  191POPC   C2322029   4.247   2.906   6.930 -0.1551 -1.0258  0.1723
  191POPC   H3R22030   4.143   2.866   6.932  0.7895 -3.6526  0.2991
  191POPC   H3S22031   4.242   3.015   6.910  0.6066 -0.6829  1.6739
  191POPC   C2422032   4.321   2.893   7.062 -0.5615  0.1670 -0.6584
  191POPC   H4R22033   4.419   2.942   7.041 -0.8029  0.0487 -2.1730
  191POPC   H4S22034   4.348   2.786   7.071  0.1949  0.0102 -3.6792
  191POPC   C2522035   4.236   2.940   7.179  0.9353 -0.1347 -0.4519
  191POPC   H5R22036   4.151   2.874   7.207 -0.5585  2.2615  0.9288
  191POPC   H5S22037   4.193   3.038   7.149  2.1957  0.5977  0.0328
  191POPC   C2622038   4.307   2.955   7.316 -0.3514 -0.3948 -0.2897
  191POPC   H6R22039   4.368   3.047   7.324 -0.8240  0.0838 -1.7730
  191POPC   H6S22040   4.376   2.869   7.330 -1.0257 -1.0437 -0.8672
  191POPC   C2722041   4.214   2.973   7.433  0.2206 -0.1632 -0.1778
  191POPC   H7R22042   4.149   2.882   7.433  3.5417 -2.8037  2.2216
  191POPC   H7S22043   4.156   3.068   7.433  2.1231  1.1123 -2.8166
  191POPC   C2822044   4.297   2.975   7.561 -0.3916  0.4517 -0.3065
  191POPC   H8R22045   4.369   3.058   7.546  0.1071  0.1105  0.1730
  191POPC   H8S22046   4.352   2.879   7.570 -2.6032 -0.8374  0.2585
  191POPC   C2922047   4.212   3.001   7.686  0.2661 -0.2550  0.0941
  191POPC   H9122048   4.171   3.102   7.675 -1.7477 -1.1316 -0.8116
  191POPC  C21022049   4.193   2.922   7.791 -0.4178 -0.2420  0.3467
  191POPC  H10122050   4.123   2.943   7.873  0.3051  1.7411  0.4878
  191POPC  C21122051   4.242   2.781   7.806  0.0824  0.2246  0.9952
  191POPC  H11R22052   4.293   2.730   7.722  0.7373 -1.2093  2.2151
  191POPC  H11S22053   4.161   2.712   7.838 -0.2640  0.3762  0.4607
  191POPC  C21222054   4.351   2.780   7.915  0.4600 -0.2690  0.0484
  191POPC  H12R22055   4.426   2.853   7.879 -1.0724  1.2753 -0.2120
  191POPC  H12S22056   4.381   2.674   7.913 -1.3948 -0.8332 -2.2043
  191POPC  C21322057   4.304   2.817   8.056  0.4645  0.6609  0.3538
  191POPC  H13R22058   4.274   2.923   8.071  0.3820  0.8369 -0.9459
  191POPC  H13S22059   4.392   2.802   8.123  0.7676  1.5417  0.1653
  191POPC  C21422060   4.191   2.723   8.101  0.2200  0.3814  0.0168
  191POPC  H14R22061   4.200   2.624   8.051  1.6218  0.7273 -0.4373
  191POPC  H14S22062   4.096   2.769   8.064  0.8765  1.4543 -0.3627
  191POPC  C21522063   4.179   2.713   8.250  0.3136  0.0321 -0.0409
  191POPC  H15R22064   4.083   2.672   8.291  0.4709  1.1241  1.5201
  191POPC  H15S22065   4.194   2.817   8.286 -1.0404 -0.2117  1.3718
  191POPC  C21622066   4.290   2.622   8.307  0.2200  0.2168  0.2492
  191POPC  H16R22067   4.389   2.658   8.271  0.2112 -0.2208 -0.2245
  191POPC  H16S22068   4.281   2.517   8.270 -0.3015 -0.6124  2.5342
  191POPC  C21722069   4.305   2.620   8.458  0.3022 -0.3705 -0.3113
  191POPC  H17R22070   4.324   2.724   8.493  0.5010 -0.9919  1.5573
  191POPC  H17S22071   4.402   2.573   8.485  0.9174  1.3267  0.6026
  191POPC  C21822072   4.187   2.554   8.522  0.9610  0.6350  1.3429
  191POPC  H18R22073   4.170   2.451   8.482  2.1976  0.2601  1.7595
  191POPC  H18S22074   4.090   2.608   8.510 -0.6518 -1.8283  2.4176
  191POPC  H18T22075   4.201   2.539   8.631 -1.1173 -0.3304  1.5266
  191POPC   C3322076   4.362   3.432   7.150  0.5240  1.1439 -0.2421
  191POPC   H3X22077   4.278   3.390   7.091  2.2179 -2.3429 -0.4053
  191POPC   H3Y22078   4.367   3.539   7.119  1.2155  1.7159  1.6679
  191POPC   C3422079   4.312   3.435   7.298  0.2130  0.0984 -0.1827
  191POPC   H4X22080   4.310   3.332   7.341 -0.2266 -1.2381 -3.1563
  191POPC   H4Y22081   4.206   3.469   7.297 -0.1424 -0.9559  0.3536
  191POPC   C3522082   4.383   3.539   7.388 -0.6260 -0.4164 -0.0009
  191POPC   H5X22083   4.376   3.634   7.330 -0.1990 -1.9157 -2.6679
  191POPC   H5Y22084   4.489   3.511   7.408 -0.5404  0.5644  1.0687
  191POPC   C3622085   4.312   3.559   7.523  0.2693 -0.2962  0.2778
  191POPC   H6X22086   4.207   3.571   7.487  0.4123  1.9539  0.4851
  191POPC   H6Y22087   4.333   3.657   7.570  2.1199 -1.2902  1.6620
  191POPC   C3722088   4.326   3.441   7.623  0.2108 -0.0314 -0.2534
  191POPC   H7X22089   4.428   3.427   7.666 -0.0036  1.3898  0.7976
  191POPC   H7Y22090   4.306   3.347   7.568  2.2574 -0.6050 -0.0952
  191POPC   C3822091   4.223   3.450   7.738 -0.0026 -0.1128 -0.3632
  191POPC   H8X22092   4.138   3.395   7.693 -0.1200 -0.5053  0.3118
  191POPC   H8Y22093   4.195   3.552   7.770  0.7265 -1.0171  3.7684
  191POPC   C3922094   4.258   3.367   7.858  0.2619 -0.1721 -0.8355
  191POPC   H9X22095   4.346   3.418   7.904 -2.2854  3.7866  0.0316
  191POPC   H9Y22096   4.291   3.271   7.811  1.1884  1.0571 -2.8248
  191POPC  C31022097   4.150   3.338   7.965  0.1265 -0.4888 -0.1959
  191POPC  H10X22098   4.072   3.269   7.925  0.1230 -1.5725  1.5801
  191POPC  H10Y22099   4.095   3.431   7.991 -1.0320 -1.3503  0.5179
  191POPC  C31122100   4.209   3.275   8.094  0.0193  0.5104 -0.0242
  191POPC  H11X22101   4.268   3.359   8.136  1.1763  0.5742 -1.6582
  191POPC  H11Y22102   4.273   3.188   8.067 -0.9090 -0.3639  0.5365
  191POPC  C31222103   4.107   3.222   8.203 -0.0326 -0.3155  0.1206
  191POPC  H12X22104   4.157   3.154   8.275  1.9274 -0.8535 -1.6537
  191POPC  H12Y22105   4.024   3.170   8.150 -0.7829  0.2318  0.7332
  191POPC  C31322106   4.053   3.337   8.297  0.0600 -0.6226  0.9224
  191POPC  H13X22107   4.034   3.431   8.240  1.9393 -1.4463 -1.2135
  191POPC  H13Y22108   4.130   3.365   8.372  1.7116 -0.0190 -0.9110
  191POPC  C31422109   3.917   3.304   8.369  0.2508 -0.2583  0.8720
  191POPC  H14X22110   3.929   3.216   8.437 -1.6349 -0.9091  0.4447
  191POPC  H14Y22111   3.836   3.292   8.294  1.0548  4.2073 -0.9724
  191POPC  C31522112   3.860   3.409   8.462  0.4191  0.0086 -0.1174
  191POPC  H15X22113   3.752   3.387   8.472  0.0777  1.2686 -0.6943
  191POPC  H15Y22114   3.856   3.505   8.406 -1.1922  0.2727  0.3922
  191POPC  C31622115   3.916   3.420   8.601 -0.4185  0.2764 -0.1136
  191POPC  H16X22116   4.018   3.465   8.603 -2.1901  4.8454 -0.5736
  191POPC  H16Y22117   3.912   3.320   8.649 -2.6899  1.5460  2.6259
  191POPC  H16Z22118   3.851   3.486   8.662 -1.0103 -0.8931  0.5561
  192POPC     N22119   0.049   0.407   6.143 -0.2145  0.1677  0.4680
  192POPC   C1222120   0.131   0.324   6.243  0.6377  0.5885  0.8199
  192POPC  H12A22121   0.143   0.225   6.201  1.4111  0.8040  0.5140
  192POPC  H12B22122   0.072   0.309   6.332  1.3085 -0.8957  1.0519
  192POPC   C1322123   0.032   0.540   6.197 -1.5098 -0.3004 -0.4623
  192POPC  H13A22124   0.131   0.578   6.212 -0.8357 -1.3653 -2.0177
  192POPC  H13B22125  -0.018   0.610   6.132 -2.1558  0.0582  0.3939
  192POPC  H13C22126  -0.004   0.528   6.298 -0.3369  0.3903  0.0533
  192POPC   C1422127   0.114   0.406   6.013  0.6602  0.8054  0.2454
  192POPC  H14A22128   0.074   0.480   5.946 -1.1645 -1.0581 -0.8414
  192POPC  H14B22129   0.218   0.423   6.037  0.5945 -0.9846  2.2161
  192POPC  H14C22130   0.108   0.310   5.963  5.4397  0.6638 -0.5897
  192POPC   C1522131  -0.093   0.358   6.128 -0.9212  0.1433  0.7347
  192POPC  H15A22132  -0.082   0.268   6.069  2.2240 -0.4331  2.0033
  192POPC  H15B22133  -0.148   0.436   6.076  0.6032  2.1130  1.9332
  192POPC  H15C22134  -0.144   0.354   6.223 -0.7752  1.5585  0.8968
  192POPC   C1122135   0.275   0.369   6.288  0.4905 -0.3091  1.1826
  192POPC  H11A22136   0.310   0.308   6.375  0.9561  0.6706  1.6909
  192POPC  H11B22137   0.266   0.473   6.324  0.6724  1.1299 -2.4930
  192POPC     P22138   0.449   0.222   6.161 -0.2670 -0.4337  0.2869
  192POPC   O1322139   0.570   0.245   6.083 -0.3495 -0.2928 -0.5264
  192POPC   O1422140   0.362   0.122   6.096  0.2770  0.0858 -0.0959
  192POPC   O1222141   0.376   0.364   6.176  0.8714  0.7409 -0.0476
  192POPC   O1122142   0.485   0.180   6.306  0.0130 -0.0079 -0.7348
  192POPC    C122143   0.606   0.213   6.365 -0.2153 -0.0819 -0.1181
  192POPC    HA22144   0.615   0.323   6.354 -3.3165  0.0745 -2.1926
  192POPC    HB22145   0.688   0.163   6.310 -2.5958 -1.1822 -2.8945
  192POPC    C222146   0.617   0.188   6.518  0.6878 -0.8266  0.2848
  192POPC    HS22147   0.716   0.228   6.550  0.9133  0.0398 -1.4029
  192POPC   O2122148   0.598   0.050   6.545  0.4028 -0.5662  0.1027
  192POPC   C2122149   0.655  -0.005   6.660 -0.4370  0.7182  1.5931
  192POPC   O2222150   0.730   0.051   6.736 -0.4434 -0.0676  0.3281
  192POPC   C2222151   0.588  -0.137   6.686 -0.6091 -0.1309  0.0700
  192POPC   H2R22152   0.645  -0.215   6.631  2.2174  1.7134  0.1678
  192POPC   H2S22153   0.487  -0.129   6.641 -1.9811 -1.0721  2.8235
  192POPC    C322154   0.507   0.272   6.593  0.4208 -0.0560 -1.0763
  192POPC    HX22155   0.404   0.233   6.577 -0.1547  1.4210 -1.0991
  192POPC    HY22156   0.501   0.368   6.538 -0.6734 -0.5339 -1.8393
  192POPC   O3122157   0.526   0.288   6.735  0.1553  0.7268  0.1190
  192POPC   C3122158   0.447   0.218   6.814  0.6058  1.4382  1.0611
  192POPC   O3222159   0.349   0.147   6.787 -0.1131 -0.4781  0.9705
  192POPC   C3222160   0.492   0.235   6.955 -0.3750 -0.1286 -0.1763
  192POPC   H2X22161   0.603   0.231   6.946 -0.4087 -0.6462 -0.3613
  192POPC   H2Y22162   0.448   0.153   7.015  2.2171 -1.2873  0.2614
  192POPC   C2322163   0.579  -0.168   6.839  0.4159 -0.3422 -0.1994
  192POPC   H3R22164   0.514  -0.085   6.875  0.0937 -1.9410  3.3732
  192POPC   H3S22165   0.675  -0.163   6.895  1.0289 -4.5726 -0.6029
  192POPC   C2422166   0.529  -0.311   6.853  0.4351  0.3418 -0.7202
  192POPC   H4R22167   0.609  -0.374   6.808  0.5811  0.8816 -1.2349
  192POPC   H4S22168   0.429  -0.330   6.809 -1.2945  1.2701  2.4639
  192POPC   C2522169   0.519  -0.343   7.008  0.6103 -0.2287 -0.7281
  192POPC   H5R22170   0.592  -0.282   7.065  0.9215 -0.4441 -0.8970
  192POPC   H5S22171   0.548  -0.450   7.014  0.0670 -0.2968  1.5829
  192POPC   C2622172   0.388  -0.324   7.082  0.0818  0.1416  0.0206
  192POPC   H6R22173   0.312  -0.370   7.016  3.2642 -1.6498 -2.6886
  192POPC   H6S22174   0.377  -0.214   7.096  3.1763  0.4463  0.8765
  192POPC   C2722175   0.385  -0.386   7.217  0.0128  0.3222  0.0426
  192POPC   H7R22176   0.289  -0.344   7.255 -0.6707  1.6370 -2.8504
  192POPC   H7S22177   0.466  -0.352   7.285  1.0070 -0.0591 -0.9343
  192POPC   C2822178   0.377  -0.539   7.234  0.2740 -0.0972  0.2813
  192POPC   H8R22179   0.360  -0.551   7.343  0.2250  1.0550  0.4133
  192POPC   H8S22180   0.475  -0.583   7.205  0.5087  0.3391  0.4042
  192POPC   C2922181   0.267  -0.598   7.152  1.4015 -0.4292 -0.0693
  192POPC   H9122182   0.263  -0.583   7.043  1.3133 -1.0110 -0.1519
  192POPC  C21022183   0.146  -0.624   7.208  0.0242 -0.5008 -0.2153
  192POPC  H10122184   0.059  -0.661   7.152 -1.1161 -0.3984  1.4334
  192POPC  C21122185   0.115  -0.617   7.355  0.2426 -0.1584  0.8593
  192POPC  H11R22186   0.207  -0.637   7.413  0.6727  2.4191  1.2110
  192POPC  H11S22187   0.036  -0.694   7.368  1.8913 -2.2406 -0.7589
  192POPC  C21222188   0.069  -0.474   7.398  0.2504 -0.3463 -0.0456
  192POPC  H12R22189  -0.042  -0.473   7.388  0.3413  0.5156 -1.1353
  192POPC  H12S22190   0.097  -0.388   7.333 -0.2028 -1.2536 -1.4850
  192POPC  C21322191   0.103  -0.441   7.545 -0.3285  0.2615  0.2611
  192POPC  H13R22192   0.057  -0.519   7.611 -1.8240  0.4847 -0.4678
  192POPC  H13S22193   0.062  -0.338   7.559  0.7539  0.5114  1.8653
  192POPC  C21422194   0.250  -0.441   7.576 -0.0990 -0.0313  0.0354
  192POPC  H14R22195   0.315  -0.391   7.501  1.5679  0.6295  1.8252
  192POPC  H14S22196   0.296  -0.542   7.571  0.2117 -0.0170  1.9172
  192POPC  C21522197   0.281  -0.382   7.709  0.3934 -0.3328 -0.5199
  192POPC  H15R22198   0.219  -0.433   7.786  1.1337  0.2791  0.5142
  192POPC  H15S22199   0.256  -0.276   7.731  0.0981 -1.0595  3.5417
  192POPC  C21622200   0.424  -0.408   7.759 -0.1320 -0.1806  0.2719
  192POPC  H16R22201   0.449  -0.314   7.812 -3.0682  1.1369 -0.4949
  192POPC  H16S22202   0.499  -0.414   7.677  1.4641  0.3642  1.6356
  192POPC  C21722203   0.435  -0.533   7.843  0.3433  1.0114 -0.4621
  192POPC  H17R22204   0.377  -0.516   7.936  0.2517  0.3371 -0.3934
  192POPC  H17S22205   0.543  -0.537   7.870  0.1526 -1.0331  0.1740
  192POPC  C21822206   0.389  -0.665   7.787 -0.0464 -0.3737 -0.2823
  192POPC  H18R22207   0.444  -0.682   7.691  1.5223 -3.8031  1.0686
  192POPC  H18S22208   0.280  -0.672   7.771 -0.6713  1.1793  2.5650
  192POPC  H18T22209   0.420  -0.747   7.854 -0.6092  1.0818  1.8517
  192POPC   C3322210   0.440   0.366   7.016  0.0006 -0.5476  0.2695
  192POPC   H3X22211   0.330   0.373   7.001 -0.0773  1.0299  1.3695
  192POPC   H3Y22212   0.489   0.454   6.971 -2.3853  2.1633  2.5809
  192POPC   C3422213   0.452   0.370   7.167  0.2697  0.5751  0.0239
  192POPC   H4X22214   0.560   0.363   7.193  0.9709  3.1394 -1.7464
  192POPC   H4Y22215   0.400   0.281   7.209  1.9354  0.6157  2.3987
  192POPC   C3522216   0.385   0.497   7.223 -0.0205 -0.6941 -0.2084
  192POPC   H5X22217   0.283   0.504   7.180  0.1547 -0.2832 -0.5581
  192POPC   H5Y22218   0.451   0.586   7.212 -0.6838 -0.1433  0.1802
  192POPC   C3622219   0.368   0.480   7.381 -0.3129  0.0795  0.9584
  192POPC   H6X22220   0.464   0.471   7.438 -0.1685  1.0849  0.8958
  192POPC   H6Y22221   0.321   0.379   7.386 -1.4644  0.5445 -0.0369
  192POPC   C3722222   0.284   0.581   7.446  0.0287  0.4477 -0.9417
  192POPC   H7X22223   0.199   0.597   7.377  0.6730  1.5163 -1.4966
  192POPC   H7Y22224   0.332   0.680   7.460  0.9248 -0.2676  1.8184
  192POPC   C3822225   0.231   0.517   7.581  0.1410  0.4135  0.3708
  192POPC   H8X22226   0.201   0.410   7.568  0.7416  0.0742  1.6098
  192POPC   H8Y22227   0.141   0.572   7.616  0.2231  0.2048  0.9226
  192POPC   C3922228   0.329   0.525   7.695 -0.5093 -0.0892  0.0849
  192POPC   H9X22229   0.370   0.626   7.713 -0.9988  0.2832 -0.8105
  192POPC   H9Y22230   0.420   0.464   7.679  0.0472  1.0764 -1.3482
  192POPC  C31022231   0.254   0.494   7.826 -0.3208 -0.4843  0.2541
  192POPC  H10X22232   0.234   0.385   7.829  2.7136 -1.0938  1.3694
  192POPC  H10Y22233   0.163   0.557   7.837 -1.5132 -1.4516 -2.8239
  192POPC  C31122234   0.362   0.516   7.933 -0.3376 -0.0842  0.0161
  192POPC  H11X22235   0.398   0.621   7.934 -1.1477  0.2366  2.0197
  192POPC  H11Y22236   0.453   0.454   7.916 -0.1435 -0.5299  2.3392
  192POPC  C31222237   0.299   0.486   8.074  0.7702  0.6174  0.1779
  192POPC  H12X22238   0.255   0.384   8.071  0.9274  0.5349  0.5944
  192POPC  H12Y22239   0.217   0.559   8.094  1.2680  0.6872  2.0965
  192POPC  C31322240   0.381   0.507   8.205  0.5032 -0.1964 -0.0219
  192POPC  H13X22241   0.435   0.604   8.202  0.5022 -0.0790  2.1902
  192POPC  H13Y22242   0.451   0.424   8.225 -0.2233 -0.4120  1.8302
  192POPC  C31422243   0.295   0.518   8.330  0.2885  0.4903 -0.0544
  192POPC  H14X22244   0.244   0.616   8.315  1.1333  0.7863 -1.1494
  192POPC  H14Y22245   0.366   0.524   8.415  0.0466 -3.5858  0.6337
  192POPC  C31522246   0.191   0.403   8.354 -0.1563  0.0940 -0.2477
  192POPC  H15X22247   0.250   0.314   8.385  2.3758  0.7525 -2.8046
  192POPC  H15Y22248   0.127   0.406   8.264 -3.1816  0.0240  1.7525
  192POPC  C31622249   0.094   0.434   8.473 -0.0752  0.0117  0.2084
  192POPC  H16X22250   0.035   0.347   8.508  0.0805 -0.4814 -0.7390
  192POPC  H16Y22251   0.028   0.512   8.430  0.5603  0.0281 -0.7708
  192POPC  H16Z22252   0.151   0.473   8.561  0.5093 -1.7008  0.6268
  193SOD    SOD22253   2.185   5.466  16.933  0.0316  0.1076  0.0515
  194SOD    SOD22254   4.650   4.167   1.044 -0.2503 -0.4001  0.4158
  195SOD    SOD22255   0.675   3.038  11.081  0.2771 -0.3881 -0.1673
  196SOD    SOD22256   1.269   0.903  15.735 -0.0243  0.2781  0.4651
  197SOD    SOD22257   3.989   2.006  16.791 -0.3093 -0.1016  0.3463
  198SOD    SOD22258   1.341   1.697   4.529 -0.0901  0.1529 -0.5711
  199SOD    SOD22259   1.312   5.237  12.394 -0.3173 -0.0660 -0.0936
  200SOD    SOD22260   2.755   0.895   1.378 -0.3688  0.2533  0.2901
  201SOD    SOD22261   5.396   6.374  12.413  0.1835  0.3554 -0.0033
  202SOD    SOD22262   4.782   4.821  16.311  0.3364  0.3273 -0.3728
  203SOD    SOD22263   2.091   3.200   4.171  0.0739 -0.0298  0.2111
  204SOD    SOD22264   3.707   0.639   3.917  0.1678  0.3171 -0.3319
  205SOD    SOD22265   3.406   1.440  14.405 -0.0874  0.1249  0.0373
  206SOD    SOD22266   0.498   0.944   5.765  0.1590  0.0715  0.5633
  207SOD    SOD22267   3.141   4.454   3.055  0.2500 -0.3157  0.1978
  208SOD    SOD22268   0.630   3.557   1.638 -0.8151  0.1244  0.5377
  209SOD    SOD22269   0.365   6.090  11.402  0.1380  0.4351 -0.5458
  210SOD    SOD22270   3.737   3.531   2.883  0.1898  0.0075  0.9596
  211SOD    SOD22271   4.482   5.239   0.861 -0.1973 -0.4484  0.2160
  212SOD    SOD22272   6.564   2.658   6.615  0.2487  0.3856 -0.5983
  213SOD    SOD22273   3.728   0.897  11.421 -0.3303 -0.1653 -0.0987
  214SOD    SOD22274   0.599   6.315   1.547  0.2472  0.9290 -0.1271
  215SOD    SOD22275   3.913   1.491   6.037 -0.2520  0.4691  0.3945
  216SOD    SOD22276   2.586   3.406   5.902 -0.0832 -0.6473 -0.4801
  217SOD    SOD22277   1.575   6.111  15.923 -0.0545 -0.3819 -0.2162
  218SOD    SOD22278   0.776   3.770   2.487 -0.1168  0.7839  0.2299
  219SOD    SOD22279   5.587   1.656   1.140  0.2364  0.0772  0.3169
  220SOD    SOD22280   2.020   4.976  11.638 -0.0446 -0.1392  0.3385
  221SOD    SOD22281   1.860   0.974   6.260  0.2259  0.3091  0.2138
  222SOD    SOD22282   2.823   0.374  12.068 -0.2303 -0.0230  0.7094
  223SOD    SOD22283   2.916   4.817   3.509 -0.0612  0.5685 -0.5947
  224SOD    SOD22284   4.051   6.377   5.785 -0.4449  0.3836 -0.2699
  225SOD    SOD22285   1.174   4.546   5.160  0.5465  0.1631 -0.0163
  226SOD    SOD22286   6.225   0.875  13.198  0.0796  0.1131  0.0958
  227SOD    SOD22287   0.485   0.256  17.182 -0.0366  0.4378  0.1824
  228SOD    SOD22288   5.442   1.489  12.648 -0.3560  0.3970  0.1732
  229SOD    SOD22289   2.811   2.798   0.243 -0.4645 -0.1380 -0.3676
  230SOD    SOD22290   1.240   1.862  15.963 -0.1160 -0.2198 -1.0241
  231SOD    SOD22291   5.108   6.341   5.605 -0.2057  0.1440 -0.1096
  232SOD    SOD22292   3.781   4.099  12.401  0.2193  0.2422  0.2209
  233SOD    SOD22293   3.053   5.340  16.104 -0.0942 -0.3357  0.0303
  234SOD    SOD22294   0.190   4.668   6.240 -0.2805  0.5343  0.2095
  235SOD    SOD22295   6.605   0.933   0.911  0.1906  0.4626 -0.3779
  236SOD    SOD22296   4.746   3.132   5.889 -0.2721  0.1430 -0.2285
  237SOD    SOD22297   0.997   2.262   0.322  0.2173  0.2733 -0.1113
  238SOD    SOD22298   1.045   1.120  11.097 -0.2028 -0.0379  0.4075
  239SOD    SOD22299   5.977   0.386  11.213  0.3756 -0.0165  0.0871
  240SOD    SOD22300   3.833   0.243   6.349 -0.1808 -0.1876 -0.3464
  241SOD    SOD22301   2.243   6.343  13.965 -0.1559  0.0102  0.0304
  242SOD    SOD22302   5.778   4.438  11.175  0.2464  0.0969  0.0225
  243SOD    SOD22303   0.950   3.368   6.623 -0.2311  0.0489  0.3524
  244SOD    SOD22304   2.920   5.570   4.712  0.1641  0.1063  0.4349
  245SOD    SOD22305   6.357   5.968  13.427  0.4762 -0.3463  0.3658
  246SOD    SOD22306   3.757   0.979  13.895 -0.0240 -0.0228  0.6453
  247SOD    SOD22307   1.098   5.631   4.193  0.1632  0.6325 -0.0444
  248SOD    SOD22308   0.721   2.379   4.705  0.5732  0.4839 -0.3133
  249SOD    SOD22309   0.293   1.912   2.445 -0.2362 -0.5571 -0.5893
  250SOD    SOD22310   1.428   5.952   4.630 -0.6164 -0.0864  0.1362
  251SOD    SOD22311   1.907   4.310  11.430 -0.3675  0.4030 -0.4411
  252SOD    SOD22312   3.900   4.016   5.232  0.2290  0.1088  0.1417
  253SOD    SOD22313   1.954   2.481   6.528 -0.6347  0.9956  0.1282
  254SOD    SOD22314   3.416   0.616   6.062 -0.5572 -0.3823  0.3262
  255SOD    SOD22315   4.287   6.741  11.364  0.1712  0.5955 -0.6407
  256SOD    SOD22316   3.752   6.295   1.389  0.5494 -0.2576  0.1273
  257SOD    SOD22317   1.264   4.731  17.284  0.1519 -0.4323  0.2374
  258SOD    SOD22318   2.801   3.454  11.488  0.0189  0.5219 -0.5273
  259SOD    SOD22319   4.738   6.039   3.533  0.0134 -0.3688  0.0425
  260SOD    SOD22320   2.312   0.826  16.835 -0.0739  0.1555  0.3253
  261SOD    SOD22321   0.622   0.688  13.866 -0.6475  0.3116  0.1284
  262SOD    SOD22322   5.195   2.374   1.367 -0.1286 -0.7158 -0.2486
  263SOD    SOD22323   5.384   3.033   0.944  0.1437  0.5247  0.1565
  264SOD    SOD22324   5.596   0.243   3.269  0.1073  0.0184  0.5125
  265SOD    SOD22325   2.121   6.063   4.341 -0.3349 -0.6047  0.3686
  266SOD    SOD22326   0.026   4.526  11.635  0.1712 -0.2712  0.0699
  267SOD    SOD22327   6.573   2.781  11.569 -0.1160  0.2025 -0.3030
  268SOD    SOD22328   1.549   2.353   0.734  0.0937 -0.1893  0.3307
  269SOD    SOD22329   4.879   3.535  11.699  0.6658  0.1495 -0.5336
  270CLA    CLA22330   2.472   1.626   5.155 -0.0522 -0.0503  0.1342
  271CLA    CLA22331   2.932   4.620   3.103 -0.1229  0.1189 -0.3402
  272CLA    CLA22332   2.338   3.044   5.757  0.1950 -0.1339  0.3415
  273CLA    CLA22333   6.740   4.167  15.619 -0.3495 -0.0555 -0.1006
  274CLA    CLA22334   3.638   4.292   3.760 -0.3188 -0.1088  0.3051
  275CLA    CLA22335   5.603   5.049   5.209  0.1320 -0.0023  0.4480
  276CLA    CLA22336   2.042   2.551   1.305  0.1713  0.2028  0.1948
  277CLA    CLA22337   6.468   6.103  15.152 -0.3254  0.2622 -0.2058
  278CLA    CLA22338   0.746   1.396  14.285 -0.3009 -0.3064  0.0971
  279CLA    CLA22339   5.909   1.668  11.868 -0.5583  0.4602 -0.3683
  280CLA    CLA22340   4.241   1.206  16.783  0.0314 -0.0133  0.0562
  281CLA    CLA22341   6.359   2.644   1.687 -0.5819 -0.1195 -0.0375
  282CLA    CLA22342   0.395   2.412  16.956  0.1711  0.4360  0.2339
  283CLA    CLA22343   2.104   0.242  17.280 -0.3273 -0.2589  0.2640
  284CLA    CLA22344   6.117   6.111   4.836  0.1893  0.0319  0.3525
  285CLA    CLA22345   1.205   0.426  12.922  0.1624 -0.1278  0.1823
  286CLA    CLA22346   4.591   1.073   0.706  0.1644  0.0091  0.1178
  287CLA    CLA22347   2.199   5.201  14.033  0.1644  0.3802 -0.2194
  288CLA    CLA22348   0.086   1.898   4.639  0.2990  0.2780  0.4677
  289CLA    CLA22349   5.637   3.779   2.716 -0.1501  0.2625  0.2887
  290CLA    CLA22350   1.119   3.143   2.121 -0.0379  0.1337 -0.4298
  291CLA    CLA22351   6.658   3.391   2.786 -0.0428 -0.4177  0.1220
  292CLA    CLA22352   2.408   4.921  12.669  0.0029  0.4293 -0.2389
  293CLA    CLA22353   2.543   4.168  12.476  0.2758 -0.3685  0.0282
  294CLA    CLA22354   1.212   5.317   3.678  0.1857  0.1476  0.0666
  295CLA    CLA22355   0.197   4.657  13.929  0.3780 -0.2419 -0.1991
  296CLA    CLA22356   2.406   1.867   1.321  0.3599 -0.3753 -0.1050
  297CLA    CLA22357   0.454   5.151   0.416 -0.1969 -0.2674 -0.2255
  298CLA    CLA22358   6.233   3.781   4.731 -0.4675 -0.1076 -0.1989
  299CLA    CLA22359   1.918   1.957   5.675  0.1351 -0.4221  0.3287
  300CLA    CLA22360   2.907   6.483  15.876  0.0437 -0.5391  0.0576
  301CLA    CLA22361   3.505   1.660  13.796  0.5030  0.1865  0.1797
  302CLA    CLA22362   3.165   6.491   1.975  0.1692 -0.4605 -0.1433
  303CLA    CLA22363   0.582   5.885   2.283  0.4643 -0.0822 -0.0855
  304CLA    CLA22364   4.934   6.285  13.474  0.0389  0.3852 -0.5599
  305CLA    CLA22365   6.561   1.081   3.618 -0.1050 -0.2230  0.0628
  306CLA    CLA22366   6.741   0.303  15.817  0.1617  0.4514  0.6145
  307CLA    CLA22367   1.902   3.117   3.483 -0.2470  0.5377  0.0195
  308CLA    CLA22368   0.969   5.939   3.726  0.3759 -0.0981 -0.1157
  309CLA    CLA22369   4.252   2.096   4.471 -0.2732  0.2586  0.3635
  310CLA    CLA22370   1.181   3.051   5.200 -0.1210 -0.3327  0.1901
  311CLA    CLA22371   4.311   4.374  11.479  0.0405 -0.8614  0.3318
  312CLA    CLA22372   3.366   1.417   2.509 -0.3028 -0.0871  0.3098
  313CLA    CLA22373   6.202   4.165  16.801  0.3636 -0.1936 -0.1144
  314CLA    CLA22374   0.153   1.120   0.603  0.4598 -0.4527 -0.4901
  315CLA    CLA22375   1.114   1.605   1.194 -0.0135  0.4227 -0.3655
  316CLA    CLA22376   1.380   1.537  16.687  0.2640 -0.4172 -0.1055
  317CLA    CLA22377   5.078   0.533   1.588  0.6108  0.4215 -0.3952
  318CLA    CLA22378   5.283   5.883   0.286 -0.3791  0.3442 -0.3087
  319CLA    CLA22379   4.296   1.521  13.547  0.1957 -0.2798 -0.4468
  320CLA    CLA22380   4.826   0.580  13.083  0.3774 -0.1932 -0.0594
  321CLA    CLA22381   5.362   0.283   4.501  0.2128  0.3824  0.1411
  322CLA    CLA22382   4.392   0.265  15.826  0.0370 -0.1255 -0.0300
  323TIP3   OH222383   2.823   6.459   1.974 -0.1626 -0.9169 -0.1107
  323TIP3    H122384   2.816   6.369   1.943 -0.0196 -0.1398 -2.6349
  323TIP3    H222385   2.916   6.481   1.965 -0.4161 -0.0975 -0.9303
  324TIP3   OH222386   1.744   2.782  17.088  0.2164  0.3560  0.2396
  324TIP3    H122387   1.680   2.731  17.138  2.0658 -1.1441  1.2307
  324TIP3    H222388   1.762   2.858  17.143 -0.0417  0.3177  0.3809
  325TIP3   OH222389   4.813   5.070   4.566  0.3458  0.1012 -0.0609
  325TIP3    H122390   4.846   5.160   4.565  0.8905 -0.0840  0.3078
  325TIP3    H222391   4.773   5.061   4.653 -0.3414  0.2048 -0.3638
  326TIP3   OH222392   4.434   5.734  11.059 -0.1312  0.2434  0.0997
  326TIP3    H122393   4.409   5.824  11.081  1.3496  0.6472  0.2625
  326TIP3    H222394   4.451   5.693  11.144 -1.0487 -0.2779  0.0392
  327TIP3   OH222395   5.400   4.336  15.697 -0.6282 -0.1348 -0.0265
  327TIP3    H122396   5.360   4.282  15.628  1.7040 -0.7168 -1.0286
  327TIP3    H222397   5.440   4.273  15.756 -3.2227  0.3205  2.4156
  328TIP3   OH222398   6.577   1.326   0.267  0.0303  0.4499  0.0946
  328TIP3    H122399   6.648   1.327   0.203  0.5536 -2.0719  0.5204
  328TIP3    H222400   6.575   1.235   0.298 -0.4054  1.4708  3.3973
  329TIP3   OH222401   3.861   4.862   5.020 -0.1894 -0.3692  0.4195
  329TIP3    H122402   3.912   4.887   5.097 -1.6919  1.2204  0.9756
  329TIP3    H222403   3.867   4.938   4.962 -1.1232 -0.5431  0.0792
  330TIP3   OH222404   3.034   4.440  11.570  0.4074 -0.3301 -0.0446
  330TIP3    H122405   3.040   4.485  11.486  1.0369 -0.8886 -0.3099
  330TIP3    H222406   2.987   4.501  11.627  1.2060  0.6455 -0.4053
  331TIP3   OH222407   2.132   6.715   4.272 -0.0019 -0.2944 -0.1873
  331TIP3    H122408   2.094   6.648   4.216  3.9016 -1.8167 -1.3297
  331TIP3    H222409   2.173   6.777   4.212 -0.9864  1.5632  0.9462
  332TIP3   OH222410   1.101   4.480  14.889 -0.1336  0.0326 -0.3597
  332TIP3    H122411   1.086   4.404  14.832 -1.4845 -0.8690  1.0989
  332TIP3    H222412   1.147   4.543  14.834  2.8786 -2.5702 -1.1250
  333TIP3   OH222413   0.697   2.738   0.417 -0.2979 -0.4003 -0.4458
  333TIP3    H122414   0.698   2.809   0.354  0.2421 -0.8812 -0.9905
  333TIP3    H222415   0.702   2.658   0.364 -2.5734 -0.9370  0.0321
  334TIP3   OH222416   3.664   0.807  16.103 -0.5524 -0.0906  0.4251
  334TIP3    H122417   3.652   0.804  16.008  0.3866  0.3147  0.2774
  334TIP3    H222418   3.671   0.715  16.128  0.2862 -0.1808 -0.0726
  335TIP3   OH222419   3.449   2.343  16.758 -0.0976 -0.0967 -0.3566
  335TIP3    H122420   3.381   2.303  16.812 -1.9832  1.9949 -1.0196
  335TIP3    H222421   3.523   2.354  16.818 -1.7130  1.0983  1.5791
  336TIP3   OH222422   1.595   6.032  16.791 -0.6546 -0.0972 -0.4899
  336TIP3    H122423   1.592   5.997  16.880 -2.1090 -0.8386 -0.8061
  336TIP3    H222424   1.685   6.015  16.762 -0.1190  0.2923  0.8731
  337TIP3   OH222425   0.673   4.802   0.586  1.0102  0.3781 -0.1166
  337TIP3    H122426   0.691   4.877   0.643 -1.4556  0.2825  0.8882
  337TIP3    H222427   0.640   4.734   0.644  1.5747 -0.9099 -1.2453
  338TIP3   OH222428   6.339   4.872  11.864 -0.2261  0.2191 -0.2763
  338TIP3    H122429   6.265   4.850  11.807 -0.2873  0.7015 -0.3869
  338TIP3    H222430   6.413   4.880  11.805 -0.0616 -0.3467 -0.1558
  339TIP3   OH222431   0.952   3.262  15.048 -0.0566 -0.0348  0.2591
  339TIP3    H122432   0.877   3.310  15.083  1.4947  2.1167  0.8403
  339TIP3    H222433   0.927   3.170  15.055 -1.9927  0.5436  1.8999
  340TIP3   OH222434   1.811   1.752  10.859 -0.3937  0.3877  0.4231
  340TIP3    H122435   1.823   1.701  10.779  0.0140  1.2782 -0.0974
  340TIP3    H222436   1.718   1.746  10.877 -0.2634 -1.0994  0.7679
  341TIP3   OH222437   2.780   6.574   5.715  0.1488 -0.4106 -0.1345
  341TIP3    H122438   2.874   6.585   5.730 -0.2909  2.1597  1.4595
  341TIP3    H222439   2.765   6.613   5.629  0.3557  0.6692  0.3000
  342TIP3   OH222440   1.748   0.812  10.552 -0.1616  0.3259  0.1441
  342TIP3    H122441   1.656   0.789  10.564  0.5115 -1.4541  2.9523
  342TIP3    H222442   1.794   0.727  10.551  1.6241  1.2274  0.7979
  343TIP3   OH222443   6.337   0.509   5.816  0.2042  0.0936  0.5480
  343TIP3    H122444   6.352   0.442   5.749  0.7972  1.2333 -0.5181
  343TIP3    H222445   6.257   0.553   5.788  0.6268  0.7809  0.4111
  344TIP3   OH222446   5.591   4.695   2.852  0.5499  0.0728 -0.5154
  344TIP3    H122447   5.675   4.680   2.810  0.7892  0.0013 -0.0110
  344TIP3    H222448   5.541   4.615   2.836  1.5293 -0.9954  1.4694
  345TIP3   OH222449   3.211   4.807  10.669 -0.5173 -0.2030 -0.0248
  345TIP3    H122450   3.245   4.895  10.686  0.8557 -0.3227 -1.8707
  345TIP3    H222451   3.246   4.753  10.740  0.2725  0.3563  0.0108
  346TIP3   OH222452   0.599   4.165  15.274 -0.2214 -0.2881  0.1067
  346TIP3    H122453   0.561   4.237  15.222  1.2578 -0.0604 -0.7016
  346TIP3    H222454   0.693   4.171  15.258  0.0362 -1.6984  0.9660
  347TIP3   OH222455   3.811   1.461  15.171  0.0343 -0.3897  0.2691
  347TIP3    H122456   3.752   1.423  15.105 -0.0429 -0.0745  0.1522
  347TIP3    H222457   3.753   1.483  15.244 -0.0188  0.0407  0.1016
  348TIP3   OH222458   1.593   2.420  14.733  1.2772  0.0679 -0.2944
  348TIP3    H122459   1.688   2.417  14.742  1.1316  0.7648  2.6922
  348TIP3    H222460   1.563   2.458  14.815 -1.6730 -1.4265 -0.5477
  349TIP3   OH222461   6.284   4.776   5.281  0.6800 -0.0511  0.6014
  349TIP3    H122462   6.206   4.743   5.237  1.6996 -1.4772 -0.2385
  349TIP3    H222463   6.317   4.701   5.331  0.9632  0.8223  1.7571
  350TIP3   OH222464   1.625   4.894   3.851  0.6978  0.4072  0.1912
  350TIP3    H122465   1.529   4.891   3.850  0.7017  0.3534 -0.2038
  350TIP3    H222466   1.645   4.985   3.872  0.5578  0.4776  0.0293
  351TIP3   OH222467   0.742   2.229   1.732  0.0552  0.2091  0.3509
  351TIP3    H122468   0.809   2.258   1.670 -1.7259  3.6287 -0.2212
  351TIP3    H222469   0.775   2.258   1.817  0.5517 -0.6934  0.4825
  352TIP3   OH222470   3.318   4.795   3.374 -0.8144  0.5843 -0.4006
  352TIP3    H122471   3.331   4.832   3.462 -1.6675  0.3235 -0.1532
  352TIP3    H222472   3.376   4.846   3.318 -1.1184  1.5330  0.1225
  353TIP3   OH222473   3.634   1.432   1.964  0.0778 -0.2206  0.1848
  353TIP3    H122474   3.638   1.336   1.968  1.8935 -0.1326  2.5048
  353TIP3    H222475   3.592   1.458   2.046  0.2957  1.0191 -0.0693
  354TIP3   OH222476   2.239   1.613   3.031  0.3669 -0.2289 -0.0732
  354TIP3    H122477   2.174   1.557   2.989  0.6236  0.1242 -0.9480
  354TIP3    H222478   2.323   1.582   2.997  0.5464  0.3759 -0.1915
  355TIP3   OH222479   1.533   4.423   2.602  0.4105  0.2979  0.1867
  355TIP3    H122480   1.626   4.405   2.585  0.4013  0.8693 -0.5222
  355TIP3    H222481   1.531   4.458   2.691  1.3833  3.7887 -1.0239
  356TIP3   OH222482   5.790   0.052  15.434  0.4212  0.3103  0.1113
  356TIP3    H122483   5.817   0.115  15.501 -2.2136  1.1411  0.5201
  356TIP3    H222484   5.826   0.087  15.352  3.1834 -0.3988  0.9258
  357TIP3   OH222485   1.800   0.433   0.710 -0.1436 -0.2417 -0.4441
  357TIP3    H122486   1.773   0.521   0.737 -0.6467 -0.2604 -0.8436
  357TIP3    H222487   1.873   0.448   0.650  1.8386 -0.2663  1.8400
  358TIP3   OH222488   5.611   0.975  17.250 -0.1848 -0.6954 -0.3010
  358TIP3    H122489   5.623   0.993  17.157  2.3161  1.2870  0.2936
  358TIP3    H222490   5.619   1.061  17.292 -3.6744 -1.1342  1.6447
  359TIP3   OH222491   3.466   1.346   5.595 -0.1397  0.5100  0.1511
  359TIP3    H122492   3.376   1.357   5.564  0.2531 -0.1222 -1.3192
  359TIP3    H222493   3.475   1.251   5.607  0.8692  0.3412 -1.5829
  360TIP3   OH222494   1.034   4.209  10.815 -0.3862 -0.2351 -0.1626
  360TIP3    H122495   1.090   4.170  10.882  0.9546 -0.9253 -1.6125
  360TIP3    H222496   1.059   4.301  10.814  0.5707 -0.4846 -0.6132
  361TIP3   OH222497   5.579   6.599   5.744 -0.0902  0.2983 -0.8281
  361TIP3    H122498   5.647   6.550   5.791 -0.3522 -0.2679 -1.0243
  361TIP3    H222499   5.566   6.549   5.663 -0.8328  0.3194 -0.7260
  362TIP3   OH222500   4.725   5.116  15.708  0.1623 -0.0491  0.7981
  362TIP3    H122501   4.716   5.041  15.649  1.6920 -0.3217  0.8510
  362TIP3    H222502   4.657   5.177  15.681  0.2305 -0.5724 -0.6397
  363TIP3   OH222503   1.505   1.269  10.931 -0.2692 -0.5627 -0.5288
  363TIP3    H122504   1.570   1.284  10.863 -0.6020  0.6175 -0.6067
  363TIP3    H222505   1.556   1.245  11.009  0.3811  1.3788 -0.2909
  364TIP3   OH222506   4.715   2.578   2.177  0.3716  0.2661 -0.0171
  364TIP3    H122507   4.734   2.672   2.171 -0.2224  0.3120 -1.3718
  364TIP3    H222508   4.647   2.572   2.244  0.6884  0.7553  0.3567
  365TIP3   OH222509   1.846   0.872  16.100 -0.0553 -0.0410  0.0646
  365TIP3    H122510   1.772   0.932  16.091  0.5259  0.6169 -0.4599
  365TIP3    H222511   1.809   0.785  16.086 -0.5554  0.3520 -1.2079
  366TIP3   OH222512   5.763   0.729  11.144  0.2791 -0.3245 -0.0679
  366TIP3    H122513   5.795   0.736  11.054 -2.1476  0.3973 -0.9364
  366TIP3    H222514   5.707   0.651  11.144  0.2829 -0.3488  0.8625
  367TIP3   OH222515   5.052   1.248   3.439  0.2067 -0.1786 -0.4251
  367TIP3    H122516   5.086   1.191   3.370 -0.7340 -0.4438 -0.6789
  367TIP3    H222517   5.082   1.208   3.520  1.4963  0.2417 -0.6635
  368TIP3   OH222518   3.857   4.010   3.087 -0.3560  0.1313 -0.1930
  368TIP3    H122519   3.791   4.022   3.155 -0.7767 -0.8715 -0.4003
  368TIP3    H222520   3.934   4.056   3.119 -0.0914 -1.4591  1.6521
  369TIP3   OH222521   5.596   5.925  14.845  0.4140 -0.0103  0.1464
  369TIP3    H122522   5.663   5.858  14.829  0.3612 -0.0126 -0.0654
  369TIP3    H222523   5.626   5.970  14.924  1.1000  0.5336 -0.4087
  370TIP3   OH222524   2.842   2.952  12.736 -0.1831 -0.0540 -0.0074
  370TIP3    H122525   2.912   2.886  12.735 -1.1659 -1.1387  0.4145
  370TIP3    H222526   2.788   2.929  12.811 -1.1014  0.6480 -0.4297
  371TIP3   OH222527   1.251   4.116   4.064 -0.8793  0.0180  0.4608
  371TIP3    H122528   1.184   4.095   3.999 -0.5703 -0.3732  0.2702
  371TIP3    H222529   1.330   4.074   4.032 -0.4249  0.8545  0.4500
  372TIP3   OH222530   3.335   5.018   2.026 -0.0156 -0.7008  0.0991
  372TIP3    H122531   3.325   4.989   2.117 -0.4338 -0.5602  0.1008
  372TIP3    H222532   3.408   4.966   1.992  0.2582 -0.6257  0.5681
  373TIP3   OH222533   3.618   4.808   3.380 -0.2280  0.1939 -0.8583
  373TIP3    H122534   3.591   4.717   3.394 -0.8254  0.4725 -0.1678
  373TIP3    H222535   3.668   4.805   3.298 -1.3708 -0.5261 -1.5601
  374TIP3   OH222536   0.760   0.116   3.140  0.0295 -0.1062 -0.1167
  374TIP3    H122537   0.824   0.055   3.175 -0.8860 -0.7747  0.4551
  374TIP3    H222538   0.716   0.068   3.070  1.0350  0.8117 -1.4251
  375TIP3   OH222539   4.579   6.025   2.188  0.6677  0.4411 -0.4493
  375TIP3    H122540   4.491   6.038   2.154  0.6072  0.9002 -0.1306
  375TIP3    H222541   4.627   6.103   2.160  0.8146  0.4674 -0.1310
  376TIP3   OH222542   1.924   5.402  12.100 -0.0158  0.1758  0.7971
  376TIP3    H122543   2.006   5.372  12.061  0.3066  1.4724  0.4489
  376TIP3    H222544   1.906   5.337  12.169  1.0502 -0.3805  0.5767
  377TIP3   OH222545   3.546   2.793   4.200 -0.0633 -0.5398 -0.1607
  377TIP3    H122546   3.454   2.821   4.192 -0.2680  0.5860  3.7498
  377TIP3    H222547   3.594   2.874   4.214  1.5436 -1.1606 -1.7578
  378TIP3   OH222548   0.383   6.079   2.072 -0.1148 -0.2839  1.1955
  378TIP3    H122549   0.428   6.057   2.154 -0.4882 -1.9629  0.9822
  378TIP3    H222550   0.360   5.995   2.034 -3.3142  0.4753  1.2068
  379TIP3   OH222551   0.534   4.770   4.083 -0.2408 -0.7806 -0.9254
  379TIP3    H122552   0.604   4.834   4.072 -0.0113 -0.6397  1.1030
  379TIP3    H222553   0.453   4.820   4.069 -0.0061 -0.7619 -2.4102
  380TIP3   OH222554   2.117   1.837   6.669 -0.1089  0.2649 -0.3885
  380TIP3    H122555   2.156   1.762   6.623  3.3159  0.8765  1.1851
  380TIP3    H222556   2.136   1.912   6.613 -0.6971  0.3613 -0.4630
  381TIP3   OH222557   4.410   4.407   6.138 -0.4607 -0.5731  0.0994
  381TIP3    H122558   4.447   4.372   6.057 -0.2481  0.2100 -0.1480
  381TIP3    H222559   4.382   4.330   6.187  0.2571 -1.1094 -0.3143
  382TIP3   OH222560   1.910   1.465  17.118 -0.1299 -0.3343 -0.2020
  382TIP3    H122561   2.004   1.465  17.133 -0.2545 -0.1347  0.6576
  382TIP3    H222562   1.893   1.548  17.073  0.0864 -0.2940 -0.2097
  383TIP3   OH222563   5.986   1.072  15.666 -0.4177  0.0747 -0.2649
  383TIP3    H122564   5.914   1.046  15.609 -1.2167 -0.7256  1.0752
  383TIP3    H222565   6.036   0.991  15.680 -0.7769  0.0374  0.9142
  384TIP3   OH222566   5.004   2.660  14.213  0.5105 -0.6788  0.3128
  384TIP3    H122567   4.911   2.643  14.225 -0.2167  2.3716 -0.0032
  384TIP3    H222568   5.040   2.660  14.301 -0.8294  2.5830  1.0051
  385TIP3   OH222569   3.190   4.345   0.250 -0.0132 -0.1154  0.3427
  385TIP3    H122570   3.244   4.317   0.176  1.6349  2.5577  0.3878
  385TIP3    H222571   3.195   4.272   0.312  0.4947 -1.4434 -1.1887
  386TIP3   OH222572   3.529   4.934  11.840  0.1543 -0.6729  0.2525
  386TIP3    H122573   3.601   4.875  11.862  0.7099 -0.1746 -0.1875
  386TIP3    H222574   3.535   5.004  11.904 -0.6024 -1.1531  0.8727
  387TIP3   OH222575   0.330   2.939  14.206 -0.1162 -0.1408  0.1741
  387TIP3    H122576   0.383   2.907  14.279  0.0065 -1.1824 -0.3553
  387TIP3    H222577   0.292   2.860  14.167  1.6451  0.0785 -2.2885
  388TIP3   OH222578   3.118   4.743   6.498 -0.0144  0.4373 -0.8605
  388TIP3    H122579   3.062   4.813   6.533 -0.5030 -0.0404 -0.6845
  388TIP3    H222580   3.207   4.772   6.519 -0.1859  1.1918 -1.1248
  389TIP3   OH222581   4.955   5.704   1.036  0.3371  0.2918  0.7795
  389TIP3    H122582   5.017   5.695   1.109 -0.4151  0.0395  1.3935
  389TIP3    H222583   5.001   5.666   0.961  1.2697  0.9092  1.0205
  390TIP3   OH222584   1.211   2.780  16.344 -0.5050 -0.4201 -0.1271
  390TIP3    H122585   1.290   2.729  16.329  1.4506  1.8291  1.7897
  390TIP3    H222586   1.214   2.848  16.276 -0.5437 -0.0438  0.2479
  391TIP3   OH222587   2.482   6.592  11.819  0.3070 -0.4807  0.4019
  391TIP3    H122588   2.412   6.584  11.884 -0.2155  1.2454  0.0839
  391TIP3    H222589   2.562   6.576  11.869 -0.2158 -1.4670  0.9751
  392TIP3   OH222590   1.587   2.038   1.105  0.3940 -0.2392 -0.0076
  392TIP3    H122591   1.532   1.959   1.100 -1.0792  0.6801  1.0662
  392TIP3    H222592   1.526   2.109   1.119  1.7328  1.0957 -0.6588
  393TIP3   OH222593   2.430   2.293  11.964 -0.1625 -0.1607  0.5500
  393TIP3    H122594   2.428   2.238  11.885  0.7206 -2.7559  2.2062
  393TIP3    H222595   2.342   2.286  12.001 -0.3997  0.5669  0.1457
  394TIP3   OH222596   2.457   4.928   5.798 -0.1040  1.2130 -0.4538
  394TIP3    H122597   2.381   4.977   5.830  0.3999  0.7999  1.4763
  394TIP3    H222598   2.527   4.992   5.795  0.6633  0.6698  2.4687
  395TIP3   OH222599   4.891   3.312  11.658  0.1865  0.2913 -0.2438
  395TIP3    H122600   4.985   3.309  11.642  0.1690  1.9656 -0.8637
  395TIP3    H222601   4.863   3.221  11.650  1.7654 -0.2584  0.1078
  396TIP3   OH222602   2.484   3.384  11.851 -0.6965 -0.2999  0.0679
  396TIP3    H122603   2.423   3.426  11.912 -0.6395 -1.6018  1.0562
  396TIP3    H222604   2.496   3.296  11.885  0.7488 -0.4899 -0.8318
  397TIP3   OH222605   0.322   0.484  13.181 -0.7806 -0.3418 -0.4507
  397TIP3    H122606   0.232   0.491  13.148 -1.2594 -1.5291  0.5311
  397TIP3    H222607   0.369   0.554  13.136 -1.7425 -0.9048 -2.4692
  398TIP3   OH222608   6.288   3.928  12.032 -0.2953 -0.6516  0.4029
  398TIP3    H122609   6.225   3.879  11.979 -0.0274  0.9231 -1.5307
  398TIP3    H222610   6.238   4.002  12.066 -0.0924 -0.8085  1.0515
  399TIP3   OH222611   0.554   6.096   4.508 -0.3444  0.3599  0.3325
  399TIP3    H122612   0.470   6.071   4.547 -0.4750  0.2996  0.0148
  399TIP3    H222613   0.547   6.190   4.495 -1.5981 -0.0397 -2.5643
  400TIP3   OH222614   3.283   0.834  12.066  0.0437  0.5159  0.7281
  400TIP3    H122615   3.257   0.914  12.113 -1.3255  0.6869 -0.2789
  400TIP3    H222616   3.263   0.853  11.975  0.7571 -0.5825  0.3351
  401TIP3   OH222617   1.462   5.366  15.767 -0.1340  0.9008  0.3217
  401TIP3    H122618   1.500   5.287  15.805 -0.9952  1.0709  1.6106
  401TIP3    H222619   1.400   5.335  15.702  0.6150  0.5726 -0.2504
  402TIP3   OH222620   6.558   1.301  11.446 -0.1067 -0.2522  0.5559
  402TIP3    H122621   6.599   1.216  11.462 -0.5158 -0.4550  0.5420
  402TIP3    H222622   6.529   1.297  11.355 -1.1992 -0.5631  0.9042
  403TIP3   OH222623   1.918   0.606   5.368 -0.1119  0.2312  0.4660
  403TIP3    H122624   1.933   0.661   5.291  2.3643 -0.6644  0.1986
  403TIP3    H222625   1.849   0.546   5.342 -0.2035  0.7713 -0.5963
  404TIP3   OH222626   5.916   3.764  10.602 -0.2494  0.3980  0.0764
  404TIP3    H122627   5.897   3.832  10.538  0.2040 -0.3396 -0.8704
  404TIP3    H222628   5.842   3.767  10.663 -0.0062  2.0348  0.3266
  405TIP3   OH222629   3.538   1.191   5.852  0.8351  0.5974  0.2417
  405TIP3    H122630   3.567   1.129   5.785  0.2856  2.0818 -1.4522
  405TIP3    H222631   3.452   1.160   5.878  0.6119  0.5849 -0.5055
  406TIP3   OH222632   2.355   0.324   1.104  0.4715 -0.4218 -0.0065
  406TIP3    H122633   2.383   0.238   1.074 -0.6303 -0.6825 -0.3203
  406TIP3    H222634   2.351   0.377   1.024  0.6941 -0.2057  0.1237
  407TIP3   OH222635   5.617   0.716  14.783 -0.0158 -0.2586 -0.6114
  407TIP3    H122636   5.525   0.729  14.759 -1.0150 -3.1543  1.1329
  407TIP3    H222637   5.614   0.661  14.861  3.2199  0.9758  0.5375
  408TIP3   OH222638   6.522   4.189   1.983 -0.1945 -0.2847 -0.5588
  408TIP3    H122639   6.582   4.115   1.996  1.2121  0.7788 -0.7453
  408TIP3    H222640   6.456   4.179   2.051  1.0890 -0.6371  0.6674
  409TIP3   OH222641   0.008   2.958   1.203 -0.2480  0.0323  1.1907
  409TIP3    H122642   0.026   2.958   1.297 -0.2019 -1.9569  1.2247
  409TIP3    H222643   0.093   2.967   1.161 -0.3191  1.4901  1.3019
  410TIP3   OH222644   3.770   6.058  14.563 -0.3130  0.4508  0.3081
  410TIP3    H122645   3.859   6.089  14.552 -0.0770 -0.1564  0.4700
  410TIP3    H222646   3.736   6.049  14.474  0.4316 -1.1307  0.1377
  411TIP3   OH222647   1.901   6.719   5.065  0.5086  0.0262  0.2218
  411TIP3    H122648   1.963   6.792   5.062  2.7014 -1.7460 -0.3670
  411TIP3    H222649   1.911   6.683   5.153  0.2927 -0.2537  0.1330
  412TIP3   OH222650   5.402   6.115   1.434 -0.5115 -0.0514 -0.3615
  412TIP3    H122651   5.433   6.101   1.524 -0.3984 -0.0236 -0.3965
  412TIP3    H222652   5.421   6.207   1.416  1.8169 -0.6513 -1.3110
  413TIP3   OH222653   1.946   2.851  11.672 -0.1221  0.2797 -0.2716
  413TIP3    H122654   1.934   2.863  11.767 -0.3286 -0.8850 -0.1373
  413TIP3    H222655   2.001   2.774  11.664 -1.3166 -0.5276 -1.1103
  414TIP3   OH222656   4.241   2.661   2.146 -0.5260  0.2491 -0.3277
  414TIP3    H122657   4.325   2.656   2.193  1.0653  1.8807 -2.7424
  414TIP3    H222658   4.198   2.739   2.182 -0.0669  0.5674 -0.4596
  415TIP3   OH222659   0.587   6.377   5.349 -0.0505 -0.2863  0.1745
  415TIP3    H122660   0.600   6.408   5.259 -0.3159 -1.2988 -0.2320
  415TIP3    H222661   0.527   6.303   5.340 -0.7871  0.1649  1.2913
  416TIP3   OH222662   4.488   4.269   5.894  0.0603 -0.5990  0.0514
  416TIP3    H122663   4.416   4.206   5.896  1.8896 -2.8505 -0.0553
  416TIP3    H222664   4.501   4.287   5.801 -0.7839  0.3896  0.1062
  417TIP3   OH222665   2.479   6.644  16.316  0.3495  0.4246 -0.2591
  417TIP3    H122666   2.517   6.731  16.301  0.5784  0.4893  0.6141
  417TIP3    H222667   2.507   6.621  16.405 -0.8507  0.0636  0.0498
  418TIP3   OH222668   3.095   1.885  15.807  0.5281 -0.3614 -0.3198
  418TIP3    H122669   3.005   1.909  15.789  0.2848 -0.2893  0.8951
  418TIP3    H222670   3.138   1.886  15.722 -0.2875  0.9800 -0.7358
  419TIP3   OH222671   2.587   2.146  13.965 -0.0086 -0.2276 -0.4218
  419TIP3    H122672   2.604   2.233  14.002  1.7089  0.0791 -1.8067
  419TIP3    H222673   2.596   2.087  14.039  2.0589  0.4986 -0.0150
  420TIP3   OH222674   5.555   1.038   5.441  0.1486 -0.1875  0.0706
  420TIP3    H122675   5.535   1.125   5.474  1.3266  0.4055 -0.7167
  420TIP3    H222676   5.593   0.991   5.515  0.4803  0.3149  0.2187
  421TIP3   OH222677   0.881   2.465   3.822  0.2292  0.3077  0.0454
  421TIP3    H122678   0.903   2.439   3.911  0.3773 -0.8757 -0.3082
  421TIP3    H222679   0.954   2.431   3.769 -1.2460 -1.6483 -0.8679
  422TIP3   OH222680   4.736   3.685  17.349  0.0769  0.1949  0.6046
  422TIP3    H122681   4.680   3.748  17.303 -0.3668  0.4859  1.5175
  422TIP3    H222682   4.779   3.737  17.417 -0.8955 -0.6212  1.8769
  423TIP3   OH222683   4.289   2.469   0.036  0.0892  0.1418  0.1666
  423TIP3    H122684   4.284   2.378   0.066 -2.1177  0.0654 -0.3233
  423TIP3    H222685   4.227   2.516   0.091  0.2586  1.1118 -0.4504
  424TIP3   OH222686   6.280   1.523   6.245  0.4091 -0.1791  0.2636
  424TIP3    H122687   6.354   1.579   6.270  1.1421 -0.3700 -1.3443
  424TIP3    H222688   6.249   1.486   6.327  1.3090  0.8848  1.1124
  425TIP3   OH222689   2.267   0.668   3.813 -0.1357 -0.0635 -0.2542
  425TIP3    H122690   2.178   0.691   3.842  0.9930  3.1292  1.0914
  425TIP3    H222691   2.285   0.585   3.856 -1.8954  0.0018  0.7282
  426TIP3   OH222692   6.365   5.051   2.513 -0.2112 -0.1978 -0.5589
  426TIP3    H122693   6.352   5.029   2.606 -2.0625  1.4438 -0.3680
  426TIP3    H222694   6.302   4.995   2.467  0.6510 -0.9519 -0.8533
  427TIP3   OH222695   0.705   4.918   2.897  0.7242  0.8711  0.4160
  427TIP3    H122696   0.691   4.841   2.952  0.7757 -0.1210 -0.9178
  427TIP3    H222697   0.716   4.990   2.959  0.3790 -0.1366  1.6866
  428TIP3   OH222698   2.091   5.025   3.104 -0.6949 -0.0476 -0.2044
  428TIP3    H122699   2.154   5.060   3.167 -0.5967 -0.6928  0.0646
  428TIP3    H222700   2.093   4.931   3.118  0.2736 -0.3379 -2.0454
  429TIP3   OH222701   0.088   2.781  14.726 -0.3041  0.1068  0.3614
  429TIP3    H122702   0.017   2.716  14.726 -0.4464  0.2481  1.2308
  429TIP3    H222703   0.139   2.762  14.647 -0.7628 -0.5977  0.2318
  430TIP3   OH222704   6.262   3.467   2.067  0.4827 -0.1000  0.3629
  430TIP3    H122705   6.347   3.511   2.070  0.0305  0.7896  0.4868
  430TIP3    H222706   6.231   3.483   1.978  0.4921 -0.5266  0.2802
  431TIP3   OH222707   4.038   0.252  16.403  0.1162 -0.0961  0.1392
  431TIP3    H122708   4.115   0.257  16.459  0.2334  1.1663 -0.1113
  431TIP3    H222709   3.971   0.210  16.457  0.0169  1.6945  1.5153
  432TIP3   OH222710   3.911   1.177   4.327  0.1685  0.9927  0.5089
  432TIP3    H122711   3.820   1.207   4.328 -0.0587  0.3401  1.7543
  432TIP3    H222712   3.957   1.241   4.272 -0.7345  2.2430  1.1659
  433TIP3   OH222713   2.190   5.138   3.682  0.0465 -0.4373  0.2531
  433TIP3    H122714   2.245   5.186   3.621 -1.8527 -0.5261 -1.6372
  433TIP3    H222715   2.150   5.205   3.737 -2.8146  0.4230 -2.5518
  434TIP3   OH222716   1.464   1.322  14.128 -0.2726 -0.2892 -0.0938
  434TIP3    H122717   1.544   1.274  14.153  0.4491  0.7515 -0.3652
  434TIP3    H222718   1.411   1.322  14.208 -0.3929 -1.7017 -0.1355
  435TIP3   OH222719   4.042   5.933   1.530 -0.6362  0.2367 -0.0624
  435TIP3    H122720   4.027   6.017   1.574  1.6332 -0.7959  3.0313
  435TIP3    H222721   4.113   5.951   1.469 -0.2836  0.6463  0.4517
  436TIP3   OH222722   5.672   3.453  13.004 -0.5286  0.6831 -0.3918
  436TIP3    H122723   5.741   3.492  12.951 -1.1215  0.8553 -1.0515
  436TIP3    H222724   5.605   3.426  12.941 -0.3490 -0.9812  0.0931
  437TIP3   OH222725   3.239   2.616   5.514  0.0650 -0.0567 -0.2692
  437TIP3    H122726   3.285   2.542   5.554 -0.4773 -0.8197 -1.0216
  437TIP3    H222727   3.162   2.577   5.474 -0.0591  0.8799 -0.9645
  438TIP3   OH222728   4.282   4.138   5.530  0.4602  0.3721 -0.5174
  438TIP3    H122729   4.293   4.221   5.484  3.1212  0.1549 -0.3952
  438TIP3    H222730   4.306   4.157   5.621 -0.4473 -0.2096 -0.1389
  439TIP3   OH222731   3.537   2.722   0.421  0.1948  0.1818  0.0386
  439TIP3    H122732   3.457   2.733   0.472  0.5354 -2.7798  1.4276
  439TIP3    H222733   3.605   2.704   0.486  1.4478  0.0245 -1.2480
  440TIP3   OH222734   0.862   0.806  14.869 -0.5839 -0.3162  0.6005
  440TIP3    H122735   0.912   0.777  14.945 -1.5032 -1.1151  0.9248
  440TIP3    H222736   0.812   0.729  14.843 -0.2969 -0.0368 -0.8150
  441TIP3   OH222737   6.522   5.969   2.674 -0.3131  0.1101 -0.2323
  441TIP3    H122738   6.515   5.886   2.626  0.2372 -0.8072  1.2255
  441TIP3    H222739   6.434   5.984   2.708 -0.3330 -0.0630 -0.2028
  442TIP3   OH222740   4.158   3.660  16.702 -0.1179  0.3209  0.0335
  442TIP3    H122741   4.240   3.709  16.703  0.1521 -0.0505 -1.4174
  442TIP3    H222742   4.104   3.704  16.636 -1.0997  0.5550  0.9576
  443TIP3   OH222743   4.372   4.938   3.277  0.8473 -0.4030  0.3020
  443TIP3    H122744   4.397   5.028   3.298  4.3775 -1.2754  0.4549
  443TIP3    H222745   4.375   4.934   3.181 -1.0839 -0.0100  0.1731
  444TIP3   OH222746   1.213   3.392  12.030  0.1443  0.2203 -0.8842
  444TIP3    H122747   1.142   3.450  12.058 -0.1579  0.4724 -2.1101
  444TIP3    H222748   1.288   3.451  12.016  0.5778 -0.0300  0.2990
  445TIP3   OH222749   6.497   1.310   1.591  0.2002  0.0299 -0.2542
  445TIP3    H122750   6.550   1.232   1.609 -1.5147 -1.0870  0.1307
  445TIP3    H222751   6.550   1.361   1.529  1.4375 -1.3351 -0.3724
  446TIP3   OH222752   1.040   6.068   2.779  0.4084  0.6050  0.3796
  446TIP3    H122753   1.045   6.163   2.765  0.4725  0.7481  1.3210
  446TIP3    H222754   1.126   6.045   2.813  0.5852  0.1052 -0.3839
  447TIP3   OH222755   6.449   4.479   2.353 -0.1047 -0.4144  0.1439
  447TIP3    H122756   6.358   4.502   2.333  0.1390  0.9515  0.4560
  447TIP3    H222757   6.443   4.407   2.416 -0.9427 -1.0701 -0.6560
  448TIP3   OH222758   1.513   4.547  12.827  0.0410 -0.2242  0.5025
  448TIP3    H122759   1.507   4.478  12.894  1.0510  1.8591  2.9085
  448TIP3    H222760   1.432   4.597  12.837  0.4719  0.4613  0.5680
  449TIP3   OH222761   3.795   1.324  16.100  0.3924  0.0393 -0.1519
  449TIP3    H122762   3.745   1.405  16.090  0.7033  0.1176 -1.2193
  449TIP3    H222763   3.766   1.269  16.027  1.6503 -0.0022 -0.6476
  450TIP3   OH222764   0.887   3.898   0.689 -0.4414  0.0133  0.5562
  450TIP3    H122765   0.977   3.885   0.660 -1.0631 -0.8604 -1.1554
  450TIP3    H222766   0.840   3.923   0.609 -2.0782 -1.4662  0.9909
  451TIP3   OH222767   5.374   0.553  15.436  0.3531 -0.7315 -0.1438
  451TIP3    H122768   5.402   0.466  15.408  0.4568 -1.0390  0.8581
  451TIP3    H222769   5.442   0.612  15.405  0.2377 -0.9973 -0.9030
  452TIP3   OH222770   0.423   4.926   3.125 -0.4180 -0.0950  0.3924
  452TIP3    H122771   0.470   4.883   3.196 -0.4545 -0.4954  0.1815
  452TIP3    H222772   0.438   5.019   3.138  1.7122 -0.2517 -0.5389
  453TIP3   OH222773   4.336   6.430  16.021  0.2675  0.4924 -0.0038
  453TIP3    H122774   4.343   6.512  15.972 -0.3086 -0.1852 -1.2691
  453TIP3    H222775   4.251   6.394  15.997 -0.3381  0.4408  2.0408
  454TIP3   OH222776   1.725   6.292  11.285 -0.1572  0.0098  0.4353
  454TIP3    H122777   1.701   6.248  11.204 -0.7351  0.2714  0.4605
  454TIP3    H222778   1.772   6.370  11.257  1.4366 -0.9078  0.3967
  455TIP3   OH222779   0.890   3.439  11.732 -0.4939  0.0444 -0.1101
  455TIP3    H122780   0.866   3.414  11.821 -2.4488  0.6642 -0.4112
  455TIP3    H222781   0.807   3.442  11.685  0.5976 -1.4563 -2.3019
  456TIP3   OH222782   2.639   6.637   4.571 -0.1481  0.2050 -0.0504
  456TIP3    H122783   2.623   6.636   4.665 -2.4794 -2.7879 -0.3202
  456TIP3    H222784   2.714   6.579   4.559 -1.8225 -2.1148 -0.1238
  457TIP3   OH222785   0.141   2.586   4.922  0.0713  0.1987  0.1020
  457TIP3    H122786   0.050   2.563   4.942 -0.1097  1.8401  1.3309
  457TIP3    H222787   0.164   2.528   4.849 -1.8644 -0.4370 -0.0747
  458TIP3   OH222788   4.639   4.699   2.134 -0.2707  0.1979  0.1307
  458TIP3    H122789   4.621   4.735   2.221 -1.0393  2.3862 -0.8614
  458TIP3    H222790   4.573   4.631   2.122 -0.1650 -0.1213  1.2251
  459TIP3   OH222791   5.762   2.640  16.175 -0.4949  0.2441 -0.1300
  459TIP3    H122792   5.817   2.565  16.197  1.6641  1.8788  0.3975
  459TIP3    H222793   5.789   2.708  16.237 -1.9846  1.6423 -0.9518
  460TIP3   OH222794   6.137   3.697  14.090  0.1050 -0.5429 -0.7722
  460TIP3    H122795   6.082   3.682  14.167 -1.2719 -1.7174 -1.9205
  460TIP3    H222796   6.129   3.791  14.074 -0.0349 -0.3799  0.1938
  461TIP3   OH222797   3.165   0.850  11.259  0.3251 -0.2677  0.3294
  461TIP3    H122798   3.105   0.776  11.272 -0.9559 -0.0201 -2.9962
  461TIP3    H222799   3.249   0.810  11.240 -0.2298 -0.9206 -0.8828
  462TIP3   OH222800   1.997   4.972   3.463  0.1160  0.4881  0.0310
  462TIP3    H122801   1.962   5.049   3.508  0.5803  0.6410  0.1367
  462TIP3    H222802   2.091   4.989   3.456  0.3397 -0.3849  0.7073
  463TIP3   OH222803   2.121   0.624   1.102 -0.2149 -0.0626  0.0081
  463TIP3    H122804   2.044   0.641   1.048  0.1911  0.4560 -0.4173
  463TIP3    H222805   2.132   0.703   1.155 -0.5795 -0.5452  0.8255
  464TIP3   OH222806   1.378   4.846   1.728  0.4482  0.2057  0.0677
  464TIP3    H122807   1.379   4.902   1.650 -0.7063 -0.1961 -0.2612
  464TIP3    H222808   1.470   4.829   1.746  0.7381  0.0327 -1.4264
  465TIP3   OH222809   4.204   5.223   3.532 -0.7582 -0.5086  0.4133
  465TIP3    H122810   4.127   5.200   3.481 -1.7710 -1.8528  2.4154
  465TIP3    H222811   4.169   5.265   3.611  0.7315  1.3183  0.1707
  466TIP3   OH222812   2.016   0.927  12.534 -0.0403  0.5253 -0.1585
  466TIP3    H122813   2.038   0.857  12.595 -0.3383 -0.4911 -1.1715
  466TIP3    H222814   2.090   0.931  12.474 -0.9300 -0.3991 -1.3699
  467TIP3   OH222815   0.175   2.198  11.137  0.1044 -0.5661  0.0644
  467TIP3    H122816   0.165   2.152  11.054 -0.6184 -0.2704 -0.0229
  467TIP3    H222817   0.205   2.132  11.199  0.6105 -0.7959 -0.4204
  468TIP3   OH222818   6.713   3.165  12.586  0.2699 -0.8739  0.1059
  468TIP3    H122819   6.803   3.135  12.599 -0.1536 -1.9532  0.7107
  468TIP3    H222820   6.677   3.173  12.674  0.0867  0.6209 -0.0782
  469TIP3   OH222821   1.708   1.016  15.142 -0.6714 -0.1738 -0.0903
  469TIP3    H122822   1.637   1.004  15.204 -0.8665  0.1356 -0.2477
  469TIP3    H222823   1.684   0.960  15.067 -0.5343 -0.3968  0.0319
  470TIP3   OH222824   5.215   3.024   4.159 -0.0718 -0.0530  0.1704
  470TIP3    H122825   5.208   2.941   4.206 -1.0507 -1.1287 -1.7467
  470TIP3    H222826   5.127   3.063   4.165 -0.2279 -0.2322 -0.7723
  471TIP3   OH222827   1.780   3.574  13.534 -0.1502 -0.2853 -0.0748
  471TIP3    H122828   1.793   3.514  13.461 -0.0604 -0.4283  0.0576
  471TIP3    H222829   1.867   3.588  13.570 -0.3999 -1.7517  1.2116
  472TIP3   OH222830   3.786   0.313  14.776 -0.0971  0.1588 -1.1129
  472TIP3    H122831   3.754   0.248  14.839 -2.9175 -0.3845 -2.9108
  472TIP3    H222832   3.803   0.263  14.696  1.0050  1.1649 -1.5304
  473TIP3   OH222833   6.660   4.955  12.956  0.1559  0.1551  0.1084
  473TIP3    H122834   6.704   4.972  13.039  0.6854  2.3378 -0.5599
  473TIP3    H222835   6.727   4.912  12.902  0.7738  1.4250 -0.1545
  474TIP3   OH222836   4.223   4.831  17.007  0.4244 -0.2012 -0.2620
  474TIP3    H122837   4.256   4.863  17.090 -0.2657 -1.3311  0.4737
  474TIP3    H222838   4.241   4.736  17.008 -1.2409 -0.5552 -0.5709
  475TIP3   OH222839   0.825   0.237   1.925 -0.3744 -0.2107  0.0621
  475TIP3    H122840   0.789   0.157   1.886  0.7577 -1.7552  2.0048
  475TIP3    H222841   0.763   0.260   1.995 -0.3208  0.1971 -0.0227
  476TIP3   OH222842   4.927   4.143  16.282 -0.6290  0.4112  0.1439
  476TIP3    H122843   5.020   4.162  16.293 -0.3245  0.3012 -1.8392
  476TIP3    H222844   4.883   4.227  16.297  0.0158  0.9900 -1.0430
  477TIP3   OH222845   4.517   3.925  12.287  0.8610  0.5270 -0.8545
  477TIP3    H122846   4.522   3.963  12.199  2.3984 -1.8865 -1.9386
  477TIP3    H222847   4.597   3.954  12.330  0.6111  0.8776 -0.6276
  478TIP3   OH222848   3.604   5.656  14.367 -0.1231 -1.0928  0.6725
  478TIP3    H122849   3.618   5.747  14.394 -1.0238 -1.1794  1.4651
  478TIP3    H222850   3.678   5.609  14.405  0.8593 -0.5639 -0.5186
  479TIP3   OH222851   1.315   4.172  15.991  0.0099  0.2307 -0.5822
  479TIP3    H122852   1.379   4.236  16.023  1.1497 -1.2622  0.2470
  479TIP3    H222853   1.321   4.178  15.896  1.3105  0.1919 -0.5178
  480TIP3   OH222854   0.514   5.553  14.084 -0.6780  0.4624 -0.5454
  480TIP3    H122855   0.532   5.560  13.990  0.0616 -1.4146 -0.5952
  480TIP3    H222856   0.430   5.509  14.089  0.1527 -1.2155 -0.3972
  481TIP3   OH222857   3.585   1.300   4.701 -0.8990 -0.0396  0.5356
  481TIP3    H122858   3.573   1.367   4.768 -0.4409 -2.4197  3.1482
  481TIP3    H222859   3.497   1.284   4.667 -1.0138  1.8205 -0.1749
  482TIP3   OH222860   3.027   1.763   5.349 -0.5217 -0.1196 -0.4991
  482TIP3    H122861   3.077   1.745   5.428 -1.4216 -1.5776 -0.2282
  482TIP3    H222862   3.000   1.855   5.358  0.5935  0.1610  0.1692
  483TIP3   OH222863   3.669   6.017  14.019  0.0181 -0.0663  0.5129
  483TIP3    H122864   3.707   6.059  13.941 -1.3575  0.3268  0.0205
  483TIP3    H222865   3.610   5.950  13.983  0.7623 -1.1577  1.2667
  484TIP3   OH222866   4.638   5.384  15.613  0.3263  0.1087 -0.6684
  484TIP3    H122867   4.649   5.469  15.655  2.5219  0.5376 -1.9214
  484TIP3    H222868   4.549   5.385  15.579 -0.0975  1.3921  0.3991
  485TIP3   OH222869   2.257   6.086  14.907 -0.0709  0.6078 -0.4685
  485TIP3    H122870   2.273   6.118  14.818 -1.1729  0.6279 -0.6680
  485TIP3    H222871   2.166   6.108  14.925 -0.8159 -2.1040 -0.4804
  486TIP3   OH222872   5.291   4.196  13.432 -0.3709  0.4528 -0.1691
  486TIP3    H122873   5.314   4.128  13.369 -0.7407  1.6396 -1.6509
  486TIP3    H222874   5.275   4.149  13.514  0.4547 -1.1020 -0.8637
  487TIP3   OH222875   6.563   4.913   1.152  0.0899  0.1909  0.3260
  487TIP3    H122876   6.555   4.981   1.085  1.9024  1.6321  1.4769
  487TIP3    H222877   6.521   4.836   1.113 -0.7463  1.5458 -1.6066
  488TIP3   OH222878   3.124   5.482  11.365 -0.4017  0.0596  0.0284
  488TIP3    H122879   3.164   5.568  11.352 -2.1770  1.1391  1.2399
  488TIP3    H222880   3.196   5.426  11.391  1.0944  0.7423 -2.3494
  489TIP3   OH222881   1.668   2.566   4.333 -0.0705 -0.0787  0.4115
  489TIP3    H122882   1.637   2.562   4.242  1.1404  0.0712 -0.0221
  489TIP3    H222883   1.589   2.586   4.384 -0.5201  1.2908 -0.7619
  490TIP3   OH222884   0.460   1.070   0.003 -0.4556 -0.3901 -0.3945
  490TIP3    H122885   0.440   0.990  -0.046 -0.0746 -0.5672 -0.2707
  490TIP3    H222886   0.420   1.140  -0.048  0.4085 -0.5064 -1.2630
  491TIP3   OH222887   2.638   5.824   3.861 -0.0957  0.2933 -0.3785
  491TIP3    H122888   2.707   5.861   3.806 -1.9984  1.6890 -1.9572
  491TIP3    H222889   2.557   5.846   3.817 -1.6720 -0.1670  2.0581
  492TIP3   OH222890   3.176   2.045  10.887 -0.2738 -0.0966 -0.1132
  492TIP3    H122891   3.243   2.112  10.898 -1.3511  0.9716  0.1297
  492TIP3    H222892   3.206   1.971  10.941 -0.2706  1.1199  1.6306
  493TIP3   OH222893   0.757   0.056  16.969 -0.9196  0.1049 -0.1602
  493TIP3    H122894   0.708   0.009  17.037  1.4617 -0.4045  1.3131
  493TIP3    H222895   0.830  -0.002  16.948  0.4295  1.8471 -0.4875
  494TIP3   OH222896   3.344   5.704   5.817  0.4417  0.0250 -0.2730
  494TIP3    H122897   3.304   5.783   5.854  0.6589  1.2881 -2.5369
  494TIP3    H222898   3.272   5.661   5.770  0.5621 -0.5421  0.0634
  495TIP3   OH222899   5.816   3.584  13.283  0.2585  0.4267  0.0136
  495TIP3    H122900   5.773   3.639  13.348 -0.9111 -1.7053  1.1785
  495TIP3    H222901   5.789   3.620  13.198 -2.7062  0.1131  0.7068
  496TIP3   OH222902   5.464   2.525  16.894  0.3449 -0.1122 -1.0655
  496TIP3    H122903   5.448   2.470  16.817  1.2203 -0.8589 -0.7359
  496TIP3    H222904   5.377   2.558  16.918 -0.7654 -3.5979  0.3610
  497TIP3   OH222905   3.447   1.148   1.817 -0.7253  0.3926  0.4461
  497TIP3    H122906   3.534   1.160   1.854  0.7213 -0.8544 -2.2695
  497TIP3    H222907   3.462   1.139   1.723 -4.0187  2.1701 -0.3882
  498TIP3   OH222908   0.420   1.675  15.825  0.0138  0.1111 -0.1594
  498TIP3    H122909   0.429   1.623  15.905 -0.7991 -0.8569 -0.6841
  498TIP3    H222910   0.359   1.626  15.771 -0.0799  1.1712 -1.0463
  499TIP3   OH222911   4.203   6.576   3.865 -0.6758 -0.5070  0.2575
  499TIP3    H122912   4.129   6.527   3.899 -1.3231  1.3310  1.6106
  499TIP3    H222913   4.164   6.646   3.812  0.2251 -1.3367 -1.6147
  500TIP3   OH222914   2.797   5.722  13.804 -0.3649 -0.7933 -0.5250
  500TIP3    H122915   2.732   5.792  13.798 -1.9978 -2.0071  1.5649
  500TIP3    H222916   2.865   5.757  13.861 -0.5087 -0.4470 -0.5637
  501TIP3   OH222917   6.686   4.445   3.662 -0.6050 -0.7560 -0.0917
  501TIP3    H122918   6.656   4.535   3.648  1.4796  0.0318  0.0186
  501TIP3    H222919   6.608   4.391   3.652 -2.0985  1.1390  0.7173
  502TIP3   OH222920   3.925   5.945   3.121  0.2061  0.1240 -0.2420
  502TIP3    H122921   3.954   5.983   3.204  1.8054  0.0527 -0.7364
  502TIP3    H222922   3.842   5.902   3.142  1.9618 -2.4954  2.0635
  503TIP3   OH222923   1.322   3.994   4.854  0.0376 -0.2694 -0.8929
  503TIP3    H122924   1.414   3.996   4.829  0.6372 -2.0296  0.9468
  503TIP3    H222925   1.275   3.978   4.772  1.3083  0.8055 -1.8839
  504TIP3   OH222926   5.334   0.889   2.113  0.1681  0.4115  0.0859
  504TIP3    H122927   5.399   0.821   2.129  0.8517  1.0925  0.2001
  504TIP3    H222928   5.314   0.881   2.019  0.2986  0.1102  0.0830
  505TIP3   OH222929   4.752   0.140  16.468  0.3103  0.0298  0.2273
  505TIP3    H122930   4.660   0.128  16.447 -0.1760 -0.5389  2.4555
  505TIP3    H222931   4.797   0.070  16.421 -0.2871  0.6291 -1.3041
  506TIP3   OH222932   2.685   0.919  15.473  0.3794  0.2491  0.4997
  506TIP3    H122933   2.692   0.911  15.378 -0.3077 -1.0534  0.5390
  506TIP3    H222934   2.724   0.838  15.507  1.3026  1.0283  1.3732
  507TIP3   OH222935   0.645   3.824  11.885  0.0363 -0.4268 -0.3094
  507TIP3    H122936   0.620   3.758  11.949  0.2301 -0.4663 -0.2741
  507TIP3    H222937   0.659   3.775  11.804  0.4354 -0.4664 -0.2200
  508TIP3   OH222938   5.828   4.987  15.632  0.0530 -0.3385  0.2428
  508TIP3    H122939   5.733   4.983  15.647 -0.0614 -1.5019 -0.6441
  508TIP3    H222940   5.859   5.052  15.694 -1.0606 -1.3715  1.9681
  509TIP3   OH222941   3.643   2.488   5.631 -0.1808 -0.2995 -0.1960
  509TIP3    H122942   3.660   2.520   5.720  0.8174  1.4813 -0.9670
  509TIP3    H222943   3.691   2.405   5.625  1.8398  0.7762  0.1896
  510TIP3   OH222944   1.837   2.923  12.320  0.0154  0.3814  0.2072
  510TIP3    H122945   1.868   2.918  12.410  0.1366 -1.9633  0.0838
  510TIP3    H222946   1.888   2.856  12.273  0.5565  2.1066 -1.8170
  511TIP3   OH222947   1.315   3.706   0.878  0.0119  0.2781  0.2758
  511TIP3    H122948   1.373   3.677   0.948 -0.7691 -0.1198  0.7764
  511TIP3    H222949   1.326   3.641   0.808 -0.6473 -0.4335  0.8152
  512TIP3   OH222950   2.987   2.319  12.329 -0.0897  0.5139 -0.4171
  512TIP3    H122951   2.906   2.333  12.377 -0.0933  1.2563 -0.6254
  512TIP3    H222952   2.961   2.320  12.236  0.5795  4.6609 -0.7621
  513TIP3   OH222953   5.637   3.158   4.531  0.5015  0.1591  0.6202
  513TIP3    H122954   5.720   3.115   4.549 -0.2522 -1.8651 -0.4906
  513TIP3    H222955   5.590   3.098   4.474 -2.1428  0.7793  1.9684
  514TIP3   OH222956   6.306   5.576  13.554 -0.7557  0.2958 -0.1798
  514TIP3    H122957   6.363   5.596  13.629 -0.1008  0.3767 -0.6851
  514TIP3    H222958   6.267   5.491  13.575  1.3169 -0.8910 -0.8030
  515TIP3   OH222959   3.303   6.059   2.619 -0.0298 -0.1248  0.7416
  515TIP3    H122960   3.343   5.974   2.599  0.8809  0.3994  0.3175
  515TIP3    H222961   3.370   6.105   2.670 -1.0951 -0.2282  2.3176
  516TIP3   OH222962   0.499   0.346   1.090  0.4320 -0.5517 -0.5961
  516TIP3    H122963   0.419   0.312   1.129 -0.0383 -0.6699 -1.6231
  516TIP3    H222964   0.527   0.278   1.028  0.7003 -0.0350 -1.0554
  517TIP3   OH222965   5.956   3.889   5.473 -0.0610  0.2565  0.0934
  517TIP3    H122966   6.034   3.900   5.528  0.5103 -1.4249 -0.3310
  517TIP3    H222967   5.969   3.951   5.401  1.0063 -0.1462 -0.0841
  518TIP3   OH222968   3.092   5.900  15.891  0.5917 -0.2342 -0.3372
  518TIP3    H122969   3.044   5.982  15.897 -0.0418 -0.7023  3.8468
  518TIP3    H222970   3.159   5.917  15.824 -0.2316  3.2335 -0.4887
  519TIP3   OH222971   0.787   4.433   5.824  0.4118 -0.3765 -0.1732
  519TIP3    H122972   0.730   4.359   5.805 -1.8469  1.2176  0.0418
  519TIP3    H222973   0.806   4.425   5.918  1.5741 -1.5498 -0.4757
  520TIP3   OH222974   0.607   0.437  14.554  0.3488 -0.3203  0.0072
  520TIP3    H122975   0.560   0.468  14.632 -0.7039 -0.1633 -0.6686
  520TIP3    H222976   0.564   0.482  14.481  0.6694 -1.2200 -0.7455
  521TIP3   OH222977   3.415   4.304  12.091  0.2054 -0.4861  0.2943
  521TIP3    H122978   3.388   4.265  12.008  0.4945 -0.7413  0.3232
  521TIP3    H222979   3.510   4.310  12.086  0.0890  2.0005 -0.5208
  522TIP3   OH222980   2.609   1.940  14.232  0.6848  0.3153 -0.2652
  522TIP3    H122981   2.611   1.966  14.324  1.1126  1.0117 -0.4663
  522TIP3    H222982   2.519   1.960  14.204  1.1715  2.2083 -0.5847
  523TIP3   OH222983   2.465   6.217   3.541 -0.0306  0.4913 -0.0007
  523TIP3    H122984   2.534   6.270   3.501  1.0560 -0.6819  0.2523
  523TIP3    H222985   2.497   6.198   3.629 -0.8670  0.2546  0.2610
  524TIP3   OH222986   1.672   3.150  13.394 -0.1765 -0.0333  0.2525
  524TIP3    H122987   1.743   3.130  13.333 -1.2289 -2.5268 -0.2960
  524TIP3    H222988   1.613   3.207  13.344  0.0378 -0.2934 -0.3008
  525TIP3   OH222989   5.749   5.590   1.508 -0.1081 -0.7654 -0.0307
  525TIP3    H122990   5.701   5.661   1.550  4.0150  0.7538  2.7114
  525TIP3    H222991   5.743   5.517   1.569 -0.4258 -1.2034 -0.5753
  526TIP3   OH222992   4.108   0.792   3.562 -0.1215 -0.6140  0.0929
  526TIP3    H122993   4.158   0.722   3.603 -0.3982 -0.2550  1.0834
  526TIP3    H222994   4.066   0.838   3.635 -0.0108  0.5365 -0.5378
  527TIP3   OH222995   1.187   4.864  14.298  0.1551  0.3044 -0.5426
  527TIP3    H122996   1.253   4.796  14.283 -0.3523 -0.1119 -0.8902
  527TIP3    H222997   1.202   4.928  14.229  1.7892  1.4824  0.7879
  528TIP3   OH222998   4.610   1.133   5.868  0.2108  0.8685 -0.2013
  528TIP3    H122999   4.693   1.126   5.915 -0.8758 -2.1949  1.5108
  528TIP3    H223000   4.629   1.096   5.781  0.3886 -1.1792  0.6523
  529TIP3   OH223001   2.806   5.625  14.954  0.0986 -0.1633 -0.5612
  529TIP3    H123002   2.740   5.641  15.021  0.3306 -0.2602 -0.3030
  529TIP3    H223003   2.889   5.646  14.997  0.4124 -1.9124 -0.2336
  530TIP3   OH223004   3.280   6.414  14.543 -0.1949 -0.8690 -0.0341
  530TIP3    H123005   3.279   6.501  14.582  1.2584 -1.3988  1.3134
  530TIP3    H223006   3.189   6.386  14.544 -0.4581 -0.0639  1.2162
  531TIP3   OH223007   1.050   0.630   1.181 -0.8544  0.0874  0.1039
  531TIP3    H123008   1.100   0.565   1.132 -0.3650  0.3239  0.2809
  531TIP3    H223009   1.111   0.661   1.249 -1.0692  0.7572 -0.0037
  532TIP3   OH223010   5.885   3.007   4.594 -0.2924 -0.2821 -0.3868
  532TIP3    H123011   5.852   2.923   4.624  0.2436 -0.9767 -1.6368
  532TIP3    H223012   5.979   3.005   4.616 -0.1227 -0.3437 -1.0935
  533TIP3   OH223013   3.888   6.018  15.019  0.4398 -0.2427 -0.2409
  533TIP3    H123014   3.849   6.080  15.081  1.5684 -0.8083  1.0801
  533TIP3    H223015   3.814   5.988  14.966  0.0721  3.3648 -2.0447
  534TIP3   OH223016   3.675   3.016  10.876 -0.2303  0.0587  0.1723
  534TIP3    H123017   3.610   2.994  10.810  1.2643  0.2225 -1.4443
  534TIP3    H223018   3.749   2.958  10.857 -0.2051 -0.8046  2.5547
  535TIP3   OH223019   1.452   6.447   4.548 -0.6598 -0.5321  0.2440
  535TIP3    H123020   1.366   6.472   4.580  0.0446 -0.5017  2.2479
  535TIP3    H223021   1.513   6.479   4.614  0.8852 -0.8502 -0.9431
  536TIP3   OH223022   4.433   6.271  11.197  0.0394  0.1205  0.4430
  536TIP3    H123023   4.423   6.251  11.290  1.2887 -0.6565  0.4507
  536TIP3    H223024   4.384   6.351  11.183  0.5867  0.7521  1.9789
  537TIP3   OH223025   1.621   2.800   0.759 -0.2636  0.2075  0.6411
  537TIP3    H123026   1.539   2.848   0.753 -0.6949 -0.4151  1.3658
  537TIP3    H223027   1.687   2.860   0.724 -0.5430  1.9250  2.8294
  538TIP3   OH223028   5.174   5.555   3.145 -0.2865  0.1088  0.1878
  538TIP3    H123029   5.238   5.566   3.075  0.2395  1.1200  0.8080
  538TIP3    H223030   5.110   5.624   3.130 -1.2491 -0.8904 -0.4213
  539TIP3   OH223031   1.555   6.443  12.808 -0.0657 -0.1913  0.5524
  539TIP3    H123032   1.634   6.495  12.795 -0.0051  0.3159  2.5556
  539TIP3    H223033   1.486   6.494  12.765  0.3242  0.5740  0.8038
  540TIP3   OH223034   0.997   1.482   5.575 -0.2496 -0.3841  0.4218
  540TIP3    H123035   1.028   1.534   5.650 -0.5518  0.1393  0.1859
  540TIP3    H223036   1.075   1.434   5.545 -0.2637 -1.1169  1.4817
  541TIP3   OH223037   6.319   6.010   1.145 -0.2453 -0.1593 -0.2696
  541TIP3    H123038   6.311   5.926   1.190 -0.5450 -0.9443 -1.7084
  541TIP3    H223039   6.391   5.998   1.084  1.6527  1.6290  1.4865
  542TIP3   OH223040   0.131   4.830   1.998 -0.2903  0.1251  0.6558
  542TIP3    H123041   0.157   4.793   2.082  1.1788  0.1461  0.2386
  542TIP3    H223042   0.036   4.818   1.994 -0.0481 -2.3564  1.1166
  543TIP3   OH223043   1.260   2.647  15.758 -0.3057  0.0454 -0.7293
  543TIP3    H123044   1.288   2.591  15.831  0.8934  2.0799  0.5004
  543TIP3    H223045   1.262   2.590  15.682 -0.4418 -1.8951  0.6357
  544TIP3   OH223046   2.567   3.880  12.658 -0.2457  0.0146  0.5433
  544TIP3    H123047   2.494   3.818  12.654 -0.8110  0.4449  2.8295
  544TIP3    H223048   2.540   3.952  12.601  0.5092 -1.7704 -2.3312
  545TIP3   OH223049   5.949   3.284   1.298  0.1425 -0.2334  0.0690
  545TIP3    H123050   5.990   3.313   1.380  2.4704 -1.2695 -0.6518
  545TIP3    H223051   5.954   3.361   1.241 -0.0847  0.0340  0.4047
  546TIP3   OH223052   3.787   5.717  15.482  0.0892  0.3052  0.2452
  546TIP3    H123053   3.824   5.805  15.476 -0.0892  0.4726  1.2540
  546TIP3    H223054   3.828   5.679  15.560 -0.7717 -0.0324  0.5505
  547TIP3   OH223055   2.949   6.079   4.701 -0.5434 -0.0205 -0.2867
  547TIP3    H123056   2.919   6.096   4.612  0.8814 -1.1775 -1.0341
  547TIP3    H223057   3.038   6.047   4.691 -0.6792 -1.1298  1.4894
  548TIP3   OH223058   0.170   5.050   1.359 -0.0724 -0.3197 -0.3152
  548TIP3    H123059   0.158   5.067   1.452  0.8415 -0.1862 -0.2077
  548TIP3    H223060   0.148   5.132   1.315  1.3324  0.2315 -0.0494
  549TIP3   OH223061   3.431   5.139   0.916 -0.2208  0.4590 -0.1559
  549TIP3    H123062   3.472   5.171   0.836 -2.6249  1.4572 -1.0852
  549TIP3    H223063   3.382   5.213   0.950 -1.2497 -0.6395  0.8745
  550TIP3   OH223064   0.925   1.515  16.859  0.3912 -0.2163  0.3514
  550TIP3    H123065   0.998   1.506  16.919  1.3195  0.4064 -0.6375
  550TIP3    H223066   0.965   1.518  16.772 -0.6936  1.2203 -0.1603
  551TIP3   OH223067   6.058   4.233  13.836  0.6601 -0.1685  0.1501
  551TIP3    H123068   6.110   4.197  13.764  1.9942  1.6952  0.1025
  551TIP3    H223069   6.062   4.327  13.823 -1.0253  0.1100  1.3820
  552TIP3   OH223070   6.279   5.562  16.432  0.0439 -0.3375  0.2032
  552TIP3    H123071   6.248   5.475  16.459  0.0360 -0.2030  0.6351
  552TIP3    H223072   6.251   5.620  16.502 -1.0310  0.2301 -0.6701
  553TIP3   OH223073   2.380   2.509   3.545  0.1978  0.2468 -0.0139
  553TIP3    H123074   2.445   2.571   3.580 -0.7762  0.8786  0.7149
  553TIP3    H223075   2.347   2.552   3.466  2.1938 -1.0536 -1.6463
  554TIP3   OH223076   5.814   1.698   1.163 -0.2951 -0.1661 -0.0880
  554TIP3    H123077   5.897   1.669   1.199  0.1243 -0.6160 -1.3758
  554TIP3    H223078   5.826   1.792   1.145 -0.4092 -0.0068  0.6311
  555TIP3   OH223079   4.486   4.343   0.019 -0.7685  0.8581 -0.3426
  555TIP3    H123080   4.553   4.409   0.006  1.1006 -1.0825 -1.2109
  555TIP3    H223081   4.504   4.307   0.107 -0.6103  0.3101 -0.5914
  556TIP3   OH223082   5.897   2.384  15.196  0.3143  0.4168  0.3841
  556TIP3    H123083   5.976   2.330  15.199 -0.0725 -0.1044  2.2621
  556TIP3    H223084   5.928   2.473  15.207  0.6912  0.2878  0.3763
  557TIP3   OH223085   0.304   1.310   2.263 -0.5854 -0.5133 -0.1342
  557TIP3    H123086   0.337   1.309   2.353  0.8368 -0.8116 -0.6405
  557TIP3    H223087   0.339   1.231   2.223 -1.9525 -0.8657 -0.7224
  558TIP3   OH223088   0.833   5.741   1.280  0.0625 -0.1669  0.1762
  558TIP3    H123089   0.794   5.679   1.218 -0.6289 -1.2611  1.6343
  558TIP3    H223090   0.765   5.752   1.347 -0.1083  2.7497 -0.3728
  559TIP3   OH223091   3.978   1.143  16.620  0.0335 -0.4032 -0.2404
  559TIP3    H123092   4.018   1.109  16.541  1.2740 -0.1948  0.2776
  559TIP3    H223093   4.050   1.180  16.670 -0.4944 -1.7342  1.6218
  560TIP3   OH223094   3.911   5.158   3.424  0.1142 -0.5392  0.0078
  560TIP3    H123095   3.953   5.086   3.378 -1.7051  0.0890 -2.8891
  560TIP3    H223096   3.838   5.118   3.471  0.0655 -0.7692 -0.2699
  561TIP3   OH223097   1.574   3.372   3.899 -0.3258  0.0163  0.1193
  561TIP3    H123098   1.605   3.282   3.894  0.2412  0.1780  0.5347
  561TIP3    H223099   1.622   3.417   3.829 -1.8209 -0.3266 -1.1724
  562TIP3   OH223100   5.080   1.813  10.692 -0.2660  0.0124 -0.3370
  562TIP3    H123101   5.089   1.886  10.753  2.1409 -0.8623  0.4666
  562TIP3    H223102   5.014   1.756  10.732 -2.1701  1.6468 -0.9770
  563TIP3   OH223103   4.177   1.692  12.014 -0.1295  0.1900  0.2721
  563TIP3    H123104   4.140   1.667  11.929  1.5602 -2.8482  0.3019
  563TIP3    H223105   4.272   1.689  12.000  0.1682  1.3004  1.8719
  564TIP3   OH223106   0.109   3.401  12.039  0.4299 -0.3015  0.6267
  564TIP3    H123107   0.189   3.352  12.022  0.6310  0.2461 -0.0479
  564TIP3    H223108   0.104   3.406  12.135  1.8681  0.7251  0.6731
  565TIP3   OH223109   0.365   3.406   0.810  0.8771 -0.3590  0.7389
  565TIP3    H123110   0.326   3.488   0.779  0.6818  0.4182  2.8339
  565TIP3    H223111   0.308   3.337   0.775  0.0468  0.5086  0.3416
  566TIP3   OH223112   6.364   2.520   4.007  0.0303 -0.1007 -0.0181
  566TIP3    H123113   6.441   2.482   3.965  0.1227 -1.4404  1.2955
  566TIP3    H223114   6.301   2.530   3.935  0.5174 -1.4127 -0.6630
  567TIP3   OH223115   6.563   3.688  11.401 -0.2680 -0.0562 -0.7322
  567TIP3    H123116   6.645   3.731  11.376  0.1685 -1.2185 -1.3893
  567TIP3    H223117   6.517   3.753  11.454  1.1300  0.5727 -0.2340
  568TIP3   OH223118   4.238   5.332  11.328 -0.9550 -0.3987 -0.3041
  568TIP3    H123119   4.216   5.285  11.248  0.7469 -1.6722 -0.0922
  568TIP3    H223120   4.325   5.298  11.352  0.0800  2.3648  0.2478
  569TIP3   OH223121   4.857   6.581   5.259  0.3951  0.3720 -0.1307
  569TIP3    H123122   4.921   6.513   5.238  0.2573  0.0659  0.4552
  569TIP3    H223123   4.833   6.565   5.350 -1.5586 -0.3654 -0.7386
  570TIP3   OH223124   2.026   1.881   4.851  0.2278  0.2727  0.6682
  570TIP3    H123125   2.016   1.963   4.803 -1.5455 -0.2164  0.1089
  570TIP3    H223126   2.068   1.906   4.934 -0.8405  1.8427  0.7753
  571TIP3   OH223127   3.266   2.708  15.425  0.0571 -0.0901 -0.1116
  571TIP3    H123128   3.359   2.697  15.404 -0.3448 -1.4285 -1.4557
  571TIP3    H223129   3.227   2.624  15.398 -1.5825  0.5890  0.0880
  572TIP3   OH223130   4.397   2.058   1.008  0.1481  0.0664 -0.7130
  572TIP3    H123131   4.481   2.061   1.054 -1.0717  2.2159  1.6390
  572TIP3    H223132   4.339   2.114   1.060 -2.3174 -0.0016 -3.1456
  573TIP3   OH223133   1.109   0.921  12.074  0.1472 -0.0734 -0.0766
  573TIP3    H123134   1.192   0.874  12.067  0.0944 -0.0127 -1.4649
  573TIP3    H223135   1.044   0.853  12.088  0.3169 -0.2246 -0.0204
  574TIP3   OH223136   0.439   1.553  12.571  0.1932  0.3598  0.2805
  574TIP3    H123137   0.448   1.472  12.520  0.4472  0.5786 -0.0238
  574TIP3    H223138   0.363   1.597  12.533 -0.8987 -0.4691  1.4585
  575TIP3   OH223139   5.768   0.836   5.807  0.1756  0.4381 -0.1551
  575TIP3    H123140   5.818   0.874   5.879 -0.3779  0.1507  0.3900
  575TIP3    H223141   5.808   0.751   5.792  1.6331  1.3272 -1.5994
  576TIP3   OH223142   3.070   3.178  15.384  0.4744  0.2315  0.2722
  576TIP3    H123143   3.106   3.165  15.471 -1.7232  0.6320  1.3226
  576TIP3    H223144   3.138   3.147  15.324  0.5268 -4.2256  2.2093
  577TIP3   OH223145   6.634   3.085   3.689  0.0572  0.3972  0.3985
  577TIP3    H123146   6.663   3.172   3.663 -2.2506  0.8332 -1.0100
  577TIP3    H223147   6.600   3.046   3.609 -0.4194 -1.1865  1.3252
  578TIP3   OH223148   4.360   5.978   5.079  0.4319 -0.5333  0.3568
  578TIP3    H123149   4.299   6.006   5.147 -1.7147 -0.6011 -1.4174
  578TIP3    H223150   4.341   5.885   5.067  0.7780 -0.5219 -0.3142
  579TIP3   OH223151   1.510   3.028   1.027  0.1534  0.0982 -0.1895
  579TIP3    H123152   1.490   3.117   0.999 -2.6851  0.1132  1.4717
  579TIP3    H223153   1.431   2.978   1.006  0.9032 -1.5823  0.7334
  580TIP3   OH223154   4.202   3.365   4.894 -0.3184  0.1112  0.5422
  580TIP3    H123155   4.292   3.334   4.883 -0.7732 -2.0333  2.1292
  580TIP3    H223156   4.183   3.411   4.812  2.4909  1.5098  0.5418
  581TIP3   OH223157   4.260   2.982  12.854 -0.0179  0.4212  0.6053
  581TIP3    H123158   4.343   2.989  12.902 -0.5351  1.0624  1.4338
  581TIP3    H223159   4.218   2.904  12.891  0.1345  0.1800  0.2844
  582TIP3   OH223160   5.409   5.387   6.024 -0.1427 -0.2280  0.3737
  582TIP3    H123161   5.346   5.352   6.087 -2.2848  1.2694 -0.8139
  582TIP3    H223162   5.406   5.482   6.039 -2.9204  0.5758 -3.7001
  583TIP3   OH223163   5.266   3.087  13.322  0.1730  0.4175  0.2236
  583TIP3    H123164   5.179   3.107  13.357 -0.6058 -1.0597 -0.7682
  583TIP3    H223165   5.324   3.146  13.369 -1.3437  1.3705  0.9984
  584TIP3   OH223166   4.044   1.839  14.342  0.1684 -0.6592  0.0365
  584TIP3    H123167   4.069   1.824  14.251 -0.8870  1.6141 -0.7107
  584TIP3    H223168   4.127   1.843  14.389  0.7940 -0.7933 -1.0211
  585TIP3   OH223169   4.342   2.259  13.296 -0.4956  0.6671  0.3367
  585TIP3    H123170   4.369   2.284  13.384  0.3832  1.5950 -0.1774
  585TIP3    H223171   4.270   2.198  13.309 -0.1272  0.5010  1.7012
  586TIP3   OH223172   3.966   6.437  16.270  0.4407  0.2528  0.2703
  586TIP3    H123173   4.020   6.406  16.197 -0.3077  1.1691 -0.7060
  586TIP3    H223174   3.931   6.358  16.310  1.2450 -0.2819 -0.0530
  587TIP3   OH223175   4.065   1.648   0.607  0.5426 -0.0043  0.1349
  587TIP3    H123176   4.080   1.555   0.627  1.9448 -0.2069 -1.6978
  587TIP3    H223177   3.974   1.663   0.636  0.5925 -1.6626  1.3484
  588TIP3   OH223178   5.330   1.840  16.653 -0.3378  0.2310 -0.5182
  588TIP3    H123179   5.392   1.886  16.709  0.3383 -0.4373 -0.6998
  588TIP3    H223180   5.246   1.884  16.668  0.2540  1.3999 -0.5708
  589TIP3   OH223181   1.543   2.731  11.066 -0.0994  0.8159  0.1865
  589TIP3    H123182   1.607   2.794  11.101 -2.2441  2.2278  1.8217
  589TIP3    H223183   1.516   2.768  10.983  2.7852 -1.0091 -1.7711
  590TIP3   OH223184   1.443   0.129  14.520 -0.0811 -0.4431 -0.4294
  590TIP3    H123185   1.363   0.131  14.468  0.6370  1.5435 -1.5840
  590TIP3    H223186   1.418   0.086  14.602 -2.1927 -0.2680 -0.9328
  591TIP3   OH223187   1.545   4.882  15.511 -0.2580  0.5276  0.0262
  591TIP3    H123188   1.466   4.875  15.458  1.2223 -0.8054 -2.1660
  591TIP3    H223189   1.551   4.798  15.556  0.9477 -0.2731 -1.5048
  592TIP3   OH223190   1.223   1.746   5.424 -0.4424 -0.2406 -0.2278
  592TIP3    H123191   1.269   1.787   5.351 -0.8176  0.4531 -0.0865
  592TIP3    H223192   1.233   1.808   5.496 -1.0303 -0.3919 -0.0114
  593TIP3   OH223193   4.687   1.785   2.126 -0.6025  0.4002  0.1211
  593TIP3    H123194   4.731   1.708   2.161 -0.4573  1.6562  2.9705
  593TIP3    H223195   4.755   1.834   2.080 -0.3140 -0.2846 -0.1979
  594TIP3   OH223196   1.171   4.852   6.205 -0.0629 -0.2915  0.4874
  594TIP3    H123197   1.110   4.918   6.238 -1.5540 -2.4041  2.2930
  594TIP3    H223198   1.249   4.863   6.258  1.2149  2.2652 -1.6657
  595TIP3   OH223199   4.429   3.922   0.330  0.1186  0.2405 -0.2195
  595TIP3    H123200   4.434   3.996   0.269  1.4792 -0.2624 -0.7600
  595TIP3    H223201   4.363   3.949   0.394  0.1665  1.6830 -0.7205
  596TIP3   OH223202   5.176   3.717  14.612 -0.1768 -0.0361 -0.7111
  596TIP3    H123203   5.151   3.803  14.578 -0.2351  1.2932  2.3387
  596TIP3    H223204   5.261   3.699  14.572 -0.0715  1.5504 -1.2752
  597TIP3   OH223205   2.980   6.625  11.412  0.6259  0.5890  0.6045
  597TIP3    H123206   3.015   6.578  11.487  1.0245 -1.8669 -0.9796
  597TIP3    H223207   2.890   6.594  11.404 -0.0452  2.3273  1.1803
  598TIP3   OH223208   4.191   6.191   5.869  0.4336  0.2138 -0.0568
  598TIP3    H123209   4.192   6.158   5.959  1.9674  0.4366  0.0203
  598TIP3    H223210   4.275   6.235   5.858 -1.7589  5.0701  0.1692
  599TIP3   OH223211   0.746   6.289  16.018 -0.2390 -0.1395 -0.5245
  599TIP3    H123212   0.822   6.259  15.968 -1.6224 -0.6138 -2.4607
  599TIP3    H223213   0.784   6.331  16.096  1.9395 -1.5423 -0.7265
  600TIP3   OH223214   2.117   5.128  13.747 -0.5026  0.5996 -0.0896
  600TIP3    H123215   2.025   5.105  13.759 -0.0731 -0.7202  0.9124
  600TIP3    H223216   2.146   5.157  13.833 -0.1143  1.6599 -0.5457
  601TIP3   OH223217   2.527   6.057  17.284 -0.5859 -0.0426  0.1166
  601TIP3    H123218   2.611   6.053  17.239 -0.2975  0.4454  0.5983
  601TIP3    H223219   2.494   6.145  17.266 -0.8296 -0.1120  0.2150
  602TIP3   OH223220   4.152   5.356   3.776  0.1012  0.6815  0.2342
  602TIP3    H123221   4.094   5.286   3.809  0.5392  0.0911 -0.2277
  602TIP3    H223222   4.188   5.396   3.855  1.7930 -1.2701  0.5187
  603TIP3   OH223223   1.531   4.700  11.964 -0.1821 -0.6475  0.0623
  603TIP3    H123224   1.458   4.676  11.906 -2.6382  1.0187  2.2294
  603TIP3    H223225   1.560   4.785  11.932  0.2419 -0.9182 -0.2779
  604TIP3   OH223226   4.928   1.868   5.548 -0.1788  0.1999 -0.0765
  604TIP3    H123227   4.889   1.782   5.533 -1.0965  0.5996 -0.0444
  604TIP3    H223228   4.921   1.882   5.642 -0.7454  0.6275 -0.1740
  605TIP3   OH223229   5.939   5.726  16.949 -0.3630 -0.3899 -0.0646
  605TIP3    H123230   5.882   5.743  16.874 -0.1736 -1.4695 -0.4725
  605TIP3    H223231   5.924   5.633  16.970  2.1597 -1.0793 -0.9653
  606TIP3   OH223232   3.303   1.943  12.361  0.5771  0.3590 -0.1038
  606TIP3    H123233   3.359   1.897  12.423  0.8164  0.8518  0.0494
  606TIP3    H223234   3.225   1.967  12.411  1.1778  1.5951  0.2794
  607TIP3   OH223235   0.204   3.987  10.896  0.1531 -0.1434 -0.4938
  607TIP3    H123236   0.138   3.939  10.847  0.3785  0.0409 -0.9791
  607TIP3    H223237   0.286   3.973  10.849  0.3319  0.2234 -0.3048
  608TIP3   OH223238   0.031   1.319   2.734  0.3319 -0.4656 -0.2381
  608TIP3    H123239   0.103   1.256   2.734  0.9363  0.1651 -1.5288
  608TIP3    H223240   0.047   1.374   2.811  0.0759 -1.5477  0.6121
  609TIP3   OH223241   0.851   4.447   1.179 -0.5217 -0.2035  0.4641
  609TIP3    H123242   0.812   4.516   1.125 -1.0151 -0.2436  0.7672
  609TIP3    H223243   0.841   4.478   1.269  0.2154 -0.1803  0.5444
  610TIP3   OH223244   1.939   2.541  16.464 -0.1839 -0.6327  0.6533
  610TIP3    H123245   1.916   2.614  16.522  0.7218  0.1184  0.0858
  610TIP3    H223246   1.928   2.576  16.376  0.1370 -1.2341  0.3733
  611TIP3   OH223247   2.975   5.409   1.165  0.0104  0.2962 -0.2442
  611TIP3    H123248   2.944   5.328   1.124 -0.2540  0.1259  0.2845
  611TIP3    H223249   2.946   5.402   1.256  1.1642  0.3565  0.1441
  612TIP3   OH223250   6.616   0.350   0.373 -0.2128  0.3845  0.5858
  612TIP3    H123251   6.531   0.315   0.347 -1.0274  0.4728  2.9331
  612TIP3    H223252   6.677   0.319   0.306 -1.8215 -1.0240 -0.2717
  613TIP3   OH223253   5.885   5.909   0.245 -0.3668  0.0682 -0.1583
  613TIP3    H123254   5.918   5.942   0.328  0.3014 -1.1661  0.0899
  613TIP3    H223255   5.795   5.882   0.264 -0.4220  0.3725  0.0054
  614TIP3   OH223256   5.842   0.849   4.978  0.0092  0.4353  0.2041
  614TIP3    H123257   5.770   0.824   5.037  0.4387 -0.7340  0.2669
  614TIP3    H223258   5.837   0.944   4.973 -1.5575  0.3854  0.1972
  615TIP3   OH223259   6.160   3.759  12.845  0.0931  0.0694  0.3275
  615TIP3    H123260   6.099   3.770  12.773  1.7485  1.1229 -1.0052
  615TIP3    H223261   6.183   3.849  12.871  0.1724 -0.2970  1.5937
  616TIP3   OH223262   0.095   1.302  10.453  0.1327 -0.1305  0.3823
  616TIP3    H123263   0.115   1.212  10.427  1.9571  0.2373  0.3894
  616TIP3    H223264   0.025   1.329  10.394 -0.4747 -1.5400  0.4022
  617TIP3   OH223265   0.779   5.317  13.196 -0.1429 -0.1048 -0.7325
  617TIP3    H123266   0.755   5.235  13.239 -3.4810  2.2355  2.4298
  617TIP3    H223267   0.707   5.334  13.135  1.2533 -0.1161 -2.4653
  618TIP3   OH223268   6.743   0.285  15.408  0.2268 -0.0121  0.0732
  618TIP3    H123269   6.652   0.271  15.434  0.7948 -0.9815  1.7633
  618TIP3    H223270   6.756   0.379  15.415 -0.8216  0.2280 -0.9099
  619TIP3   OH223271   4.072   6.239  15.047  0.2382 -0.4151  1.0500
  619TIP3    H123272   4.156   6.284  15.040 -0.9716  1.6453 -1.5802
  619TIP3    H223273   4.064   6.190  14.965 -1.1804 -0.5387  1.2406
  620TIP3   OH223274   1.842   1.525  12.789 -0.0739 -0.1150 -0.6628
  620TIP3    H123275   1.929   1.487  12.779 -0.0392 -0.4940  0.8295
  620TIP3    H223276   1.782   1.450  12.782 -0.0648 -0.3638  1.3116
  621TIP3   OH223277   0.816   1.951   4.604 -0.5744 -0.4717 -0.6109
  621TIP3    H123278   0.852   1.943   4.692 -0.0833 -2.5696 -0.9475
  621TIP3    H223279   0.815   1.861   4.571  0.0414  0.3537 -3.0491
  622TIP3   OH223280   0.958   6.685   4.358 -0.0569 -0.4116 -0.1231
  622TIP3    H123281   0.992   6.610   4.311 -1.8893 -0.6080 -1.2231
  622TIP3    H223282   0.887   6.650   4.412 -1.1711  0.5413 -0.9208
  623TIP3   OH223283   0.235   0.361   1.700  0.1935 -0.2916 -0.3236
  623TIP3    H123284   0.269   0.414   1.628 -1.2231 -0.3771 -1.0948
  623TIP3    H223285   0.284   0.390   1.777  0.4887  1.0687 -1.0025
  624TIP3   OH223286   3.951   5.854  15.861  0.0420 -0.1713  0.5232
  624TIP3    H123287   3.871   5.902  15.839  0.4389  0.5618  0.6247
  624TIP3    H223288   3.984   5.821  15.777 -1.3123 -2.0456  0.6797
  625TIP3   OH223289   4.369   1.535  14.522  0.4448  0.8141  0.5276
  625TIP3    H123290   4.324   1.619  14.530 -0.6898  0.1731  1.1194
  625TIP3    H223291   4.399   1.533  14.431 -0.6686  1.2984  0.1241
  626TIP3   OH223292   0.990   1.368   2.042  0.2217 -0.3688  0.9184
  626TIP3    H123293   1.022   1.310   1.973 -0.1674  0.8626 -0.3401
  626TIP3    H223294   1.067   1.385   2.097  1.2933  0.8851 -0.8629
  627TIP3   OH223295   2.673   5.426  12.500 -0.3747  0.4415  0.0587
  627TIP3    H123296   2.653   5.332  12.502 -1.5391  0.6880  1.6677
  627TIP3    H223297   2.767   5.430  12.518  0.5132 -0.5339 -3.6250
  628TIP3   OH223298   4.723   1.898   1.632  0.2610 -0.0440  0.2039
  628TIP3    H123299   4.637   1.939   1.625  0.4079  0.1401 -0.6955
  628TIP3    H223300   4.705   1.804   1.628  0.0666 -0.0208  0.4922
  629TIP3   OH223301   0.740   1.577   4.283 -0.4082 -0.1947 -0.1675
  629TIP3    H123302   0.680   1.647   4.306  1.0232  0.7996  0.6713
  629TIP3    H223303   0.685   1.511   4.240 -2.0258  0.7750  0.3535
  630TIP3   OH223304   0.574   2.244   3.014  0.0693  1.0378 -0.0575
  630TIP3    H123305   0.544   2.201   3.095  1.8068  2.3703  1.3963
  630TIP3    H223306   0.520   2.323   3.007 -0.7450  0.4346 -0.7801
  631TIP3   OH223307   2.085   1.248   4.584  0.3060 -0.3256  0.4772
  631TIP3    H123308   2.153   1.286   4.639 -0.6513 -0.0858  1.5292
  631TIP3    H223309   2.110   1.273   4.495  1.9564 -0.8358  0.7552
  632TIP3   OH223310   4.495   3.036   3.294  0.4784 -0.1310  0.0238
  632TIP3    H123311   4.489   2.982   3.215 -1.5918  1.4076 -0.9795
  632TIP3    H223312   4.408   3.029   3.334  1.1836 -0.0777  1.6388
  633TIP3   OH223313   3.969   5.975   0.188  0.0353 -0.0307  0.0523
  633TIP3    H123314   3.973   5.968   0.283 -2.6873 -1.1843  0.1576
  633TIP3    H223315   4.050   5.934   0.157  0.1525 -1.2109  1.8165
  634TIP3   OH223316   4.500   1.164  14.539 -0.0130 -0.1039 -0.0229
  634TIP3    H123317   4.462   1.232  14.596  0.8643  0.2807  0.1213
  634TIP3    H223318   4.593   1.184  14.538 -0.0266 -0.0432 -1.7097
  635TIP3   OH223319   2.987   4.650  16.440  0.5593  0.3081  0.0497
  635TIP3    H123320   3.064   4.685  16.485  0.3337  0.0169  0.6803
  635TIP3    H223321   2.948   4.726  16.397 -0.2864  0.9956  1.9328
  636TIP3   OH223322   3.960   0.166  12.536  0.5734  0.5823 -0.5494
  636TIP3    H123323   3.879   0.117  12.545 -0.7075  2.6528  0.0371
  636TIP3    H223324   3.969   0.179  12.441  0.7855 -0.5073 -0.6884
  637TIP3   OH223325   3.670   1.811   0.307 -0.0831 -0.2023  0.2844
  637TIP3    H123326   3.726   1.887   0.297  0.1595 -0.2513  1.1669
  637TIP3    H223327   3.585   1.847   0.333 -0.3042 -0.1625 -0.4873
  638TIP3   OH223328   2.127   3.410   0.435 -0.5187 -0.2000 -0.2083
  638TIP3    H123329   2.138   3.391   0.528 -0.9553 -2.1809 -0.5252
  638TIP3    H223330   2.038   3.446   0.429  0.7034  3.4107  0.5493
  639TIP3   OH223331   4.421   4.173   1.939 -0.2219  0.0494 -0.1464
  639TIP3    H123332   4.491   4.108   1.939 -0.8704 -0.6630 -0.3530
  639TIP3    H223333   4.430   4.218   1.854 -2.2507 -2.5441 -1.8871
  640TIP3   OH223334   1.452   5.932   0.299  0.5203  0.0596  0.4420
  640TIP3    H123335   1.418   5.894   0.217 -1.6974  2.4164  0.1257
  640TIP3    H223336   1.500   6.009   0.271  0.2562  0.5527  1.3081
  641TIP3   OH223337   6.631   0.798   4.366 -0.0835  0.2155 -0.1452
  641TIP3    H123338   6.664   0.734   4.429  2.1080 -0.5997 -1.9776
  641TIP3    H223339   6.536   0.794   4.374  0.0992 -1.1638  1.8033
  642TIP3   OH223340   6.371   3.342  14.497 -0.0211 -0.5933  0.1096
  642TIP3    H123341   6.435   3.404  14.533 -0.8184  0.6883 -0.6175
  642TIP3    H223342   6.412   3.256  14.510  1.7057  0.1547 -0.0392
  643TIP3   OH223343   2.759   5.348  17.141 -0.4052  0.2029  0.0239
  643TIP3    H123344   2.703   5.284  17.184  0.5133 -0.2144  0.6282
  643TIP3    H223345   2.750   5.328  17.047 -0.7316 -0.2950  0.1568
  644TIP3   OH223346   3.233   6.653  14.663  0.1545  0.3153 -0.1419
  644TIP3    H123347   3.262   6.668  14.754 -0.9512 -2.6486  0.7987
  644TIP3    H223348   3.191   6.736  14.639  0.9337  1.3825  1.8414
  645TIP3   OH223349   0.824   5.313   1.193 -0.2456  0.2124 -0.0237
  645TIP3    H123350   0.782   5.228   1.207 -0.5868  0.0769 -1.6069
  645TIP3    H223351   0.907   5.292   1.151 -0.8179  0.6685 -1.4501
  646TIP3   OH223352   2.064   4.137   3.166 -0.1677  0.0341  0.1970
  646TIP3    H123353   2.017   4.117   3.085 -0.8324  1.1746  0.2860
  646TIP3    H223354   2.146   4.087   3.159 -0.1760  0.1803 -1.2200
  647TIP3   OH223355   2.268   6.353   6.128  0.1893 -0.1882 -0.2932
  647TIP3    H123356   2.270   6.375   6.035 -0.2365 -0.7474 -0.4417
  647TIP3    H223357   2.302   6.264   6.133 -0.5131 -0.4485 -0.0122
  648TIP3   OH223358   4.144   2.518  14.219 -0.0828  0.3655 -0.5770
  648TIP3    H123359   4.133   2.521  14.124 -0.8732  1.4711 -0.4642
  648TIP3    H223360   4.149   2.609  14.246 -0.9622  0.0967  0.5554
  649TIP3   OH223361   3.587   1.254   5.218 -0.0382 -0.1535 -0.0751
  649TIP3    H123362   3.620   1.176   5.172 -0.0975  0.8560 -1.9328
  649TIP3    H223363   3.515   1.285   5.162  0.2040  1.4230  0.4462
  650TIP3   OH223364   1.545   5.082   4.815  0.3861  0.3138  0.3801
  650TIP3    H123365   1.453   5.077   4.841  0.6378 -0.1538  1.2014
  650TIP3    H223366   1.546   5.147   4.745 -0.1116  2.6698  2.4541
  651TIP3   OH223367   6.091   6.471   3.225 -0.6389 -0.3410  0.3008
  651TIP3    H123368   6.062   6.483   3.135  0.2190  0.7088  0.1539
  651TIP3    H223369   6.010   6.454   3.274 -1.0646 -1.3284 -0.7105
  652TIP3   OH223370   5.528   6.225   3.919  0.2333 -0.3850  0.0274
  652TIP3    H123371   5.613   6.265   3.938 -0.5074  0.7917  0.9490
  652TIP3    H223372   5.533   6.138   3.959  1.0749 -0.4239 -0.1338
  653TIP3   OH223373   5.871   6.011   5.723  0.1562  0.6346  0.1597
  653TIP3    H123374   5.947   5.969   5.763 -0.0570  0.8011  0.7509
  653TIP3    H223375   5.844   6.077   5.787 -2.0793 -1.1625  1.2110
  654TIP3   OH223376   1.995   0.900   0.037 -0.1762  0.3233  0.5592
  654TIP3    H123377   2.067   0.869  -0.018  0.6759 -0.1514  1.8982
  654TIP3    H223378   1.949   0.964  -0.018 -1.2119 -2.2697 -1.8287
  655TIP3   OH223379   4.441   6.535  14.463  0.3920 -0.1835  0.2487
  655TIP3    H123380   4.389   6.486  14.399 -1.7348  1.8479  0.2617
  655TIP3    H223381   4.481   6.606  14.412  0.6095  0.0798  0.7739
  656TIP3   OH223382   0.689   2.297  12.728  0.0157 -0.1686 -0.1332
  656TIP3    H123383   0.665   2.332  12.642 -0.7134  1.4184  0.6720
  656TIP3    H223384   0.607   2.270  12.767  0.2646 -0.2664  0.3266
  657TIP3   OH223385   3.688   0.817  14.575  0.1253 -0.3657 -0.2462
  657TIP3    H123386   3.651   0.739  14.615 -0.3777  1.2514  2.6868
  657TIP3    H223387   3.753   0.848  14.638 -0.4137  2.1214 -0.7936
  658TIP3   OH223388   3.670   2.023   0.893  0.0402  0.5962  0.4460
  658TIP3    H123389   3.577   2.006   0.878  0.0404  0.3985  0.6470
  658TIP3    H223390   3.710   2.020   0.806  0.3310 -2.3128  0.5756
  659TIP3   OH223391   0.062   3.182   5.928 -0.1225 -0.0626 -0.5269
  659TIP3    H123392   0.090   3.091   5.930  1.3058  0.3352  2.1560
  659TIP3    H223393  -0.032   3.178   5.947 -0.2012 -0.9966 -1.0668
  660TIP3   OH223394   4.827   0.105  12.195 -0.1436  0.2936 -0.3897
  660TIP3    H123395   4.812   0.028  12.140 -2.2195 -0.6246  1.3122
  660TIP3    H223396   4.745   0.154  12.191  0.6635  1.6911 -0.3415
  661TIP3   OH223397   0.577   4.203   0.326  0.6060 -0.0787  0.4249
  661TIP3    H123398   0.537   4.123   0.359 -0.8179 -0.3258 -1.6574
  661TIP3    H223399   0.668   4.181   0.311  0.0924 -1.5617 -0.7448
  662TIP3   OH223400   6.360   6.748  14.515 -0.0201 -0.2692  0.0846
  662TIP3    H123401   6.362   6.661  14.474  0.4600  0.6793 -2.0657
  662TIP3    H223402   6.430   6.746  14.580  0.2368 -1.3679 -0.2068
  663TIP3   OH223403   0.098   3.360   2.527  0.0123 -0.3651 -0.4057
  663TIP3    H123404   0.037   3.381   2.598  0.1293  1.8400 -0.8983
  663TIP3    H223405   0.182   3.346   2.571  0.1768  1.3921 -0.1105
  664TIP3   OH223406   1.109   5.233  11.265  0.0445  0.1151  0.4212
  664TIP3    H123407   1.051   5.243  11.189 -0.1560  0.0475  0.5629
  664TIP3    H223408   1.125   5.139  11.271  1.7271  0.2782 -0.7584
  665TIP3   OH223409   6.019   2.853  14.227  0.4290  0.2469 -0.5169
  665TIP3    H123410   6.107   2.816  14.225 -0.1715 -1.4431  1.1334
  665TIP3    H223411   6.033   2.947  14.226  2.2200  0.0234 -0.9224
  666TIP3   OH223412   6.375   1.335  14.726 -0.2563 -0.6413  0.2733
  666TIP3    H123413   6.384   1.379  14.811 -0.4215 -0.8441  0.3963
  666TIP3    H223414   6.299   1.375  14.685  1.9868  2.2416 -1.4747
  667TIP3   OH223415   0.821   5.278   5.252 -0.2676 -0.0300 -0.4928
  667TIP3    H123416   0.811   5.195   5.298  0.3793 -0.2190 -0.6838
  667TIP3    H223417   0.752   5.334   5.288 -0.7760 -0.6806 -0.4394
  668TIP3   OH223418   3.662   5.348  15.317 -0.5419  0.3182  0.1938
  668TIP3    H123419   3.675   5.281  15.249  0.9085  1.9259 -1.2309
  668TIP3    H223420   3.720   5.321  15.388 -1.8169 -1.2062  0.7108
  669TIP3   OH223421   3.712   5.974  14.311  0.4221  0.1184 -0.7892
  669TIP3    H123422   3.790   5.929  14.342 -0.8547 -1.7773 -0.1555
  669TIP3    H223423   3.693   5.935  14.226  0.4213  0.9078 -1.1621
  670TIP3   OH223424   3.838   0.773  12.998 -0.0754 -0.1996  0.2378
  670TIP3    H123425   3.875   0.845  13.049  1.6629 -0.3022 -0.8040
  670TIP3    H223426   3.747   0.769  13.027 -0.2429  2.3865  0.3631
  671TIP3   OH223427   3.181   0.530   6.131  0.1926 -0.1300  0.6678
  671TIP3    H123428   3.119   0.600   6.152  0.8784  0.0772  2.1201
  671TIP3    H223429   3.133   0.449   6.150 -0.0565 -0.0164  0.5332
  672TIP3   OH223430   3.864   0.114  12.105 -0.2996  0.2625 -0.4749
  672TIP3    H123431   3.785   0.120  12.159  1.1090 -0.5681  1.8354
  672TIP3    H223432   3.933   0.151  12.160  1.6571 -2.6843 -0.7354
  673TIP3   OH223433   3.321   2.729  13.173 -0.2894  0.0794 -0.8390
  673TIP3    H123434   3.380   2.713  13.247  1.3700  1.7886 -1.7170
  673TIP3    H223435   3.366   2.693  13.097 -1.2450 -0.2266 -1.2847
  674TIP3   OH223436   3.834   6.156  16.046 -0.6976 -0.0866 -0.3677
  674TIP3    H123437   3.863   6.084  16.102 -0.7121  1.5206  1.8520
  674TIP3    H223438   3.894   6.154  15.971  0.0156 -1.6764  0.1960
  675TIP3   OH223439   4.658   6.159  16.553 -0.8197 -0.1423 -0.1258
  675TIP3    H123440   4.750   6.154  16.580 -1.2916 -1.2404  1.4721
  675TIP3    H223441   4.624   6.235  16.600 -1.1540 -0.8542  0.8220
  676TIP3   OH223442   5.886   4.051  14.470  0.0482 -1.0836  0.3430
  676TIP3    H123443   5.842   4.046  14.385 -2.1800  1.6634  1.1836
  676TIP3    H223444   5.887   3.961  14.502  0.5153 -2.1144 -2.3388
  677TIP3   OH223445   2.800   4.048  11.617  0.2980 -0.0627  0.9877
  677TIP3    H123446   2.778   4.141  11.619 -0.9890 -0.3546  2.8733
  677TIP3    H223447   2.881   4.041  11.667  0.8590  0.1158  0.1319
  678TIP3   OH223448   5.266   1.697  16.233 -0.3759  0.0289 -0.0198
  678TIP3    H123449   5.186   1.749  16.236  1.4479  3.0499  1.2195
  678TIP3    H223450   5.283   1.675  16.325  0.4888 -0.0549 -0.1945
  679TIP3   OH223451   0.408   6.208   4.960  0.1541 -0.2909 -0.1603
  679TIP3    H123452   0.383   6.268   4.890  0.9428 -1.4133 -1.4589
  679TIP3    H223453   0.471   6.257   5.013  1.0100 -0.0302 -1.3709
  680TIP3   OH223454   6.079   0.876  11.763 -0.0019 -0.4022  0.0601
  680TIP3    H123455   6.043   0.939  11.826  0.6917  0.1847 -0.1224
  680TIP3    H223456   6.169   0.905  11.748 -0.1593 -0.5281 -1.2179
  681TIP3   OH223457   3.263   4.784   1.191  0.4170 -0.4290 -0.3389
  681TIP3    H123458   3.243   4.851   1.125 -2.0421  0.0377  0.7856
  681TIP3    H223459   3.234   4.702   1.150  1.6562 -0.5858 -0.9572
  682TIP3   OH223460   5.152   3.106   1.614  0.1562 -0.0037  0.6619
  682TIP3    H123461   5.076   3.164   1.618 -1.8547 -2.3911 -0.1771
  682TIP3    H223462   5.154   3.076   1.523 -0.1405 -2.6729  1.4369
  683TIP3   OH223463   6.061   3.555  12.986  0.1528  0.1715  0.2028
  683TIP3    H123464   6.102   3.632  12.947  0.8147 -0.3186 -0.0871
  683TIP3    H223465   6.063   3.571  13.080  0.0254  0.6313  0.1304
  684TIP3   OH223466   2.457   6.557  13.218 -0.5200  0.2679 -0.3030
  684TIP3    H123467   2.552   6.556  13.235 -0.5931 -0.9642  0.1142
  684TIP3    H223468   2.438   6.471  13.182 -1.6655  0.1046  0.6332
  685TIP3   OH223469   6.196   2.670   2.937  0.1395 -0.5844  0.2737
  685TIP3    H123470   6.120   2.655   2.994 -0.0669  1.9034  0.7686
  685TIP3    H223471   6.158   2.680   2.850  0.3295 -3.0538 -0.1646
  686TIP3   OH223472   3.452   0.602  12.507 -0.2231  0.0445  0.3355
  686TIP3    H123473   3.502   0.633  12.432 -1.0734  0.7041  0.0225
  686TIP3    H223474   3.362   0.630  12.489 -0.2472  1.2993  2.1696
  687TIP3   OH223475   4.623   6.726   5.236  0.1912  0.3929  0.5966
  687TIP3    H123476   4.651   6.804   5.189 -2.0178  1.9753  1.7530
  687TIP3    H223477   4.704   6.675   5.248  1.8174  2.7734  0.3474
  688TIP3   OH223478   2.795   6.488   3.105  0.0875  0.3223 -0.1411
  688TIP3    H123479   2.816   6.404   3.064 -1.2190  0.8995 -2.0991
  688TIP3    H223480   2.783   6.549   3.033 -0.6743  1.8011  1.1633
  689TIP3   OH223481   4.422   2.154  12.770 -0.1115 -0.4401  0.0128
  689TIP3    H123482   4.331   2.157  12.799  0.4020 -1.9907  2.0121
  689TIP3    H223483   4.473   2.181  12.846  1.1206  1.3177 -1.3529
  690TIP3   OH223484   1.529   0.490  12.068  0.2081  0.0468  0.4919
  690TIP3    H123485   1.460   0.490  12.001  0.8848  3.5569 -0.3988
  690TIP3    H223486   1.600   0.439  12.029 -0.1215  0.4422 -0.6872
  691TIP3   OH223487   0.677   5.203  12.463 -0.6381 -0.1099  0.2817
  691TIP3    H123488   0.638   5.129  12.510 -1.5695 -0.4096 -0.9199
  691TIP3    H223489   0.622   5.214  12.386  2.0581 -1.0164 -1.9547
  692TIP3   OH223490   0.884   3.628  16.772 -0.4404  0.2063  0.9175
  692TIP3    H123491   0.792   3.610  16.755 -0.0796 -1.1689  0.2918
  692TIP3    H223492   0.914   3.677  16.695 -0.2588 -0.8190  0.3161
  693TIP3   OH223493   5.777   4.213  12.930 -0.7699  0.0114 -0.3510
  693TIP3    H123494   5.829   4.269  12.872  0.3308 -1.6385 -1.0151
  693TIP3    H223495   5.773   4.261  13.013  1.0676  0.5838 -0.5580
  694TIP3   OH223496   0.051   3.203  14.210 -0.3518  0.2847  0.1387
  694TIP3    H123497  -0.013   3.234  14.146 -0.3878  3.4301  1.5378
  694TIP3    H223498   0.056   3.272  14.275  3.5218 -0.3946  0.8176
  695TIP3   OH223499   3.859   0.303   5.894 -0.1640  0.4554 -0.1104
  695TIP3    H123500   3.802   0.311   5.970 -0.9066 -0.6093 -0.5366
  695TIP3    H223501   3.811   0.247   5.833  1.1452 -0.1249 -0.6614
  696TIP3   OH223502   4.847   4.028   3.487  0.2814 -0.6421  0.1756
  696TIP3    H123503   4.776   3.964   3.473  0.3961 -0.5232 -1.0619
  696TIP3    H223504   4.832   4.061   3.575 -1.2858 -0.5436 -0.0910
  697TIP3   OH223505   1.875   0.844  15.359 -0.3154  0.2271  0.5886
  697TIP3    H123506   1.841   0.830  15.271 -0.3577  2.6879  0.1505
  697TIP3    H223507   1.848   0.766  15.408 -3.2768  0.3166 -0.6880
  698TIP3   OH223508   0.050   2.789  11.682 -0.0274 -0.4531  0.9034
  698TIP3    H123509   0.032   2.773  11.775 -0.2691 -0.0544  0.9265
  698TIP3    H223510   0.073   2.881  11.677  0.6173 -0.6220  0.6568
  699TIP3   OH223511   2.912   1.927  16.673  1.2314 -0.4282 -0.1766
  699TIP3    H123512   3.001   1.906  16.645  0.5236 -0.7204 -2.4370
  699TIP3    H223513   2.872   1.969  16.597 -0.8609 -1.1675  0.4362
  700TIP3   OH223514   5.168   4.219   1.413 -0.1242 -0.1566 -0.0369
  700TIP3    H123515   5.180   4.297   1.467 -1.3288  0.3209 -0.4568
  700TIP3    H223516   5.205   4.148   1.467  2.2882  0.8521 -0.2387
  701TIP3   OH223517   6.571   0.114   2.035 -0.0309 -0.5628  0.0514
  701TIP3    H123518   6.626   0.189   2.012 -1.6029  0.3338 -0.9276
  701TIP3    H223519   6.521   0.095   1.956 -2.8466  0.1754  1.5072
  702TIP3   OH223520   3.964   3.587   1.872 -0.4599 -0.0673 -0.3931
  702TIP3    H123521   4.023   3.567   1.800  1.7469  1.5786  0.8472
  702TIP3    H223522   3.896   3.641   1.832 -1.2905 -2.0247 -1.8493
  703TIP3   OH223523   6.509   5.665  17.357  0.2930 -0.3523  0.2056
  703TIP3    H123524   6.445   5.643  17.289  1.3927 -0.1486 -0.9182
  703TIP3    H223525   6.471   5.741  17.401  0.2645  0.4830 -1.1938
  704TIP3   OH223526   5.263   3.928  12.471  0.3430 -0.7697  0.2057
  704TIP3    H123527   5.270   3.922  12.566 -0.2656  1.0301  0.4027
  704TIP3    H223528   5.196   3.864  12.448  2.7264 -3.6289  0.5394
  705TIP3   OH223529   2.180   0.501  11.441  0.0439 -0.1265  0.0636
  705TIP3    H123530   2.196   0.413  11.475 -0.1041  0.3913  1.5733
  705TIP3    H223531   2.087   0.504  11.422  0.0583 -0.3126 -0.0306
  706TIP3   OH223532   1.849   5.225  13.016  0.1789  0.0186 -0.0565
  706TIP3    H123533   1.816   5.153  12.962  1.3595 -0.4805 -0.1451
  706TIP3    H223534   1.836   5.195  13.106 -1.2175  0.5868 -0.0490
  707TIP3   OH223535   6.533   3.740   4.855 -0.5950 -0.8715 -0.4567
  707TIP3    H123536   6.544   3.645   4.849 -0.8033 -0.9017 -0.3504
  707TIP3    H223537   6.454   3.758   4.805  0.7805 -0.4667 -2.6126
  708TIP3   OH223538   1.334   3.053   3.810 -0.6895  0.1899 -0.2299
  708TIP3    H123539   1.297   3.142   3.812 -2.5309 -0.5336  0.6493
  708TIP3    H223540   1.423   3.063   3.842 -0.8654  1.7181 -0.1268
  709TIP3   OH223541   3.582   1.682  11.272  0.6635  0.4297 -0.7156
  709TIP3    H123542   3.656   1.640  11.228 -0.6871 -1.4203 -1.3475
  709TIP3    H223543   3.506   1.658  11.219 -0.7050  0.2167  1.2307
  710TIP3   OH223544   4.118   3.537  15.715 -0.2428  0.4200  0.2598
  710TIP3    H123545   4.166   3.612  15.681  0.9047  0.2444  1.4035
  710TIP3    H223546   4.071   3.502  15.639  0.2624  1.4853 -0.5753
  711TIP3   OH223547   2.689   6.468   1.401  0.5403 -0.2835 -0.3831
  711TIP3    H123548   2.663   6.386   1.360  1.6904 -0.7638 -0.2077
  711TIP3    H223549   2.769   6.446   1.449  2.2501  1.3937 -2.2410
  712TIP3   OH223550   2.763   0.814  11.416 -0.6265 -0.0079  0.3722
  712TIP3    H123551   2.767   0.720  11.400 -1.6099 -0.0169  0.1509
  712TIP3    H223552   2.713   0.850  11.343  0.0807  0.7526  0.2341
  713TIP3   OH223553   0.573   0.514  14.024 -0.4210  0.9356  0.0904
  713TIP3    H123554   0.550   0.499  14.116 -1.1955 -0.9631 -0.3579
  713TIP3    H223555   0.525   0.447  13.976  0.9886  1.0366 -1.5815
  714TIP3   OH223556   3.946   6.361   1.510 -0.3835  0.1133  0.5957
  714TIP3    H123557   3.991   6.445   1.503 -1.1424  0.4913  0.2248
  714TIP3    H223558   4.002   6.309   1.568  0.2332  0.7735  0.6016
  715TIP3   OH223559   4.308   1.471   0.332  0.7301  0.1240  0.0273
  715TIP3    H123560   4.270   1.396   0.285 -0.0968  1.7898 -2.1572
  715TIP3    H223561   4.392   1.438   0.365  0.2146 -1.8822 -0.4737
  716TIP3   OH223562   3.927   2.201   3.479 -0.3599 -0.3085 -0.3234
  716TIP3    H123563   3.894   2.126   3.429 -0.2723  0.8072 -2.1632
  716TIP3    H223564   3.901   2.277   3.427 -0.7059  0.9830  1.6317
  717TIP3   OH223565   0.427   1.338  12.390  0.1312  0.2913 -0.0313
  717TIP3    H123566   0.415   1.243  12.397 -1.0741  0.5616  2.8847
  717TIP3    H223567   0.520   1.349  12.371  0.5383 -1.4599  0.7178
  718TIP3   OH223568   4.314   1.174  12.297 -0.1375  0.3710  0.2946
  718TIP3    H123569   4.257   1.250  12.305 -1.5008 -0.6716  1.0008
  718TIP3    H223570   4.371   1.179  12.373 -0.7469  0.2864  0.7646
  719TIP3   OH223571   5.946   1.550   3.872  0.1620  0.1016 -0.1160
  719TIP3    H123572   5.866   1.565   3.822 -0.0556 -2.2063 -0.5956
  719TIP3    H223573   5.916   1.539   3.963 -0.1837 -1.3138 -0.3763
  720TIP3   OH223574   5.307   0.739   1.344 -0.2714 -0.1017  0.1609
  720TIP3    H123575   5.243   0.697   1.287  0.3263 -2.2263  0.9571
  720TIP3    H223576   5.255   0.784   1.410 -0.9396  0.6151 -0.8205
  721TIP3   OH223577   5.908   4.769  10.936  0.6434  0.2696 -0.3564
  721TIP3    H123578   5.866   4.849  10.969  1.1939  0.8075 -0.9278
  721TIP3    H223579   5.991   4.764  10.983  0.7463  0.2004 -0.5434
  722TIP3   OH223580   5.939   1.301   6.208  0.2936  0.4687  0.0893
  722TIP3    H123581   5.997   1.308   6.132  1.7953 -1.9924  0.9167
  722TIP3    H223582   5.918   1.208   6.215 -1.1237  0.8496  1.7652
  723TIP3   OH223583   2.233   1.814   4.213  0.2401 -0.1279 -0.4877
  723TIP3    H123584   2.225   1.817   4.309  1.0990 -1.5944 -0.3420
  723TIP3    H223585   2.148   1.783   4.182  0.0331  0.1342 -0.1877
  724TIP3   OH223586   6.150   2.298   3.126 -0.2674 -0.0441  0.2724
  724TIP3    H123587   6.204   2.253   3.061 -1.0109 -0.6637  0.0734
  724TIP3    H223588   6.206   2.370   3.158  0.6052 -0.5666 -0.0463
  725TIP3   OH223589   5.943   5.757  12.150  0.0227 -0.4465 -0.1263
  725TIP3    H123590   5.941   5.780  12.057 -1.2880 -0.7535 -0.1917
  725TIP3    H223591   5.932   5.662  12.151  1.2085 -0.5874  0.3037
  726TIP3   OH223592   4.175   3.005  13.997 -0.0870 -0.7196 -0.6455
  726TIP3    H123593   4.152   3.083  14.046  0.0072 -0.7163 -0.6072
  726TIP3    H223594   4.270   2.996  14.008 -0.1196 -0.9278 -0.5168
  727TIP3   OH223595   4.123   6.356  15.375 -0.0938  0.0378 -0.3551
  727TIP3    H123596   4.105   6.444  15.342  0.4095  0.0538 -0.5959
  727TIP3    H223597   4.213   6.339  15.348  0.7230  0.4524  1.8749
  728TIP3   OH223598   3.029   4.503   4.067 -0.1445  0.2979 -0.7838
  728TIP3    H123599   3.110   4.502   4.117  0.0625 -0.6357 -1.1048
  728TIP3    H223600   2.960   4.517   4.132  0.0328 -1.8087 -0.0525
  729TIP3   OH223601   5.724   1.210  11.833  0.2726  0.2092 -0.5652
  729TIP3    H123602   5.765   1.216  11.747 -1.8860  0.5826 -1.6602
  729TIP3    H223603   5.632   1.188  11.814 -0.7076  2.0614  1.5215
  730TIP3   OH223604   2.794   0.941  14.120  0.1049 -0.4565  0.2992
  730TIP3    H123605   2.845   1.011  14.162  1.4483 -2.1093  1.5565
  730TIP3    H223606   2.859   0.884  14.080 -1.0230 -0.5487 -1.5012
  731TIP3   OH223607   1.909   2.852  16.520 -0.3617 -0.3222 -0.0429
  731TIP3    H123608   1.873   2.928  16.474  0.0559  0.2589  0.5615
  731TIP3    H223609   1.842   2.831  16.586 -0.3993 -0.3644 -0.0947
  732TIP3   OH223610   2.383   3.933  13.520 -0.0974  0.2347  0.6217
  732TIP3    H123611   2.330   3.995  13.568 -1.7114 -0.6243  0.0280
  732TIP3    H223612   2.364   3.848  13.560  0.8800 -0.0974  0.4223
  733TIP3   OH223613   6.324   5.074  14.692  0.3640 -0.4655  0.0787
  733TIP3    H123614   6.369   5.034  14.766  1.4527 -0.8551 -0.7646
  733TIP3    H223615   6.389   5.131  14.652 -0.6346  0.8027  0.2084
  734TIP3   OH223616   0.136   2.126   0.125  0.6510 -0.1832 -0.2153
  734TIP3    H123617   0.098   2.042   0.100 -1.2795 -0.0664  2.0231
  734TIP3    H223618   0.074   2.191   0.093  1.3783  0.3425 -0.6041
  735TIP3   OH223619   6.622   4.626   0.307  0.1161  0.2201  0.9284
  735TIP3    H123620   6.685   4.659   0.371 -0.8883  1.6587  1.2224
  735TIP3    H223621   6.654   4.538   0.284  2.1747  0.8736  1.1116
  736TIP3   OH223622   6.734   4.579  15.501 -0.1051 -0.0047 -0.2535
  736TIP3    H123623   6.704   4.664  15.468 -0.3818  0.1231  0.3132
  736TIP3    H223624   6.724   4.520  15.427  1.9514  0.8403 -1.3126
  737TIP3   OH223625   0.319   0.111  11.260  0.4431  0.0885  0.2530
  737TIP3    H123626   0.252   0.171  11.229  0.5492  0.4247  0.6677
  737TIP3    H223627   0.272   0.030  11.280 -0.3396  1.1193  3.0748
  738TIP3   OH223628   0.826   4.673   0.128 -0.2433 -0.4699  0.2827
  738TIP3    H123629   0.762   4.612   0.092  0.2692 -0.5982 -0.4285
  738TIP3    H223630   0.774   4.737   0.176 -0.9922 -0.0494 -1.0398
  739TIP3   OH223631   6.539   1.980   5.800  0.7937  0.7099  0.3029
  739TIP3    H123632   6.476   2.051   5.785  2.5370  2.8685  2.3432
  739TIP3    H223633   6.563   1.950   5.713 -1.5867  1.0791 -0.5771
  740TIP3   OH223634   1.492   6.645  10.627  0.0353  0.0991 -0.1602
  740TIP3    H123635   1.506   6.625  10.719 -0.0377 -2.2208 -0.5921
  740TIP3    H223636   1.398   6.662  10.620  0.0617  0.3998  0.1979
  741TIP3   OH223637   4.622   6.464   1.747 -0.4195  0.0549  0.2129
  741TIP3    H123638   4.592   6.534   1.689  0.6299  0.5696  0.2812
  741TIP3    H223639   4.604   6.496   1.835  2.6671  1.5694  0.4138
  742TIP3   OH223640   4.493   4.706  15.825  0.1892  0.1187 -0.4486
  742TIP3    H123641   4.461   4.627  15.782 -0.8823 -0.7724  1.8147
  742TIP3    H223642   4.589   4.696  15.826  0.0828 -0.9997 -0.4716
  743TIP3   OH223643   0.930   5.304  12.488  0.2812 -0.4907  0.0174
  743TIP3    H123644   0.919   5.398  12.502 -1.1988 -0.5425 -0.5660
  743TIP3    H223645   0.841   5.272  12.473  0.5274 -2.3105  1.9920
  744TIP3   OH223646   0.400   5.098   1.085  0.2361  0.4193 -0.3024
  744TIP3    H123647   0.309   5.089   1.059 -0.1961  2.2225  0.4190
  744TIP3    H223648   0.421   5.016   1.131 -0.9455 -0.0826 -0.6390
  745TIP3   OH223649   1.501   1.845   1.429  0.7629  0.1566  0.3931
  745TIP3    H123650   1.594   1.839   1.453  1.0668 -0.7740 -0.8923
  745TIP3    H223651   1.464   1.761   1.456  1.2701 -1.2261 -2.7820
  746TIP3   OH223652   4.633   3.397  15.551 -0.4612  0.0988  0.0646
  746TIP3    H123653   4.650   3.487  15.522  0.1253 -0.0796 -0.1547
  746TIP3    H223654   4.628   3.404  15.646 -1.5827  0.5519 -0.0159
  747TIP3   OH223655   3.595   4.589   3.880  0.6825  0.1397  0.1839
  747TIP3    H123656   3.587   4.506   3.835  1.5947  0.2026 -0.1117
  747TIP3    H223657   3.614   4.653   3.811 -0.3739  0.6780  0.3529
  748TIP3   OH223658   3.359   3.606  12.095 -0.1736 -0.0132 -0.1009
  748TIP3    H123659   3.329   3.671  12.032 -1.1232 -0.9404 -0.6292
  748TIP3    H223660   3.289   3.542  12.099  0.7522 -1.0293  0.3845
  749TIP3   OH223661   2.035   0.432  14.020  0.0099 -0.8975  0.0477
  749TIP3    H123662   2.085   0.513  14.017  1.3826 -1.7248  0.1254
  749TIP3    H223663   2.039   0.397  13.931 -1.2096 -0.5421 -0.1770
  750TIP3   OH223664   1.407   6.423  16.983 -0.5152 -0.6931  0.9833
  750TIP3    H123665   1.363   6.502  17.016  1.1555 -0.1527  2.0790
  750TIP3    H223666   1.497   6.431  17.016  0.1496 -2.2104 -0.3565
  751TIP3   OH223667   6.186   1.655   5.770 -0.1724 -0.4290 -0.2420
  751TIP3    H123668   6.200   1.687   5.860 -0.8495 -2.7725  0.7769
  751TIP3    H223669   6.235   1.716   5.715  0.5253  0.9104  1.7423
  752TIP3   OH223670   1.223   1.321   1.408  0.1020 -0.4794 -0.1752
  752TIP3    H123671   1.195   1.310   1.317 -0.6885 -0.9214  0.1128
  752TIP3    H223672   1.190   1.408   1.433 -0.3827 -0.6971 -0.0602
  753TIP3   OH223673   3.070   1.283  12.559  0.1369 -0.0096  0.2905
  753TIP3    H123674   3.016   1.249  12.630 -1.4530  0.6729 -0.5265
  753TIP3    H223675   3.123   1.209  12.531 -0.5934 -0.7948  0.9324
  754TIP3   OH223676   4.713   4.017  11.307  0.3566  0.2320 -0.4554
  754TIP3    H123677   4.755   3.996  11.223 -0.1666  1.5709 -1.0904
  754TIP3    H223678   4.629   4.056  11.282 -0.8559 -1.4463  0.7575
  755TIP3   OH223679   0.482   6.595   5.537  0.3531 -0.5572 -0.1291
  755TIP3    H123680   0.540   6.662   5.573  1.0190 -1.4908  0.5723
  755TIP3    H223681   0.541   6.529   5.502 -0.2948 -1.2209  0.0177
  756TIP3   OH223682   2.132   1.522  14.756  0.2836  1.0198  0.1699
  756TIP3    H123683   2.080   1.506  14.677 -1.2130 -0.7726  1.4341
  756TIP3    H223684   2.076   1.576  14.812  0.7908  1.1613  0.5589
  757TIP3   OH223685   0.277   6.507   5.033  0.0261  0.0979 -0.0674
  757TIP3    H123686   0.192   6.521   5.075 -0.6533 -1.8997 -0.6551
  757TIP3    H223687   0.319   6.440   5.087 -0.5355 -1.9477 -2.0079
  758TIP3   OH223688   6.624   3.994  14.015  0.6806  0.2384 -0.7907
  758TIP3    H123689   6.702   4.015  13.965  0.3083  0.9531 -1.0710
  758TIP3    H223690   6.601   4.075  14.060  0.6013 -0.2027 -0.0138
  759TIP3   OH223691   6.746   5.742  17.123 -0.7552  0.3664  0.0289
  759TIP3    H123692   6.780   5.829  17.139 -0.0324  0.2426 -0.7853
  759TIP3    H223693   6.780   5.689  17.195 -0.7682  0.6436  0.2378
  760TIP3   OH223694   3.572   3.076   3.423 -0.1636 -0.4961 -0.6092
  760TIP3    H123695   3.598   3.107   3.337 -0.7848 -0.5543 -0.8255
  760TIP3    H223696   3.602   3.143   3.484 -1.1733  0.3662 -1.0332
  761TIP3   OH223697   3.854   0.881   3.029  0.9809  0.2647 -0.4545
  761TIP3    H123698   3.854   0.868   2.935  0.8958  0.5149 -0.4916
  761TIP3    H223699   3.944   0.863   3.057  0.5616 -1.7835 -0.2914
  762TIP3   OH223700   2.936   3.664   5.996 -0.0414  0.3448 -0.1328
  762TIP3    H123701   2.887   3.697   6.071 -3.2389 -1.6960 -1.1221
  762TIP3    H223702   2.925   3.732   5.929 -0.7153  0.3622 -0.0155
  763TIP3   OH223703   1.646   2.954  12.040 -0.1371 -0.3689 -0.9501
  763TIP3    H123704   1.730   2.953  12.087  0.3566  3.2137 -1.4719
  763TIP3    H223705   1.668   2.993  11.955 -2.0669 -0.9436 -1.7482
  764TIP3   OH223706   4.064   3.206  14.416  0.4446 -0.5237  0.0945
  764TIP3    H123707   4.153   3.173  14.428  0.7719  0.0376 -0.7475
  764TIP3    H223708   4.058   3.226  14.323 -0.0706  0.8559  0.4017
  765TIP3   OH223709   2.147   4.488   1.543  0.3055  0.2009  0.7384
  765TIP3    H123710   2.210   4.513   1.476 -0.2604  1.0908  0.5126
  765TIP3    H223711   2.154   4.557   1.609  0.2215 -0.1895  1.1624
  766TIP3   OH223712   0.853   6.561   5.351 -0.4441  0.0588  0.4165
  766TIP3    H123713   0.809   6.630   5.301  0.0883  2.4784  2.9812
  766TIP3    H223714   0.790   6.538   5.419 -0.0613 -0.9641  0.4300
  767TIP3   OH223715   3.935   2.357   1.796 -0.1221  0.0190 -0.4106
  767TIP3    H123716   4.008   2.295   1.802 -0.4414 -0.3713 -0.4294
  767TIP3    H223717   3.961   2.430   1.851 -0.0535 -0.4685  0.2225
  768TIP3   OH223718   3.399   5.913   4.650 -0.0259  0.1540  0.0286
  768TIP3    H123719   3.424   5.867   4.730 -3.0173  0.0680  1.0197
  768TIP3    H223720   3.443   5.998   4.657  0.2994 -0.1091  1.4476
  769TIP3   OH223721   5.641   2.321   1.948 -0.2288 -0.5570 -0.5532
  769TIP3    H123722   5.653   2.310   2.042 -0.2638 -0.1406 -0.4997
  769TIP3    H223723   5.729   2.332   1.913 -0.3047  0.9569 -0.3529
  770TIP3   OH223724   6.594   5.108   4.341 -0.1577 -0.4339 -0.4804
  770TIP3    H123725   6.632   5.122   4.428 -0.3554  0.2506 -0.4997
  770TIP3    H223726   6.510   5.154   4.344 -0.4261 -0.8939 -0.8463
  771TIP3   OH223727   1.477   2.635   1.700  0.8949  0.3493  0.4147
  771TIP3    H123728   1.492   2.689   1.778  1.2370  0.7525  0.0696
  771TIP3    H223729   1.557   2.644   1.648  1.1426 -0.8463  0.5576
  772TIP3   OH223730   4.701   4.809   3.148 -0.8114  0.2970  0.0610
  772TIP3    H123731   4.704   4.904   3.144 -1.2412  0.2748 -1.5971
  772TIP3    H223732   4.656   4.790   3.231 -0.1835  1.5046  0.6979
  773TIP3   OH223733   2.320   3.814  16.637  0.5241 -0.3529  0.3867
  773TIP3    H123734   2.249   3.834  16.576  0.3746  2.4299  1.3332
  773TIP3    H223735   2.280   3.756  16.702 -0.3884 -0.2141 -0.0307
  774TIP3   OH223736   5.929   2.872   0.785 -0.3894  0.5215 -0.2953
  774TIP3    H123737   5.861   2.819   0.742 -0.1487 -0.4212  0.4511
  774TIP3    H223738   6.011   2.833   0.755 -0.1924 -1.6909  2.7467
  775TIP3   OH223739   0.931   4.426  12.953 -0.0400 -0.1873  0.4696
  775TIP3    H123740   0.858   4.403  12.896  0.2776 -0.3436  0.1207
  775TIP3    H223741   0.991   4.474  12.896 -0.9966  2.1645  1.3210
  776TIP3   OH223742   4.593   6.502   0.286 -0.4731 -0.0779  0.4082
  776TIP3    H123743   4.528   6.439   0.317 -0.7924 -0.2011 -0.4840
  776TIP3    H223744   4.542   6.580   0.262 -0.2685 -0.0671 -0.0054
  777TIP3   OH223745   2.106   5.536  10.718 -0.0799 -0.2199 -0.1345
  777TIP3    H123746   2.014   5.526  10.744 -0.7296  2.6347 -0.9131
  777TIP3    H223747   2.134   5.448  10.695 -2.3430 -1.3276  1.0015
  778TIP3   OH223748   2.893   2.818  11.912  0.0288 -0.1263 -1.0391
  778TIP3    H123749   2.834   2.769  11.854 -0.1579  1.6086 -2.4013
  778TIP3    H223750   2.932   2.885  11.856 -0.1538  1.6495  0.8182
  779TIP3   OH223751   0.169   0.742   5.995 -1.2022  0.1951 -0.4468
  779TIP3    H123752   0.144   0.793   6.071 -1.3603 -1.5816  0.7386
  779TIP3    H223753   0.236   0.681   6.027  0.0268  0.5621 -2.1273
  780TIP3   OH223754   5.503   6.420  16.931  0.6122 -0.0161 -0.0285
  780TIP3    H123755   5.539   6.343  16.975  0.5488  0.3382  0.6602
  780TIP3    H223756   5.518   6.404  16.838  0.9937 -0.6571  0.1382
  781TIP3   OH223757   3.131   4.524   2.324 -1.0367 -0.3424  0.0144
  781TIP3    H123758   3.041   4.552   2.312 -0.9442  0.5137  1.1558
  781TIP3    H223759   3.168   4.586   2.386  0.7486  0.1537 -1.4305
  782TIP3   OH223760   3.541   4.175  16.134 -0.2483 -0.0771  0.5870
  782TIP3    H123761   3.509   4.087  16.112 -1.3079  1.0244 -2.7268
  782TIP3    H223762   3.636   4.169  16.125 -0.3661 -0.7191 -0.3159
  783TIP3   OH223763   3.850   1.904   3.932 -0.2236  0.0618 -0.0989
  783TIP3    H123764   3.754   1.900   3.925 -0.3104  0.7858  0.4902
  783TIP3    H223765   3.879   1.814   3.922 -1.1170 -0.4608  1.6230
  784TIP3   OH223766   1.528   4.234   6.395  0.2182 -0.0221  0.2122
  784TIP3    H123767   1.555   4.144   6.378 -0.6271 -0.2419 -0.0008
  784TIP3    H223768   1.479   4.228   6.477  0.3292  0.2866  0.3029
  785TIP3   OH223769   4.806   5.514   2.264 -0.1916  0.2358 -0.0477
  785TIP3    H123770   4.883   5.483   2.217 -1.1229 -2.4309  0.0077
  785TIP3    H223771   4.763   5.574   2.203  2.2298  2.3889  0.2149
  786TIP3   OH223772   0.244   2.792   3.492  0.0570  0.0989 -0.1465
  786TIP3    H123773   0.310   2.768   3.426 -0.3486 -3.0109  0.4652
  786TIP3    H223774   0.161   2.792   3.444  0.0508  0.3579 -0.1398
  787TIP3   OH223775   6.608   5.124   5.099 -0.6080 -0.3123  0.0663
  787TIP3    H123776   6.519   5.128   5.064 -0.2143 -2.9847 -1.5583
  787TIP3    H223777   6.604   5.057   5.167  0.3087 -1.2671 -0.7715
  788TIP3   OH223778   0.036   3.347  14.927 -0.0791 -0.2764 -0.8571
  788TIP3    H123779   0.013   3.438  14.941 -0.9484 -0.4513 -1.0877
  788TIP3    H223780   0.054   3.312  15.014 -0.8592 -0.1690 -0.6489
  789TIP3   OH223781   6.247   4.940  15.942 -0.1363 -0.5230  0.0897
  789TIP3    H123782   6.332   4.932  15.984 -0.2285  0.0304  0.4011
  789TIP3    H223783   6.247   5.028  15.905 -0.3931 -0.6908 -0.3099
  790TIP3   OH223784   2.752   3.510   5.771 -0.1820  0.3937 -0.4039
  790TIP3    H123785   2.768   3.544   5.683  1.2820  0.1445 -0.2714
  790TIP3    H223786   2.783   3.580   5.829 -0.0866  0.1111 -0.1088
  791TIP3   OH223787   4.883   1.265  15.704 -0.3642  0.1225 -0.3910
  791TIP3    H123788   4.958   1.309  15.743 -0.3414  0.6617 -1.0262
  791TIP3    H223789   4.807   1.312  15.736 -0.4731 -0.6540  0.5513
  792TIP3   OH223790   5.656   5.214  15.148 -0.4997  0.8307 -0.6901
  792TIP3    H123791   5.657   5.118  15.155  0.0553  0.9398  1.2753
  792TIP3    H223792   5.666   5.231  15.055  2.4932 -0.9954 -0.8106
  793TIP3   OH223793   5.793   4.391  13.120  0.4595  0.3773  0.4505
  793TIP3    H123794   5.716   4.440  13.091 -0.7978 -1.0824  1.2012
  793TIP3    H223795   5.850   4.457  13.159  0.0182  1.6226 -0.8915
  794TIP3   OH223796   5.398   3.293  17.211 -0.0803 -0.1584 -0.4672
  794TIP3    H123797   5.392   3.245  17.294  1.6543  0.3330 -0.0181
  794TIP3    H223798   5.492   3.307  17.198 -0.3778  0.5677 -2.0660
  795TIP3   OH223799   1.914   2.544  14.477  0.1484 -0.2343 -0.3389
  795TIP3    H123800   1.881   2.465  14.520 -0.2941 -0.2474 -0.6980
  795TIP3    H223801   1.925   2.518  14.386 -1.2095  0.4682 -0.7227
  796TIP3   OH223802   0.101   1.867   3.021  0.6859 -0.6461 -0.1662
  796TIP3    H123803   0.112   1.779   2.985  0.1246  0.1062 -2.3348
  796TIP3    H223804   0.026   1.903   2.973 -0.4864  0.2871  2.1946
  797TIP3   OH223805   3.188   6.300   1.755 -0.4988  0.0352 -0.1477
  797TIP3    H123806   3.171   6.221   1.806 -0.1610  0.1004  0.0671
  797TIP3    H223807   3.175   6.372   1.816  0.7429  0.0808  0.0895
  798TIP3   OH223808   3.462   5.185   0.397  0.1414  0.6610 -0.8629
  798TIP3    H123809   3.418   5.263   0.429 -0.1575  0.3804 -0.5887
  798TIP3    H223810   3.502   5.212   0.314 -2.4154  0.3290 -2.2933
  799TIP3   OH223811   6.590   3.570  15.205  0.1805  0.4131 -0.3609
  799TIP3    H123812   6.570   3.614  15.287 -0.6560  1.8524 -1.2897
  799TIP3    H223813   6.641   3.493  15.231 -0.3974  0.6027  1.5157
  800TIP3   OH223814   0.238   0.063  13.288 -0.0636  0.5284 -0.6429
  800TIP3    H123815   0.262   0.068  13.196 -0.2047 -0.2986 -0.7309
  800TIP3    H223816   0.308   0.111  13.333 -0.3693  1.5566 -1.2222
  801TIP3   OH223817   1.700   1.828   4.311  0.2238  0.4802  0.1445
  801TIP3    H123818   1.697   1.733   4.299  1.1563  0.4741 -0.0961
  801TIP3    H223819   1.707   1.863   4.222  0.6123  0.7458  0.2795
  802TIP3   OH223820   3.139   5.949   2.920 -0.2343  0.4967  0.6942
  802TIP3    H123821   3.212   5.962   2.980  0.9078 -2.8111  0.1991
  802TIP3    H223822   3.086   5.880   2.960 -1.3730  0.6586 -0.4525
  803TIP3   OH223823   4.849   2.661   4.491  0.4004 -0.2759  0.1847
  803TIP3    H123824   4.796   2.699   4.561 -0.8542 -1.1186 -0.2612
  803TIP3    H223825   4.917   2.612   4.536 -0.2843 -0.6597  0.8240
  804TIP3   OH223826   2.010   0.168  11.025  1.0529 -0.2565  0.5516
  804TIP3    H123827   1.961   0.095  11.063 -0.3873  1.1001  1.3703
  804TIP3    H223828   1.975   0.246  11.067  1.6331  1.0509 -1.2709
  805TIP3   OH223829   3.888   4.031   3.741 -0.2366 -0.2338  1.1482
  805TIP3    H123830   3.842   4.090   3.682 -3.1650 -1.8030  1.7059
  805TIP3    H223831   3.926   4.088   3.807 -1.3100  1.1642  0.6110
  806TIP3   OH223832   0.251   6.333   4.411  0.5855 -0.7148 -0.1911
  806TIP3    H123833   0.316   6.327   4.341  0.2379 -0.0807 -0.5840
  806TIP3    H223834   0.301   6.329   4.492  1.2774  1.1875 -0.4752
  807TIP3   OH223835   4.429   3.051   4.558  0.5458 -0.3246 -0.3963
  807TIP3    H123836   4.461   2.985   4.619  0.8751 -0.0269 -0.2420
  807TIP3    H223837   4.335   3.058   4.575  0.9722  1.4228  1.7120
  808TIP3   OH223838   3.332   4.844   4.696  0.1707 -0.7526  0.0551
  808TIP3    H123839   3.241   4.819   4.715  0.5908 -2.5711 -0.1775
  808TIP3    H223840   3.354   4.797   4.616  1.3794 -0.4747  0.2035
  809TIP3   OH223841   6.480   2.236   5.425 -0.3474 -0.8666 -0.5380
  809TIP3    H123842   6.573   2.213   5.420  0.3345  1.4727 -0.1074
  809TIP3    H223843   6.462   2.244   5.518 -0.6523 -0.2002 -0.6472
  810TIP3   OH223844   0.461   2.465   0.843 -0.2568 -0.2914 -0.5022
  810TIP3    H123845   0.476   2.387   0.897  0.5621  0.5032  0.4664
  810TIP3    H223846   0.500   2.536   0.893 -2.8645  1.1336 -0.3187
  811TIP3   OH223847   0.208   4.131   5.706  0.3081  0.1339 -0.3631
  811TIP3    H123848   0.257   4.116   5.625 -1.4835  0.1478 -1.4929
  811TIP3    H223849   0.166   4.047   5.725 -1.4262  0.8116 -0.9793
  812TIP3   OH223850   4.716   3.790  10.605 -0.0865  0.2597 -0.0485
  812TIP3    H123851   4.701   3.720  10.542 -0.0415 -0.8591  1.1399
  812TIP3    H223852   4.778   3.753  10.668 -0.6667  1.0772  1.0427
  813TIP3   OH223853   4.143   4.979  16.025  0.3861 -0.2104  0.3234
  813TIP3    H123854   4.212   5.041  16.050  0.3284  1.3248 -2.8853
  813TIP3    H223855   4.069   5.003  16.082  0.4558  2.5808 -0.5907
  814TIP3   OH223856   1.348   6.131   4.515 -0.2011  0.3202 -0.2419
  814TIP3    H123857   1.286   6.189   4.559  0.5915  0.1813  1.1149
  814TIP3    H223858   1.352   6.163   4.425 -1.5911  0.8430 -0.1368
  815TIP3   OH223859   0.375   4.620  15.708  0.2568 -0.2893  0.6061
  815TIP3    H123860   0.288   4.584  15.727  0.2570 -0.7475 -0.2205
  815TIP3    H223861   0.420   4.619  15.792  0.0017 -1.5340  0.7375
  816TIP3   OH223862   2.050   1.316  12.727  0.6121  0.0700 -0.1310
  816TIP3    H123863   2.069   1.335  12.819  3.4683 -1.8991 -0.1874
  816TIP3    H223864   1.983   1.248  12.730  0.3701  0.3313  0.4693
  817TIP3   OH223865   0.554   1.917   1.053  0.3016  0.7114  0.1759
  817TIP3    H123866   0.512   1.832   1.065 -1.2286  1.4778  0.5634
  817TIP3    H223867   0.633   1.899   1.002  0.9768 -1.1658  1.7891
  818TIP3   OH223868   1.828   6.031   1.830 -0.1380  0.2661  0.0925
  818TIP3    H123869   1.863   6.110   1.870  0.5990  0.5446 -1.0649
  818TIP3    H223870   1.769   5.995   1.896  0.9790  0.7411  1.3942
  819TIP3   OH223871   6.628   1.964  15.060  0.6498  0.1576 -0.4742
  819TIP3    H123872   6.690   1.918  15.118  0.1642 -1.0535 -0.8744
  819TIP3    H223873   6.560   1.899  15.043 -0.2422  1.1598 -0.8141
  820TIP3   OH223874   4.092   1.032   5.630  0.0881 -0.1642  0.2966
  820TIP3    H123875   4.170   0.977   5.635  0.1666 -0.1364 -0.4944
  820TIP3    H223876   4.072   1.037   5.536 -0.9661 -0.3094  0.5028
  821TIP3   OH223877   2.369   3.152  12.948  0.4492  0.3988  0.2982
  821TIP3    H123878   2.443   3.105  12.986  0.8350 -0.6948 -1.6455
  821TIP3    H223879   2.393   3.244  12.953  2.8612  0.0208 -1.8757
  822TIP3   OH223880   5.157   4.619   4.751 -0.5141 -0.1668  0.4082
  822TIP3    H123881   5.205   4.650   4.675  0.8721 -2.9841 -0.0017
  822TIP3    H223882   5.077   4.581   4.714 -1.5711  1.6177  0.7714
  823TIP3   OH223883   2.331   4.648  16.161  0.2167 -0.0016 -0.1327
  823TIP3    H123884   2.268   4.700  16.211  0.4324  1.0476 -0.9252
  823TIP3    H223885   2.372   4.711  16.101  1.7333 -0.7349  0.0837
  824TIP3   OH223886   1.600   2.396   3.493 -0.6847 -0.7150 -0.0949
  824TIP3    H123887   1.600   2.305   3.523 -0.0318 -0.5142  0.5281
  824TIP3    H223888   1.556   2.393   3.408  0.9706 -1.9087 -0.9631
  825TIP3   OH223889   4.260   1.323  14.631  0.0133 -0.1979  0.7542
  825TIP3    H123890   4.320   1.338  14.704  1.0206  0.7456 -0.2447
  825TIP3    H223891   4.281   1.391  14.568 -0.2864 -1.4795 -0.7886
  826TIP3   OH223892   4.207   0.092  16.808 -0.1381 -0.4685  0.1310
  826TIP3    H123893   4.216   0.041  16.889  1.1567 -0.4418  0.0190
  826TIP3    H223894   4.233   0.031  16.739 -1.0669 -0.4350 -0.2611
  827TIP3   OH223895   6.007   3.819  13.222 -0.2432  0.3140 -0.1570
  827TIP3    H123896   6.013   3.763  13.300  0.7929  2.3556  1.2985
  827TIP3    H223897   5.971   3.902  13.254  2.0568  1.8930 -1.4269
  828TIP3   OH223898   3.307   3.126   3.442 -0.0117  0.1058 -0.5658
  828TIP3    H123899   3.399   3.100   3.439 -0.6362 -2.3381 -0.4879
  828TIP3    H223900   3.297   3.167   3.528  1.1907  1.3870 -0.9876
  829TIP3   OH223901   5.381   4.114  11.560  0.0670  0.3177  0.4441
  829TIP3    H123902   5.295   4.083  11.532  0.4605  0.7614 -1.3789
  829TIP3    H223903   5.410   4.049  11.624 -1.5747  0.1317  1.0427
  830TIP3   OH223904   4.035   2.749  12.462  0.3778 -0.1513 -0.1440
  830TIP3    H123905   4.131   2.743  12.462  0.3403 -2.1648 -2.2292
  830TIP3    H223906   4.011   2.735  12.554  2.0337 -0.8309  0.2349
  831TIP3   OH223907   4.768   6.018  13.466 -0.0558 -0.2619 -0.1287
  831TIP3    H123908   4.826   6.094  13.470 -0.7403  0.2162  0.9463
  831TIP3    H223909   4.799   5.960  13.536  0.7777 -1.2365 -1.2514
  832TIP3   OH223910   0.733   3.774   6.890 -0.0177  0.0034  0.8763
  832TIP3    H123911   0.707   3.785   6.982  0.1507  0.3149  0.8850
  832TIP3    H223912   0.778   3.689   6.889 -1.1871 -0.6520  0.8248
  833TIP3   OH223913   1.186   1.890  11.148 -0.2538 -0.1445  0.5619
  833TIP3    H123914   1.156   1.801  11.127  1.5858 -1.0348  1.4814
  833TIP3    H223915   1.129   1.947  11.096 -2.4242 -1.7543  1.0207
  834TIP3   OH223916   2.004   3.789  12.296  0.2163  1.3098  0.5845
  834TIP3    H123917   1.928   3.816  12.244  0.8995  1.0556 -0.5847
  834TIP3    H223918   2.069   3.858  12.281  0.5978  0.9797  0.7129
  835TIP3   OH223919   4.917   0.987   0.807 -0.2622 -0.0812 -0.0276
  835TIP3    H123920   4.871   0.972   0.890  1.8654 -2.3987  0.8716
  835TIP3    H223921   4.860   0.947   0.741 -1.1210  0.1422  0.5568
  836TIP3   OH223922   5.275   0.281   1.556  0.3930  0.4692  0.5361
  836TIP3    H123923   5.222   0.361   1.553  1.0787  0.8957 -0.8256
  836TIP3    H223924   5.364   0.311   1.574  0.3928 -0.1512  1.6788
  837TIP3   OH223925   3.659   4.864   1.039  0.8016  0.2543 -0.5384
  837TIP3    H123926   3.600   4.822   0.977  1.0638 -0.8874 -0.0344
  837TIP3    H223927   3.613   4.859   1.123  1.4153 -0.2623 -0.2203
  838TIP3   OH223928   1.678   6.376  13.751  0.1883 -0.3157  0.5351
  838TIP3    H123929   1.593   6.398  13.791  0.3327 -1.6346  1.6591
  838TIP3    H223930   1.707   6.457  13.709 -1.0935  0.4736  1.1132
  839TIP3   OH223931   3.917   1.320   2.135 -0.8700  0.1894 -0.6099
  839TIP3    H123932   3.883   1.363   2.056  2.5109 -1.0122 -2.9555
  839TIP3    H223933   3.859   1.245   2.148 -1.8065  0.7043 -1.6423
  840TIP3   OH223934   6.059   2.909   3.987 -0.3356  0.0751  0.0844
  840TIP3    H123935   6.013   2.989   3.961  1.0386  0.6449 -0.7249
  840TIP3    H223936   6.116   2.937   4.059  1.2474  0.2305 -1.1644
  841TIP3   OH223937   1.633   2.786  13.362 -0.6935  0.0838  0.2987
  841TIP3    H123938   1.637   2.806  13.269 -0.0945  0.8338  0.4708
  841TIP3    H223939   1.626   2.691  13.367 -3.4650  0.1538 -0.5841
  842TIP3   OH223940   5.464   5.275   1.495  0.0267 -0.0180 -0.4703
  842TIP3    H123941   5.487   5.193   1.452  1.5320 -0.0117  0.2351
  842TIP3    H223942   5.450   5.337   1.424 -1.5150 -0.9623 -1.0201
  843TIP3   OH223943   3.086   0.908   1.980  0.2507 -0.3349  0.1466
  843TIP3    H123944   3.058   0.971   2.046 -1.4803 -0.4667 -0.4174
  843TIP3    H223945   3.113   0.962   1.905  0.1591 -0.2353  0.1853
  844TIP3   OH223946   3.480   5.924  13.784  0.3320 -0.0972  0.2505
  844TIP3    H123947   3.506   5.832  13.788 -0.2866 -0.7180 -4.3018
  844TIP3    H223948   3.390   5.925  13.815  0.5563 -0.8577  0.9641
  845TIP3   OH223949   4.581   1.504   1.388 -0.0953  0.4317 -0.2900
  845TIP3    H123950   4.568   1.475   1.298  0.3705 -0.7725  0.0102
  845TIP3    H223951   4.516   1.573   1.401 -0.6366  0.1330 -1.3203
  846TIP3   OH223952   3.806   2.491  14.208  0.2673 -0.5565  0.3709
  846TIP3    H123953   3.896   2.486  14.175  0.1259  0.1155 -0.1520
  846TIP3    H223954   3.752   2.466  14.133 -0.0115 -0.1468  0.4294
  847TIP3   OH223955   5.443   3.915   2.518 -0.0487 -1.0303  0.1771
  847TIP3    H123956   5.486   3.885   2.598 -0.4223  2.1230  1.7471
  847TIP3    H223957   5.367   3.965   2.549 -1.6900 -1.7862 -2.2982
  848TIP3   OH223958   6.233   2.092   0.909 -0.4902 -0.2556  0.1516
  848TIP3    H123959   6.184   2.113   0.830  0.8828  0.0175 -0.6515
  848TIP3    H223960   6.199   2.007   0.936 -0.0033 -1.0251 -1.5425
  849TIP3   OH223961   6.052   0.414   5.738 -0.1361 -0.0345  0.0152
  849TIP3    H123962   6.066   0.414   5.644 -0.3785 -1.4769 -0.0328
  849TIP3    H223963   6.041   0.507   5.760 -0.3426  0.3019 -1.4038
  850TIP3   OH223964   0.329   3.727  16.855  0.4232 -0.0318 -0.0899
  850TIP3    H123965   0.250   3.775  16.879  0.7027  0.6240 -0.4725
  850TIP3    H223966   0.312   3.695  16.766 -0.0086 -1.1851  0.3854
  851TIP3   OH223967   4.215   5.753  13.295  0.0645 -0.4370 -0.4488
  851TIP3    H123968   4.217   5.821  13.228  3.1884 -0.6100 -0.6868
  851TIP3    H223969   4.199   5.801  13.377 -1.5172  0.0498 -1.0100
  852TIP3   OH223970   3.097   5.269  15.355  0.0846  0.0983 -0.4673
  852TIP3    H123971   3.110   5.218  15.275 -0.8144  0.3251 -0.7667
  852TIP3    H223972   3.162   5.234  15.416  0.4158 -0.4502 -1.1141
  853TIP3   OH223973   2.046   0.035   5.867 -0.3906 -0.3679 -0.1412
  853TIP3    H123974   2.047   0.130   5.869 -0.7123 -0.3615  2.4642
  853TIP3    H223975   2.020   0.009   5.955  0.6326 -2.8878 -0.4973
  854TIP3   OH223976   3.830   0.688  11.397  0.0273  0.0685 -0.7633
  854TIP3    H123977   3.785   0.604  11.407  0.9918 -0.3625  0.2128
  854TIP3    H223978   3.903   0.670  11.337 -0.6447  0.5832 -1.7518
  855TIP3   OH223979   6.541   6.641  15.615 -0.5364  0.0693  0.3282
  855TIP3    H123980   6.461   6.648  15.563 -1.2745  0.8748  1.5237
  855TIP3    H223981   6.572   6.731  15.624  0.2242 -0.1836  0.3177
  856TIP3   OH223982   0.674   5.959  12.705 -0.1989  0.1688  0.0652
  856TIP3    H123983   0.599   6.006  12.741 -1.2401 -1.4342  0.0744
  856TIP3    H223984   0.645   5.868  12.699  1.2974 -0.2683 -1.1735
  857TIP3   OH223985   4.180   3.029  16.125 -0.5443 -0.4189 -0.0345
  857TIP3    H123986   4.121   3.033  16.050  0.1846 -2.3123 -0.7617
  857TIP3    H223987   4.268   3.029  16.087 -0.1069  0.2579  0.9283
  858TIP3   OH223988   5.296   5.330   4.205  0.2483  0.3311 -0.1234
  858TIP3    H123989   5.275   5.279   4.283 -1.6169  0.5462 -0.4288
  858TIP3    H223990   5.371   5.384   4.230  0.9048 -0.9967  0.8732
  859TIP3   OH223991   0.820   1.863  15.956 -0.0490  0.0229 -0.0277
  859TIP3    H123992   0.770   1.926  16.008  1.9249  0.2043  1.7677
  859TIP3    H223993   0.829   1.786  16.013  1.0512 -0.2780 -0.5716
  860TIP3   OH223994   2.837   0.471  17.381  0.0104 -0.0035  0.3711
  860TIP3    H123995   2.922   0.515  17.380  0.2856 -0.4441 -2.8165
  860TIP3    H223996   2.796   0.494  17.298 -1.1435 -3.2477 -0.1010
  861TIP3   OH223997   4.309   1.727   3.185  0.4639  0.5517 -0.6680
  861TIP3    H123998   4.342   1.797   3.129  1.6936  0.5848  0.0738
  861TIP3    H223999   4.360   1.733   3.265 -0.2387 -0.4432 -0.1178
  862TIP3   OH224000   4.845   1.834   5.810  0.5578  0.4019 -0.2340
  862TIP3    H124001   4.902   1.757   5.799 -0.6114 -0.8961  2.0441
  862TIP3    H224002   4.759   1.804   5.780 -0.1922  0.3363  1.8604
  863TIP3   OH224003   1.248   5.959   5.610  0.3262  0.1514 -0.3306
  863TIP3    H124004   1.183   5.977   5.678  1.2521 -0.9415  0.9209
  863TIP3    H224005   1.230   6.022   5.541 -1.3757  0.5644  0.4424
  864TIP3   OH224006   4.846   1.096   6.017 -0.0717 -0.1382 -0.5279
  864TIP3    H124007   4.927   1.145   6.012 -1.4183  2.3980  0.7183
  864TIP3    H224008   4.851   1.048   6.100 -0.1828  0.7027 -0.0273
  865TIP3   OH224009   1.008   4.859   1.249  0.3447  0.5105 -0.0807
  865TIP3    H124010   1.054   4.869   1.165  0.3633 -0.8389 -0.2608
  865TIP3    H224011   1.073   4.886   1.315  0.1010  2.2433 -0.5059
  866TIP3   OH224012   3.718   0.527   5.674 -0.0778  0.1592 -0.6861
  866TIP3    H124013   3.708   0.452   5.615 -1.4455 -1.4409  1.3987
  866TIP3    H224014   3.729   0.602   5.617 -1.1157 -1.3142 -2.9594
  867TIP3   OH224015   3.458   6.136  13.311  0.6019 -0.3673  0.1128
  867TIP3    H124016   3.458   6.066  13.246  1.5896 -1.5870  1.3828
  867TIP3    H224017   3.543   6.130  13.353  0.3815  1.0730  0.8453
  868TIP3   OH224018   5.793   3.429  14.050 -0.1782 -0.4003  0.4411
  868TIP3    H124019   5.750   3.358  14.003  0.2166 -0.8499  0.7531
  868TIP3    H224020   5.858   3.386  14.105 -0.7313  0.1048  1.5205
  869TIP3   OH224021   2.753   4.155   2.470 -0.1420 -0.2864  0.3421
  869TIP3    H124022   2.742   4.198   2.555 -1.7074  0.4492 -0.1976
  869TIP3    H224023   2.794   4.071   2.491  2.5071  1.1406  1.4862
  870TIP3   OH224024   5.512   1.345   5.068 -0.2080 -0.7315 -0.2056
  870TIP3    H124025   5.509   1.285   4.994 -0.9579  1.3420 -1.9866
  870TIP3    H224026   5.432   1.328   5.117  0.9216 -3.0415  1.0055
  871TIP3   OH224027   4.786   6.390   2.484  0.3595 -0.3304 -0.0144
  871TIP3    H124028   4.781   6.446   2.561  3.5579  1.7596 -1.1346
  871TIP3    H224029   4.718   6.423   2.426 -0.7140 -0.5889  1.0497
  872TIP3   OH224030   3.194   3.106   1.212 -0.0637 -0.3489 -0.0056
  872TIP3    H124031   3.220   3.036   1.271  1.8365  0.7445  0.5476
  872TIP3    H224032   3.209   3.071   1.124 -0.9192 -1.2520  0.1925
  873TIP3   OH224033   0.054   4.670   6.412 -0.7875 -0.5362 -0.2763
  873TIP3    H124034   0.001   4.591   6.421  1.1038 -1.8238  0.3387
  873TIP3    H224035   0.055   4.709   6.499  0.5525 -1.4496  0.1604
  874TIP3   OH224036   3.966   2.343   0.073  0.1160 -0.4491  0.2693
  874TIP3    H124037   4.002   2.370   0.158  2.1618  2.1242 -1.2574
  874TIP3    H224038   4.029   2.280   0.039 -0.0113 -0.4764  0.0864
  875TIP3   OH224039   5.294   3.658   5.983 -0.3421  0.1185 -0.0032
  875TIP3    H124040   5.321   3.749   5.984 -0.8985  0.3183 -1.1184
  875TIP3    H224041   5.244   3.649   5.902  0.8428 -1.5052 -0.6082
  876TIP3   OH224042   4.488   5.183  16.694  0.1660 -0.1169 -0.0904
  876TIP3    H124043   4.424   5.235  16.743  0.2640 -0.9259  0.9227
  876TIP3    H224044   4.525   5.245  16.630 -1.8288  0.2970 -0.9367
  877TIP3   OH224045   4.922   5.705  15.873 -0.4586  0.1697  0.1405
  877TIP3    H124046   4.978   5.758  15.929  0.6589 -1.4343  0.6277
  877TIP3    H224047   4.970   5.697  15.791 -0.7370  0.1232 -0.0203
  878TIP3   OH224048   0.054   4.786  16.138  0.2654  0.1969 -0.0789
  878TIP3    H124049  -0.007   4.713  16.128  0.4984 -0.0382  0.2202
  878TIP3    H224050   0.137   4.745  16.162  0.8845  0.3919 -1.7165
  879TIP3   OH224051   4.366   6.140  13.091 -0.3530 -0.6459  0.4732
  879TIP3    H124052   4.325   6.213  13.044 -1.4504 -1.6801 -0.2464
  879TIP3    H224053   4.425   6.182  13.154  0.6470  0.8092 -1.3420
  880TIP3   OH224054   5.346   0.492  11.727 -0.1218 -0.3062  0.1301
  880TIP3    H124055   5.386   0.459  11.647  1.3288 -1.7951  1.4090
  880TIP3    H224056   5.419   0.524  11.780 -0.3473 -3.5794  2.7660
  881TIP3   OH224057   0.774   4.176   6.907 -0.3347  0.4118 -0.0625
  881TIP3    H124058   0.788   4.262   6.866 -0.1464  0.5496  0.2834
  881TIP3    H224059   0.760   4.116   6.834  2.7755  0.1041 -0.5610
  882TIP3   OH224060   0.193   1.787   0.450  0.1584  0.4884  0.9077
  882TIP3    H124061   0.251   1.805   0.524  1.1694 -0.2894  0.3386
  882TIP3    H224062   0.248   1.801   0.373 -0.5502  0.1941  0.3377
  883TIP3   OH224063   3.126   1.665  11.409 -0.3973 -0.5168 -0.7289
  883TIP3    H124064   3.207   1.676  11.460  0.3240 -0.0172 -1.9464
  883TIP3    H224065   3.134   1.577  11.370 -2.3716 -2.2720  2.3811
  884TIP3   OH224066   1.352   0.928  14.575  0.6176  0.4280 -0.3196
  884TIP3    H124067   1.258   0.926  14.558  0.4977 -1.4850  0.2763
  884TIP3    H224068   1.385   0.849  14.531  1.7388  0.4289  0.4912
  885TIP3   OH224069   1.794   6.631  13.669  0.2624  0.5500 -0.1661
  885TIP3    H124070   1.884   6.662  13.659 -0.3950  3.0230  0.9435
  885TIP3    H224071   1.744   6.683  13.606 -0.5726  0.0176  0.0443
  886TIP3   OH224072   6.098   6.107  12.968 -0.1845  0.2020 -0.0354
  886TIP3    H124073   6.177   6.161  12.967 -0.1963  0.2325 -1.4413
  886TIP3    H224074   6.126   6.024  13.007  1.2880 -0.7758 -2.8467
  887TIP3   OH224075   2.770   3.562  16.500  0.3318  0.1799 -0.6190
  887TIP3    H124076   2.755   3.567  16.406  2.0065 -1.6109 -1.0547
  887TIP3    H224077   2.858   3.598  16.512 -0.1049  0.9715  0.3693
  888TIP3   OH224078   0.784   3.394  13.358  0.3092 -0.6440 -0.2083
  888TIP3    H124079   0.701   3.407  13.313 -0.6514 -2.5352  0.9264
  888TIP3    H224080   0.766   3.420  13.449  1.0454 -0.8050 -0.0121
  889TIP3   OH224081   0.032   0.349  11.353  0.0884 -0.6099 -0.7840
  889TIP3    H124082   0.013   0.315  11.440  0.1740 -2.7684 -1.5587
  889TIP3    H224083   0.091   0.423  11.369 -1.0926  0.0019  1.0424
  890TIP3   OH224084   2.796   3.549   6.550 -0.1981  0.1384  0.5135
  890TIP3    H124085   2.723   3.499   6.587 -1.2222  0.0604 -1.4646
  890TIP3    H224086   2.783   3.638   6.583  0.0208 -0.2871  1.8053
  891TIP3   OH224087   1.922   4.327   3.735 -0.3395 -0.3371 -0.2535
  891TIP3    H124088   1.973   4.385   3.792  0.0606  0.7182 -1.6199
  891TIP3    H224089   1.973   4.245   3.733  0.7602  0.3360 -0.7424
  892TIP3   OH224090   3.089   0.877  14.335  0.1450 -0.3253 -0.0734
  892TIP3    H124091   3.122   0.815  14.269  0.3862  0.3608 -0.6076
  892TIP3    H224092   3.028   0.932  14.287  1.1760  0.9175 -0.0169
  893TIP3   OH224093   0.032   0.598  16.409  0.4391 -0.3551  0.1342
  893TIP3    H124094  -0.033   0.568  16.346 -0.1963 -1.4256  1.2640
  893TIP3    H224095  -0.011   0.670  16.455  0.7045  0.0730 -0.2811
  894TIP3   OH224096   3.338   3.767  12.786  0.4145  0.2593 -0.0852
  894TIP3    H124097   3.305   3.847  12.826  0.3161  0.4198 -0.4804
  894TIP3    H224098   3.281   3.752  12.711  0.4889 -0.1329 -0.0655
  895TIP3   OH224099   0.022   5.345   0.522  0.3946  0.3891  0.3181
  895TIP3    H124100   0.042   5.397   0.444  0.0952  0.7281  0.4580
  895TIP3    H224101   0.107   5.328   0.563  0.4494  1.3949  0.6559
  896TIP3   OH224102   3.784   3.375   1.003 -0.4106 -0.0338 -0.0604
  896TIP3    H124103   3.820   3.447   1.054 -1.3075  1.5166 -1.5135
  896TIP3    H224104   3.835   3.374   0.922  1.5601 -3.0074  1.0541
  897TIP3   OH224105   5.291   4.153  13.806  0.5382 -0.2390  0.2023
  897TIP3    H124106   5.281   4.080  13.744 -0.4417  0.0855 -0.0373
  897TIP3    H224107   5.203   4.191  13.812  1.1128  1.1334  0.0686
  898TIP3   OH224108   0.454   3.403   3.561 -0.3657  0.0344  0.0221
  898TIP3    H124109   0.360   3.391   3.572 -0.6033  1.1892 -0.6018
  898TIP3    H224110   0.489   3.314   3.553 -1.2260 -0.4788  1.4833
  899TIP3   OH224111   2.120   4.435   4.833 -0.0122 -0.0671 -1.0139
  899TIP3    H124112   2.049   4.499   4.831 -0.9970 -1.0889 -0.1171
  899TIP3    H224113   2.189   4.474   4.779 -1.1500  1.0661 -1.7027
  900TIP3   OH224114   1.246   0.301  15.130  0.0477  1.1548  0.2840
  900TIP3    H124115   1.241   0.386  15.086  0.5147  2.0731  1.9124
  900TIP3    H224116   1.271   0.322  15.220 -0.4959 -0.6636  0.9103
  901TIP3   OH224117   6.212   2.345   2.589  0.1732 -0.2123  0.3298
  901TIP3    H124118   6.148   2.408   2.554 -0.0306 -0.5208  0.1430
  901TIP3    H224119   6.239   2.383   2.672 -0.7738 -0.4037  0.7450
  902TIP3   OH224120   2.549   1.134   4.870 -0.2944  0.5194  0.4696
  902TIP3    H124121   2.569   1.046   4.903  1.4263  1.5852  2.4794
  902TIP3    H224122   2.506   1.178   4.943 -0.1311  1.7081 -0.1230
  903TIP3   OH224123   2.807   1.715   0.405 -0.3294  0.4644  0.0320
  903TIP3    H124124   2.797   1.645   0.341  0.0093 -0.6367  1.1447
  903TIP3    H224125   2.754   1.787   0.370 -1.1047 -0.5147 -0.8746
  904TIP3   OH224126   6.213   3.773   3.528  0.1942 -0.3720  0.3649
  904TIP3    H124127   6.242   3.682   3.536  0.1676 -0.8191 -3.1402
  904TIP3    H224128   6.284   3.825   3.566  1.4472 -1.7833  0.0290
  905TIP3   OH224129   6.021   3.837   1.796  0.4096  0.1456  0.2641
  905TIP3    H124130   6.047   3.746   1.781  0.1732 -0.4451  2.9782
  905TIP3    H224131   6.100   3.879   1.831 -0.5820 -0.2350  3.2372
  906TIP3   OH224132   5.154   1.338   1.003 -1.1079 -0.5112  0.1481
  906TIP3    H124133   5.148   1.284   1.082 -0.0667 -0.7783  0.0585
  906TIP3    H224134   5.150   1.276   0.931 -1.0226 -0.3661  0.0170
  907TIP3   OH224135   0.195   1.685   0.937 -0.1310 -0.2130 -0.9348
  907TIP3    H124136   0.214   1.740   1.013 -0.9585 -0.3508 -0.6174
  907TIP3    H224137   0.231   1.599   0.959  0.1065 -0.1111 -0.9271
  908TIP3   OH224138   3.720   0.275  16.067 -0.3825  0.2539  0.1582
  908TIP3    H124139   3.718   0.211  16.138 -1.7355  1.0345  0.8713
  908TIP3    H224140   3.670   0.234  15.996 -0.3261  0.0807  0.2177
  909TIP3   OH224141   1.604   1.195   4.464  0.9140  0.2402 -0.5303
  909TIP3    H124142   1.606   1.289   4.477 -0.9343  0.2675 -0.1995
  909TIP3    H224143   1.655   1.159   4.537  0.0313  0.9150  0.4428
  910TIP3   OH224144   3.301   3.587   1.952  0.7956  0.4118  0.8541
  910TIP3    H124145   3.248   3.667   1.965  0.3596 -0.0848  2.3296
  910TIP3    H224146   3.277   3.530   2.025 -0.3785 -1.9199 -1.2036
  911TIP3   OH224147   2.130   0.082  10.791  0.5142 -0.4184  0.1155
  911TIP3    H124148   2.050   0.054  10.746  0.5489 -1.7139  0.8030
  911TIP3    H224149   2.100   0.117  10.875  0.5728  0.3439 -0.1815
  912TIP3   OH224150   1.443   4.468  16.553 -0.4375 -0.4447  0.1582
  912TIP3    H124151   1.447   4.431  16.465 -0.4673  2.4713 -1.1854
  912TIP3    H224152   1.366   4.524  16.552 -1.5938 -1.8298  2.7454
  913TIP3   OH224153   4.021   1.525   3.967  0.6543  0.1334 -0.0627
  913TIP3    H124154   4.087   1.470   3.924  0.9105  1.3325 -1.2855
  913TIP3    H224155   4.065   1.610   3.979 -0.2751  0.5918  0.1915
  914TIP3   OH224156   4.850   1.556   2.194 -0.7594 -0.4386  0.4481
  914TIP3    H124157   4.820   1.486   2.135 -1.8774  1.2592 -1.1131
  914TIP3    H224158   4.826   1.525   2.281 -1.2439 -1.9834 -0.1922
  915TIP3   OH224159   0.280   0.891  13.173 -0.0461  0.3915  0.6926
  915TIP3    H124160   0.300   0.948  13.247  0.5407  1.0818  0.0188
  915TIP3    H224161   0.348   0.824  13.175 -2.1569 -1.9270  3.0315
  916TIP3   OH224162   6.613   2.199  12.374  0.3647  0.0273  0.5438
  916TIP3    H124163   6.536   2.142  12.374  0.8931 -0.7053  1.1094
  916TIP3    H224164   6.615   2.236  12.286 -1.1266  0.7442  0.7885
  917TIP3   OH224165   0.895   1.736   5.396 -0.1555 -0.1531  0.1846
  917TIP3    H124166   0.975   1.749   5.445  1.0127 -2.1056 -1.0660
  917TIP3    H224167   0.834   1.695   5.457  0.5793 -0.7122  0.5397
  918TIP3   OH224168   4.933   4.812   6.015  0.0554 -0.0855 -0.1313
  918TIP3    H124169   4.958   4.751   6.084 -1.5202  0.2011  0.7305
  918TIP3    H224170   4.841   4.831   6.031  0.4531  2.4672 -0.3901
  919TIP3   OH224171   0.134   4.250  16.825 -0.3943  0.2993  0.0213
  919TIP3    H124172   0.181   4.174  16.790 -0.1447  1.1395 -1.5415
  919TIP3    H224173   0.132   4.235  16.920 -0.8864 -1.9541 -0.2822
  920TIP3   OH224174   5.626   3.112   3.805 -0.4088 -0.0378  0.0982
  920TIP3    H124175   5.538   3.090   3.835 -0.7617 -3.5070 -2.6774
  920TIP3    H224176   5.612   3.164   3.726 -0.0902 -0.9239 -0.5722
  921TIP3   OH224177   3.182   3.771   0.916  0.1226 -0.2941  0.2329
  921TIP3    H124178   3.131   3.796   0.993 -1.2053  0.4076 -0.8213
  921TIP3    H224179   3.223   3.852   0.886  1.2091 -0.7003  0.6035
  922TIP3   OH224180   2.289   2.440  14.086  0.1732  0.6560 -0.1477
  922TIP3    H124181   2.288   2.345  14.082  1.3802  0.6646 -1.8359
  922TIP3    H224182   2.329   2.467  14.003  0.0171  2.6235  0.3653
  923TIP3   OH224183   6.635   4.437  16.526  0.3283  0.4251 -0.7946
  923TIP3    H124184   6.671   4.349  16.535 -1.1644 -0.0676  0.8590
  923TIP3    H224185   6.577   4.432  16.451  1.2966  0.4101 -1.5697
  924TIP3   OH224186   1.215   1.749  11.388 -0.2958 -0.6431  0.1876
  924TIP3    H124187   1.207   1.817  11.454  0.7770 -0.1150 -0.1964
  924TIP3    H224188   1.235   1.796  11.307 -0.2823 -1.3633 -0.2422
  925TIP3   OH224189   4.828   2.257   4.744  0.3278 -0.7042  0.7730
  925TIP3    H124190   4.836   2.323   4.813  1.9635  0.6111 -0.5923
  925TIP3    H224191   4.751   2.285   4.693 -0.3807 -1.2085  1.5390
  926TIP3   OH224192   1.668   0.192   5.294 -0.3465  0.0917  0.1664
  926TIP3    H124193   1.598   0.151   5.244  1.6716  0.6601 -3.5446
  926TIP3    H224194   1.684   0.275   5.248  0.6073  1.5307  2.8989
  927TIP3   OH224195   2.159   3.403  11.896  0.0624  0.0534  0.2821
  927TIP3    H124196   2.109   3.369  11.970 -3.6596  0.5763 -1.7189
  927TIP3    H224197   2.187   3.490  11.924 -0.5257 -0.0964  1.3960
  928TIP3   OH224198   3.290   6.691   2.552  0.1088  0.0599 -0.5073
  928TIP3    H124199   3.321   6.682   2.462 -1.3276 -0.5122 -0.9747
  928TIP3    H224200   3.318   6.778   2.579  0.1162  0.4296 -1.6835
  929TIP3   OH224201   0.799   5.061  15.594 -0.4925  0.2619  0.3265
  929TIP3    H124202   0.789   4.966  15.603 -0.0216  0.2762  1.1216
  929TIP3    H224203   0.746   5.098  15.665 -1.0057  0.6146 -0.2336
  930TIP3   OH224204   0.211   1.921  12.171  1.2934 -0.8886 -0.2231
  930TIP3    H124205   0.205   1.826  12.156 -0.9319 -0.8445  0.1231
  930TIP3    H224206   0.160   1.936  12.250  1.1912  0.6831 -0.5634
  931TIP3   OH224207   5.482   2.382  14.504 -0.4361 -0.0951  0.6084
  931TIP3    H124208   5.575   2.389  14.481 -0.2761  1.3156  1.5188
  931TIP3    H224209   5.435   2.400  14.423  0.1071  2.4192  0.7743
  932TIP3   OH224210   4.213   0.240   4.602  0.0227  0.3882 -0.0981
  932TIP3    H124211   4.201   0.323   4.647  1.4462  0.8132 -0.4510
  932TIP3    H224212   4.301   0.212   4.627 -0.6385 -1.3060  0.4636
  933TIP3   OH224213   4.971   4.490   1.206 -0.4856 -0.0691  0.0125
  933TIP3    H124214   4.944   4.578   1.178 -2.5690 -1.1892 -1.7870
  933TIP3    H224215   5.065   4.498   1.222 -0.3468  2.1773 -1.4611
  934TIP3   OH224216   6.607   0.566  12.837 -0.1345 -0.2217 -0.2218
  934TIP3    H124217   6.692   0.561  12.794 -1.0944  0.6745 -2.3712
  934TIP3    H224218   6.569   0.479  12.826 -0.3803  0.0043 -1.2742
  935TIP3   OH224219   2.359   3.586   5.066  0.2202 -0.4217  0.6246
  935TIP3    H124220   2.367   3.549   4.978 -0.1567  1.7670 -0.4020
  935TIP3    H224221   2.311   3.519   5.115 -1.4269 -0.8772 -1.4201
  936TIP3   OH224222   0.325   0.218   4.116 -0.2961 -0.2878  0.6599
  936TIP3    H124223   0.418   0.211   4.095 -0.5238 -1.7373  0.0146
  936TIP3    H224224   0.314   0.307   4.150  1.0275  0.4317 -0.7167
  937TIP3   OH224225   0.645   2.153   3.423  0.0482 -0.9693 -0.4194
  937TIP3    H124226   0.668   2.147   3.516 -1.1876 -1.6378 -0.1327
  937TIP3    H224227   0.657   2.245   3.401 -0.2372 -0.6855  0.5692
  938TIP3   OH224228   5.821   6.340   3.877  0.1551  0.3081  0.1222
  938TIP3    H124229   5.809   6.428   3.914 -0.3545  0.1723  0.2950
  938TIP3    H224230   5.908   6.313   3.907 -0.4395 -0.0064  1.6940
  939TIP3   OH224231   3.977   2.293  14.006 -0.2205  0.4960  0.0901
  939TIP3    H124232   4.057   2.261  13.964  0.8989  2.6040  0.5059
  939TIP3    H224233   3.933   2.343  13.938  0.8254  2.6223  0.9083
  940TIP3   OH224234   1.433   1.035   0.396  0.2878  0.2696 -0.8660
  940TIP3    H124235   1.397   0.957   0.439  0.6796  0.2359 -0.6000
  940TIP3    H224236   1.520   1.008   0.367  0.4474  0.6250 -0.7229
  941TIP3   OH224237   3.544   5.743  11.557  1.1044 -0.1481 -0.1121
  941TIP3    H124238   3.592   5.681  11.503  1.0365 -0.7958  0.5446
  941TIP3    H224239   3.474   5.691  11.597  1.7940  0.0391  1.4233
  942TIP3   OH224240   4.303   2.025  15.224  0.6649 -0.1522  0.1489
  942TIP3    H124241   4.336   2.064  15.143 -2.4658 -0.8046 -1.6220
  942TIP3    H224242   4.287   1.933  15.202 -0.3248 -0.3379  1.4622
  943TIP3   OH224243   5.552   5.244   2.310  0.1067  0.3582 -0.1137
  943TIP3    H124244   5.555   5.151   2.334  0.7310  0.2191 -0.7035
  943TIP3    H224245   5.640   5.264   2.280 -0.2140  0.9557 -0.6839
  944TIP3   OH224246   4.626   0.901   4.486 -0.8176  0.7513 -0.5034
  944TIP3    H124247   4.562   0.849   4.535 -0.3601 -0.3072 -0.9800
  944TIP3    H224248   4.584   0.986   4.472 -0.3762  1.6704  2.9931
  945TIP3   OH224249   3.885   1.537  14.569 -0.2142 -0.4767  0.2823
  945TIP3    H124250   3.910   1.544  14.661 -0.0713  0.4849  0.1813
  945TIP3    H224251   3.828   1.612  14.553  1.4830  0.6503 -0.9311
  946TIP3   OH224252   4.098   6.511   5.998 -0.6961 -0.2562  0.7766
  946TIP3    H124253   4.069   6.442   6.059  0.1711 -0.2667  1.2038
  946TIP3    H224254   4.194   6.504   5.999 -0.6832 -0.7297 -1.1682
  947TIP3   OH224255   6.552   3.707  12.005  0.1051 -0.1251  0.7489
  947TIP3    H124256   6.521   3.682  12.092 -0.5579  1.4314  0.9905
  947TIP3    H224257   6.490   3.666  11.945 -1.0255  0.9661  1.1387
  948TIP3   OH224258   4.373   6.078  13.906  0.3818 -0.3877  0.0736
  948TIP3    H124259   4.436   6.143  13.873 -0.3046  0.1640 -0.1747
  948TIP3    H224260   4.403   5.995  13.870  0.4940 -0.0066 -0.7335
  949TIP3   OH224261   5.572   6.323   6.668  0.0499  0.1288  0.5748
  949TIP3    H124262   5.646   6.299   6.724  0.6983 -0.9922 -0.6881
  949TIP3    H224263   5.567   6.418   6.675  0.4767  0.0706  2.0591
  950TIP3   OH224264   0.589   5.964   0.041 -0.6361 -0.1104 -0.0347
  950TIP3    H124265   0.576   5.870   0.053  0.9838 -0.3560 -0.0423
  950TIP3    H224266   0.536   6.004   0.111 -1.5872 -0.9880 -0.2180
  951TIP3   OH224267   0.596   4.609  17.095 -0.5792 -0.5462 -0.4725
  951TIP3    H124268   0.680   4.628  17.053 -0.3773 -1.8505 -0.6805
  951TIP3    H224269   0.620   4.577  17.182 -0.9619  1.1757  0.3197
  952TIP3   OH224270   0.485   3.068   4.418  0.1207 -0.1680  0.7353
  952TIP3    H124271   0.458   3.108   4.500 -1.6059  0.4633 -0.0928
  952TIP3    H224272   0.404   3.035   4.379  0.7063  0.5110 -1.2081
  953TIP3   OH224273   6.749   4.949   0.728 -0.6600 -0.6031  0.3242
  953TIP3    H124274   6.816   5.005   0.767  0.3561 -1.7767  0.3322
  953TIP3    H224275   6.695   5.008   0.675 -0.1145  0.4916  0.9706
  954TIP3   OH224276   3.764   6.541   6.377  0.4777 -0.0635  0.3828
  954TIP3    H124277   3.852   6.505   6.374 -0.4098 -2.4008 -2.3933
  954TIP3    H224278   3.714   6.477   6.428 -0.2110 -0.4749 -0.7684
  955TIP3   OH224279   1.859   4.854  14.114 -0.3395 -0.5020 -0.5577
  955TIP3    H124280   1.794   4.866  14.044  0.8805  0.4116 -1.5854
  955TIP3    H224281   1.871   4.942  14.151  3.0983  0.3148 -3.0369
  956TIP3   OH224282   5.871   5.107   3.616  0.3809 -0.1644  0.9313
  956TIP3    H124283   5.830   5.186   3.651 -0.0462 -0.3910  0.9460
  956TIP3    H224284   5.868   5.044   3.688  1.4571  0.0564  1.1913
  957TIP3   OH224285   4.745   1.478   3.343  0.0528  0.1869 -0.7587
  957TIP3    H124286   4.775   1.395   3.378 -0.7418 -0.1262 -0.8088
  957TIP3    H224287   4.825   1.521   3.311  0.4348 -0.6468 -0.9390
  958TIP3   OH224288   2.060   1.234   1.800  0.0724  0.2100 -1.1059
  958TIP3    H124289   2.103   1.157   1.762 -1.4304  0.4518 -3.4833
  958TIP3    H224290   1.967   1.211   1.802 -0.0279  0.3111  2.4157
  959TIP3   OH224291   5.016   5.008   3.661 -0.3582 -0.5261 -0.6466
  959TIP3    H124292   5.028   4.980   3.570  0.1466  0.3919 -0.8800
  959TIP3    H224293   4.937   5.062   3.659 -0.4275 -0.6238 -0.5145
  960TIP3   OH224294   1.106   4.062  15.058 -0.3290  0.4012 -0.3760
  960TIP3    H124295   1.185   4.112  15.040 -1.5935  3.6723  2.1229
  960TIP3    H224296   1.047   4.084  14.986 -0.0016  0.4215 -0.6407
  961TIP3   OH224297   5.413   5.470   2.037  0.1320  0.4345 -0.8862
  961TIP3    H124298   5.492   5.485   2.090 -0.6339 -2.2407  1.2559
  961TIP3    H224299   5.341   5.484   2.098 -0.8575 -1.3962 -1.5743
  962TIP3   OH224300   0.060   6.471  13.202 -0.2281  0.0482 -0.3897
  962TIP3    H124301   0.029   6.502  13.117 -0.3167  0.9085 -0.0496
  962TIP3    H224302  -0.010   6.496  13.263 -0.3585 -0.9263 -0.1134
  963TIP3   OH224303   1.202   0.677   4.557  0.0323 -0.5545  0.8161
  963TIP3    H124304   1.278   0.628   4.528  0.2399 -0.8281  1.7726
  963TIP3    H224305   1.175   0.728   4.481  2.8314  1.6721  1.1551
  964TIP3   OH224306   1.030   3.812  12.519 -0.5708  0.3581 -0.4389
  964TIP3    H124307   0.985   3.896  12.506 -0.7652  0.2005 -0.8297
  964TIP3    H224308   1.057   3.812  12.610  1.0646  1.6391 -0.8742
  965TIP3   OH224309   5.507   5.306   0.049  0.4549  0.5952  0.0804
  965TIP3    H124310   5.530   5.273   0.136  0.8951 -0.1138 -0.2955
  965TIP3    H224311   5.444   5.377   0.066 -1.4312 -1.1531  0.8903
  966TIP3   OH224312   0.080   5.972   4.415  0.5658  0.1573  0.0860
  966TIP3    H124313   0.042   6.000   4.331 -1.3862 -1.0475  0.4960
  966TIP3    H224314   0.061   6.044   4.475 -0.0429  0.0626  0.0102
  967TIP3   OH224315   1.330   6.461  14.037 -0.4024 -0.1973 -0.3415
  967TIP3    H124316   1.262   6.484  14.100 -0.8778  0.2270 -0.9989
  967TIP3    H224317   1.403   6.519  14.058 -1.0167  0.8432 -0.9714
  968TIP3   OH224318   3.502   5.359  13.904 -0.1449  0.2004  0.0519
  968TIP3    H124319   3.425   5.400  13.944  0.4660  1.4627 -0.0160
  968TIP3    H224320   3.465   5.295  13.842 -1.1514  1.2566 -0.4789
  969TIP3   OH224321   3.221   0.257  12.353  0.7070  0.5977 -0.1531
  969TIP3    H124322   3.256   0.290  12.270 -0.3395 -0.5261 -1.0679
  969TIP3    H224323   3.283   0.289  12.418  0.7973  2.7192 -1.1760
  970TIP3   OH224324   1.866   1.556   0.366  0.7627  0.2275 -0.2457
  970TIP3    H124325   1.885   1.463   0.349  0.7797  0.4604 -1.6045
  970TIP3    H224326   1.814   1.584   0.291  3.2093  2.0571 -1.4112
  971TIP3   OH224327   1.073   2.679   3.872 -0.1039 -0.4673 -0.2595
  971TIP3    H124328   0.995   2.639   3.833 -0.7403  0.4908 -0.0161
  971TIP3    H224329   1.039   2.755   3.920  0.8806 -0.5642  0.6143
  972TIP3   OH224330   1.830   5.069  13.247 -0.0047 -0.3841 -0.7605
  972TIP3    H124331   1.788   4.993  13.208  0.0139 -0.9063  0.1997
  972TIP3    H224332   1.836   5.048  13.340 -0.6531  1.0762 -0.3466
  973TIP3   OH224333   4.995   0.126  16.834 -0.0481 -0.0405  0.6587
  973TIP3    H124334   4.958   0.213  16.819 -1.1556 -0.5668  0.2415
  973TIP3    H224335   5.089   0.141  16.840 -0.0840  1.0167 -0.7998
  974TIP3   OH224336   5.843   1.495   0.372  0.7876  0.2182 -0.1776
  974TIP3    H124337   5.831   1.402   0.392  1.1200  0.0650 -0.6848
  974TIP3    H224338   5.887   1.530   0.449  0.7590 -0.0644 -0.0279
  975TIP3   OH224339   3.369   5.443  14.171 -0.4562 -0.7404  0.4351
  975TIP3    H124340   3.277   5.420  14.154 -1.4748  3.7511 -1.6528
  975TIP3    H224341   3.370   5.471  14.263 -1.3605 -0.2725  0.3141
  976TIP3   OH224342   0.350   6.712   4.725 -0.1424  0.1838  0.5421
  976TIP3    H124343   0.286   6.745   4.662  1.3048  0.1432 -0.9942
  976TIP3    H224344   0.320   6.622   4.743  0.5467 -0.5573 -1.7230
  977TIP3   OH224345   4.602   3.906   5.781  0.3659  0.1690  0.4111
  977TIP3    H124346   4.526   3.899   5.839  0.6133  1.6462  0.9492
  977TIP3    H224347   4.671   3.858   5.825 -0.1678 -0.9982  0.0254
  978TIP3   OH224348   1.696   3.219  12.957 -0.7630 -0.3507 -0.5506
  978TIP3    H124349   1.648   3.302  12.958 -1.1128 -0.5388 -1.3276
  978TIP3    H224350   1.646   3.161  13.014 -1.0610 -0.3281 -0.7901
  979TIP3   OH224351   0.921   3.007   4.388 -0.5690  0.0815  0.3994
  979TIP3    H124352   1.008   3.044   4.373 -0.9475  0.5188 -0.7975
  979TIP3    H224353   0.874   3.075   4.437 -0.5735  0.2987  0.0961
  980TIP3   OH224354   4.688   3.449   0.774 -0.4356  0.0469 -0.1049
  980TIP3    H124355   4.731   3.523   0.816 -1.0941 -0.1023  0.8534
  980TIP3    H224356   4.594   3.468   0.782 -0.7194 -1.9214  2.1331
  981TIP3   OH224357   2.321   0.651   1.924  0.7680  0.2621 -0.1712
  981TIP3    H124358   2.257   0.591   1.886 -0.2029  1.2938 -0.2322
  981TIP3    H224359   2.327   0.626   2.016  1.4052 -0.7839 -0.4850
  982TIP3   OH224360   5.807   4.458   2.151 -0.1908  0.3137  0.2063
  982TIP3    H124361   5.834   4.546   2.128 -0.5336  0.1174 -1.0110
  982TIP3    H224362   5.719   4.468   2.187 -0.4513  0.4150 -0.4501
  983TIP3   OH224363   1.623   3.511  15.001  0.1251 -0.1994 -0.0594
  983TIP3    H124364   1.541   3.520  15.050 -0.8106 -0.7787 -1.4601
  983TIP3    H224365   1.632   3.417  14.986  0.3923 -0.0395 -0.9676
  984TIP3   OH224366   6.580   3.136  17.143  0.6306  0.6669  0.0140
  984TIP3    H124367   6.664   3.154  17.101  0.7542 -1.4220 -0.7300
  984TIP3    H224368   6.518   3.127  17.071  1.1179 -4.4213 -0.1307
  985TIP3   OH224369   0.659   2.321   2.054  0.9081 -0.1294  0.0789
  985TIP3    H124370   0.676   2.267   2.132  1.6498 -0.6271 -0.4175
  985TIP3    H224371   0.577   2.286   2.018  0.7727 -0.1571  0.4107
  986TIP3   OH224372   2.589   6.539  15.831  0.0881 -0.6427  0.5948
  986TIP3    H124373   2.674   6.535  15.874  1.2469  2.1570 -1.1637
  986TIP3    H224374   2.544   6.612  15.873 -0.3689 -0.4268 -0.2447
  987TIP3   OH224375   1.046   4.549   0.299  0.0153  0.2591  0.7219
  987TIP3    H124376   1.002   4.624   0.339  3.1773  1.9000  1.4197
  987TIP3    H224377   0.995   4.531   0.219 -3.0373  0.6164  2.4254
  988TIP3   OH224378   0.737   5.902   4.549  0.5888  0.1806 -0.0584
  988TIP3    H124379   0.721   5.836   4.481  1.0037 -0.2790  0.2830
  988TIP3    H224380   0.685   5.977   4.521  1.6018  0.4015 -1.4673
  989TIP3   OH224381   6.495   5.051  11.472  0.4403  0.2131 -0.3828
  989TIP3    H124382   6.556   5.032  11.401  0.8067 -1.0900  0.2523
  989TIP3    H224383   6.501   4.975  11.530 -0.9162  0.6026  0.3045
  990TIP3   OH224384   4.503   1.077   4.197  0.4108 -0.2111  0.3735
  990TIP3    H124385   4.542   1.163   4.208 -2.3821  1.3450 -0.7357
  990TIP3    H224386   4.486   1.070   4.103 -1.9194 -0.6817  0.7588
  991TIP3   OH224387   3.881   0.312   1.764 -0.2572  0.0859  0.0999
  991TIP3    H124388   3.916   0.238   1.812 -2.2691  0.6829  2.7420
  991TIP3    H224389   3.788   0.314   1.787 -0.5048  2.7771 -0.7187
  992TIP3   OH224390   0.025   6.021   5.505 -0.1472  0.0284 -0.0385
  992TIP3    H124391   0.083   6.078   5.555  1.9101 -1.1569 -0.9162
  992TIP3    H224392  -0.018   6.079   5.442  2.3009  0.6467 -1.2768
  993TIP3   OH224393   2.716   0.059  15.250  0.0574  0.5419 -0.2655
  993TIP3    H124394   2.704  -0.036  15.239  0.6929  0.4776 -0.4892
  993TIP3    H224395   2.637   0.089  15.294 -0.4304  0.0051 -0.7618
  994TIP3   OH224396   2.345   1.287   1.455  0.3972  0.7557  0.0149
  994TIP3    H124397   2.270   1.321   1.406 -0.2935  0.9488  1.1668
  994TIP3    H224398   2.344   1.192   1.438 -1.5790  0.3696  1.8852
  995TIP3   OH224399   0.788   6.179  10.701 -0.0982  0.0556 -0.2912
  995TIP3    H124400   0.763   6.198  10.792  1.1989 -0.8991  0.2987
  995TIP3    H224401   0.707   6.191  10.651 -0.9691  0.0813  1.0680
  996TIP3   OH224402   6.071   5.737   2.346  0.0197  0.6621  1.0011
  996TIP3    H124403   6.029   5.706   2.266  0.9367  1.5540  0.1491
  996TIP3    H224404   6.112   5.659   2.383  0.9393  0.5142 -0.2604
  997TIP3   OH224405   5.635   4.978   5.525  0.1069  0.0797  0.3435
  997TIP3    H124406   5.673   5.057   5.563  3.6209 -0.2624 -1.9720
  997TIP3    H224407   5.607   5.005   5.437 -2.5057 -0.4276  0.9367
  998TIP3   OH224408   5.122   2.620   1.720 -0.2351  0.0212 -0.3158
  998TIP3    H124409   5.122   2.568   1.640 -1.2620 -0.9606  0.2965
  998TIP3    H224410   5.031   2.618   1.750 -0.3290  2.2237 -0.2847
  999TIP3   OH224411   0.438   2.072   3.690  0.3488  0.1036 -0.3836
  999TIP3    H124412   0.348   2.072   3.656  0.0967  0.2591  0.2735
  999TIP3    H224413   0.488   2.121   3.625 -0.0010 -0.1503 -0.8547
 1000TIP3   OH224414   2.345   0.373  15.915 -0.2345  0.4017  0.2031
 1000TIP3    H124415   2.366   0.370  16.008  1.2834  1.6988 -0.0609
 1000TIP3    H224416   2.373   0.460  15.887  3.3122 -1.3433 -2.3331
 1001TIP3   OH224417   5.634   0.770   2.294 -0.0239 -0.7111 -0.1628
 1001TIP3    H124418   5.717   0.724   2.302  0.6106  0.3189 -0.5423
 1001TIP3    H224419   5.593   0.733   2.215  0.2483 -0.9663 -0.1854
 1002TIP3   OH224420   0.102   2.376  12.297  0.3443 -0.4782  0.1502
 1002TIP3    H124421   0.140   2.412  12.216  0.8920 -0.7992  0.2620
 1002TIP3    H224422   0.010   2.405  12.295  0.2235 -0.8724 -0.8231
 1003TIP3   OH224423   0.390   4.502  13.522  0.0823 -0.4608 -0.0737
 1003TIP3    H124424   0.473   4.518  13.478  0.2393 -1.4069 -0.1449
 1003TIP3    H224425   0.353   4.589  13.535 -0.2523 -0.1642 -2.5703
 1004TIP3   OH224426   4.299   3.252  11.940  0.8125  0.1364  0.4278
 1004TIP3    H124427   4.302   3.346  11.921  1.4534  0.0714  0.1963
 1004TIP3    H224428   4.222   3.221  11.893  2.0620  0.0737 -1.7107
 1005TIP3   OH224429   2.412   3.693   5.327  0.0931  0.6624  0.2361
 1005TIP3    H124430   2.386   3.646   5.247 -0.5593  1.1611  0.1479
 1005TIP3    H224431   2.347   3.667   5.392  0.8203 -0.0124  0.7182
 1006TIP3   OH224432   5.186   1.492   3.410 -0.0829 -0.6283 -0.1768
 1006TIP3    H124433   5.134   1.414   3.428  1.2931 -1.5498  0.0002
 1006TIP3    H224434   5.204   1.489   3.317 -0.3710 -0.2889 -0.2460
 1007TIP3   OH224435   1.839   2.082   1.723 -0.5270  0.3286  0.4258
 1007TIP3    H124436   1.873   2.060   1.636 -0.9321 -0.7465  0.5198
 1007TIP3    H224437   1.881   2.165   1.745  0.3984  0.0857 -0.3439
 1008TIP3   OH224438   2.795   4.446  15.050 -0.4380  0.3835 -0.1319
 1008TIP3    H124439   2.857   4.512  15.081 -0.3880  1.6838 -2.7546
 1008TIP3    H224440   2.838   4.363  15.068  0.6753  1.1375  0.8709
 1009TIP3   OH224441   4.729   1.922  13.700 -0.0560  0.4157  0.7158
 1009TIP3    H124442   4.659   1.860  13.677  0.7013 -1.1974  2.4437
 1009TIP3    H224443   4.718   1.936  13.794  2.3183 -0.4662  1.2007
 1010TIP3   OH224444   0.921   3.276  11.365 -0.0337 -0.5241  0.0481
 1010TIP3    H124445   0.841   3.314  11.401 -0.2848 -1.4684  0.5045
 1010TIP3    H224446   0.992   3.318  11.414 -0.1434  1.2637 -1.2160
 1011TIP3   OH224447   4.833   0.078   6.207  0.5281  0.1729  0.2045
 1011TIP3    H124448   4.899   0.014   6.232  0.6964  0.0978 -0.3992
 1011TIP3    H224449   4.869   0.119   6.128 -0.0360  0.3045  0.0095
 1012TIP3   OH224450   3.565   2.200   6.396  0.4735  0.0756 -0.0230
 1012TIP3    H124451   3.538   2.154   6.475 -1.4635  0.9864 -0.0923
 1012TIP3    H224452   3.567   2.292   6.422 -0.0045  0.3636 -0.9571
 1013TIP3   OH224453   6.379   5.824  11.741  0.3093  0.6574  0.9282
 1013TIP3    H124454   6.400   5.917  11.742  2.2115  0.3119  3.8960
 1013TIP3    H224455   6.462   5.780  11.761 -1.1381 -1.4768  2.7398
 1014TIP3   OH224456   1.309   6.501   0.728 -0.3303  0.3300 -0.4681
 1014TIP3    H124457   1.253   6.574   0.703 -0.6946  0.5896  0.9872
 1014TIP3    H224458   1.363   6.536   0.799 -0.9273 -0.9516  0.6718
 1015TIP3   OH224459   5.135   4.135   1.155 -0.1032 -0.0380 -0.0947
 1015TIP3    H124460   5.076   4.060   1.154 -0.8772  0.5663 -1.1751
 1015TIP3    H224461   5.153   4.150   1.248  0.0454 -1.5295  0.1339
 1016TIP3   OH224462   4.848   1.714  17.047  0.3926  0.7854 -0.0077
 1016TIP3    H124463   4.889   1.631  17.073  2.6187  1.4272 -1.1366
 1016TIP3    H224464   4.863   1.772  17.121  1.0425  0.8364 -0.1675
 1017TIP3   OH224465   1.529   0.121   0.076  0.1126 -0.0870  0.0257
 1017TIP3    H124466   1.513   0.067  -0.002  0.1972  0.4688 -0.3862
 1017TIP3    H224467   1.618   0.154   0.063  0.3068 -0.3813  0.6007
 1018TIP3   OH224468   5.005   1.025  12.326 -0.5426 -0.4439  0.0474
 1018TIP3    H124469   4.919   1.055  12.356 -0.6947 -0.0688 -0.7358
 1018TIP3    H224470   4.985   0.976  12.246 -0.2732 -2.3606  1.0938
 1019TIP3   OH224471   4.041   0.542  17.364 -0.3119 -0.0381  0.2739
 1019TIP3    H124472   4.116   0.597  17.386 -2.2097  3.0630 -0.4502
 1019TIP3    H224473   4.042   0.535  17.269 -0.4325 -0.7569  0.3203
 1020TIP3   OH224474   0.987   6.024   2.006 -0.2476  0.7852  0.2266
 1020TIP3    H124475   0.951   5.953   2.059  2.4296 -1.7843 -1.1387
 1020TIP3    H224476   0.963   6.001   1.916  0.4905  1.7339 -0.2291
 1021TIP3   OH224477   3.994   0.061   4.040  0.4653  0.0069  0.2290
 1021TIP3    H124478   3.924   0.059   4.105 -1.0967 -0.3935 -1.3585
 1021TIP3    H224479   4.026  -0.029   4.037 -1.5045 -0.7344 -1.5304
 1022TIP3   OH224480   0.517   4.396   5.545  0.1496 -0.9042 -0.1210
 1022TIP3    H124481   0.613   4.398   5.537  0.2533  0.9580  1.0094
 1022TIP3    H224482   0.500   4.329   5.611  0.5443 -2.1540 -1.2296
 1023TIP3   OH224483   6.378   0.534   3.996 -0.7274 -0.5331 -0.2577
 1023TIP3    H124484   6.466   0.548   3.963  0.1804 -1.5346  1.5621
 1023TIP3    H224485   6.348   0.621   4.024  0.6576 -0.5084  1.2842
 1024TIP3   OH224486   1.634   3.784  11.872  0.1823 -0.6959 -0.0740
 1024TIP3    H124487   1.585   3.796  11.791  0.0427 -0.5135  0.0361
 1024TIP3    H224488   1.720   3.752  11.843 -0.1283 -1.4047 -0.2431
 1025TIP3   OH224489   6.480   3.910   3.900  0.1505 -0.2360  0.2970
 1025TIP3    H124490   6.567   3.908   3.861  0.3236 -2.3662  0.7012
 1025TIP3    H224491   6.487   3.858   3.980 -1.0351  1.2241  1.4108
 1026TIP3   OH224492   5.511   6.357  16.635 -0.2082 -0.0457 -0.5315
 1026TIP3    H124493   5.466   6.278  16.606  0.8475 -0.5778 -0.7703
 1026TIP3    H224494   5.444   6.425  16.631 -0.4484 -0.3415 -3.0555
 1027TIP3   OH224495   5.381   3.920  16.870 -0.0153 -0.1242 -0.6280
 1027TIP3    H124496   5.347   3.974  16.941  0.7405 -0.9517  0.3888
 1027TIP3    H224497   5.338   3.954  16.791 -2.3297 -0.4008  0.4344
 1028TIP3   OH224498   0.249   5.884  11.774 -0.3115 -0.1200 -0.2232
 1028TIP3    H124499   0.200   5.851  11.698 -1.6430  2.6905 -0.6885
 1028TIP3    H224500   0.341   5.876  11.748 -0.7015 -0.5393 -1.5439
 1029TIP3   OH224501   5.757   0.535  14.464  0.2150  0.3586 -0.1188
 1029TIP3    H124502   5.666   0.506  14.475  0.5079 -0.3382  0.4979
 1029TIP3    H224503   5.808   0.455  14.455  0.9460  0.6675  0.9799
 1030TIP3   OH224504   3.878   0.078  14.915 -0.4105 -0.2828 -0.2544
 1030TIP3    H124505   3.906   0.089  14.824  0.0700  0.6294 -0.0120
 1030TIP3    H224506   3.937   0.011  14.951 -2.1236 -2.4352 -1.2314
 1031TIP3   OH224507   4.413   2.132  17.224 -0.1496  0.1030 -0.6441
 1031TIP3    H124508   4.338   2.191  17.219 -0.2784 -0.0055 -0.0764
 1031TIP3    H224509   4.376   2.044  17.211 -0.0270  0.1050 -1.0147
 1032TIP3   OH224510   2.648   0.814  11.878  0.4738  0.1421  0.3149
 1032TIP3    H124511   2.576   0.797  11.938  0.6139  0.4405  0.5663
 1032TIP3    H224512   2.609   0.866  11.807  0.6924  1.3439  1.0505
 1033TIP3   OH224513   0.119   0.001   3.394  0.0588  0.0162  0.0607
 1033TIP3    H124514   0.059  -0.036   3.329 -1.7265 -0.8191  2.0731
 1033TIP3    H224515   0.078   0.084   3.420  0.3503 -0.0197  0.6538
 1034TIP3   OH224516   4.645   0.587  17.303 -0.1175  0.6960 -0.2550
 1034TIP3    H124517   4.560   0.630  17.297  0.5643  2.2154  0.3311
 1034TIP3    H224518   4.659   0.575  17.397 -0.4727 -1.2515 -0.4223
 1035TIP3   OH224519   5.101   3.337  13.858  0.3412 -0.5998 -0.0114
 1035TIP3    H124520   5.124   3.359  13.948 -0.1761  0.2077 -0.0638
 1035TIP3    H224521   5.091   3.242  13.859 -2.0544 -0.4098  1.3793
 1036TIP3   OH224522   1.260   0.206   3.682 -0.2981  0.1491 -0.0591
 1036TIP3    H124523   1.338   0.204   3.628 -0.7900  0.1558 -0.7869
 1036TIP3    H224524   1.211   0.283   3.652 -1.2565 -0.6407 -0.5874
 1037TIP3   OH224525   5.830   6.071  13.583 -1.1311 -0.1573  0.4685
 1037TIP3    H124526   5.808   5.978  13.591  0.3733 -0.7613 -1.6064
 1037TIP3    H224527   5.892   6.087  13.654 -1.0416 -0.8863  0.5654
 1038TIP3   OH224528   1.684   1.712   6.594 -0.0855  0.1050 -0.0755
 1038TIP3    H124529   1.633   1.793   6.585  1.6105  1.1034 -1.3127
 1038TIP3    H224530   1.775   1.741   6.589  0.5647 -1.8977 -0.5882
 1039TIP3   OH224531   5.169   2.772  15.869 -0.0365 -0.7313  0.3199
 1039TIP3    H124532   5.174   2.676  15.868 -1.3091 -0.8211  0.5168
 1039TIP3    H224533   5.179   2.797  15.777  2.4391 -0.8761  0.4865
 1040TIP3   OH224534   4.111   3.912   5.170 -0.0337  0.5566 -0.4854
 1040TIP3    H124535   4.142   3.831   5.129 -0.9775 -0.0571 -0.0158
 1040TIP3    H224536   4.171   3.926   5.243 -0.7405 -0.5569  0.3472
 1041TIP3   OH224537   0.047   4.353   0.204  0.1820  0.0340 -0.8146
 1041TIP3    H124538   0.108   4.350   0.278 -0.0185 -1.1762 -0.6819
 1041TIP3    H224539  -0.005   4.274   0.212 -0.8079  0.5975 -1.4570
 1042TIP3   OH224540   4.243   3.913   4.020 -0.0437 -0.3068  0.1893
 1042TIP3    H124541   4.176   3.922   4.088  0.3547  0.9823  0.4510
 1042TIP3    H224542   4.296   3.993   4.029  0.9566 -0.8639 -0.6203
 1043TIP3   OH224543   5.379   3.176  16.813 -1.0396 -0.4859  0.0377
 1043TIP3    H124544   5.319   3.200  16.883 -0.1363 -0.3155  0.7822
 1043TIP3    H224545   5.465   3.172  16.855 -0.7316 -2.2740 -0.6541
 1044TIP3   OH224546   4.061   3.532  14.560 -0.4825  0.4287  0.3975
 1044TIP3    H124547   4.106   3.597  14.614 -0.1086 -0.6532  1.4401
 1044TIP3    H224548   4.044   3.459  14.620  0.7381 -1.1871 -1.1109
 1045TIP3   OH224549   2.293   0.059   0.802 -0.1881  0.0364  0.5872
 1045TIP3    H124550   2.217   0.115   0.817  0.5249  0.6935  1.9817
 1045TIP3    H224551   2.354   0.083   0.872  1.5288 -0.0788 -0.7915
 1046TIP3   OH224552   5.563   5.161  16.732 -0.6104  0.9462  0.0829
 1046TIP3    H124553   5.627   5.121  16.673 -1.2767  0.2844 -0.2168
 1046TIP3    H224554   5.571   5.255  16.716 -1.2782  0.7557 -1.6372
 1047TIP3   OH224555   2.651   3.843   4.493 -0.5499  0.1135  0.3215
 1047TIP3    H124556   2.719   3.806   4.437  0.0858  1.4836  0.1551
 1047TIP3    H224557   2.580   3.778   4.490 -0.0287 -0.4356 -1.0508
 1048TIP3   OH224558   2.963   6.159  15.910  0.1759 -0.3822  0.4295
 1048TIP3    H124559   3.048   6.147  15.953  0.1981  0.7638  0.7451
 1048TIP3    H224560   2.952   6.254  15.904 -0.5645 -0.5124 -0.6639
 1049TIP3   OH224561   1.982   4.216   4.319  0.2911  0.5149  0.0731
 1049TIP3    H124562   1.976   4.160   4.241  0.0095  0.0216  0.4454
 1049TIP3    H224563   2.076   4.222   4.336  0.3307  0.2708 -0.0485
 1050TIP3   OH224564   0.630   1.970  13.968  0.2311  0.7154  0.1938
 1050TIP3    H124565   0.631   2.062  13.941 -1.2373  1.0067  1.0434
 1050TIP3    H224566   0.613   1.922  13.887  1.4462  1.1230 -0.3403
 1051TIP3   OH224567   2.284   5.286  13.595 -0.2603 -0.3442 -0.5579
 1051TIP3    H124568   2.215   5.226  13.623 -0.2492 -0.0504  0.1362
 1051TIP3    H224569   2.346   5.286  13.668 -0.6892  1.1682 -0.1538
 1052TIP3   OH224570   1.873   5.188  10.779 -0.0825 -0.1575 -0.2762
 1052TIP3    H124571   1.862   5.134  10.858 -0.1257  0.5359  0.2065
 1052TIP3    H224572   1.927   5.135  10.721 -0.1506 -0.7322  0.1733
 1053TIP3   OH224573   1.291   2.741   6.584  0.0851  0.2991  0.3104
 1053TIP3    H124574   1.265   2.833   6.584 -1.8468 -0.1870 -1.1577
 1053TIP3    H224575   1.305   2.720   6.492  1.1341 -0.7274  0.6868
 1054TIP3   OH224576   3.809   2.113   5.747  0.5948  0.3487 -0.0302
 1054TIP3    H124577   3.767   2.049   5.689 -0.0301 -0.1317  0.9204
 1054TIP3    H224578   3.737   2.150   5.798  0.9186  1.9978 -0.7053
 1055TIP3   OH224579   6.061   5.788   3.959 -0.6529  0.4975  0.5254
 1055TIP3    H124580   6.049   5.762   4.050  2.5035 -1.2248  0.6013
 1055TIP3    H224581   6.131   5.731   3.927  0.0228  2.6613 -2.2795
 1056TIP3   OH224582   4.901   4.392   1.457  0.2570 -0.1195  0.4232
 1056TIP3    H124583   4.934   4.482   1.454  2.2170 -0.8177 -0.8615
 1056TIP3    H224584   4.952   4.345   1.390 -2.4124 -1.6681 -0.6651
 1057TIP3   OH224585   5.691   4.868  13.959 -0.1918  0.3441 -1.1790
 1057TIP3    H124586   5.622   4.931  13.981  0.1038  0.9430 -1.9334
 1057TIP3    H224587   5.718   4.833  14.044 -0.3322  1.2642 -0.7312
 1058TIP3   OH224588   0.955   4.787   0.445 -0.1637 -0.3933  0.7800
 1058TIP3    H124589   0.971   4.876   0.415  1.1918 -0.4531  1.2695
 1058TIP3    H224590   0.866   4.789   0.481  0.1769  0.9852  1.5795
 1059TIP3   OH224591   5.499   0.605  12.062  0.0234  0.0896 -0.2663
 1059TIP3    H124592   5.517   0.530  12.005  0.2997 -0.0458 -0.0045
 1059TIP3    H224593   5.410   0.632  12.039  0.2283  0.2119 -0.9581
 1060TIP3   OH224594   2.856   4.094   5.877 -0.9079  0.1185 -0.4810
 1060TIP3    H124595   2.779   4.096   5.934  0.4335  1.1454  1.4064
 1060TIP3    H224596   2.854   4.177   5.831 -0.4052  0.6250  0.3735
 1061TIP3   OH224597   1.809   0.800  12.405  0.3904  0.6828 -0.0022
 1061TIP3    H124598   1.881   0.841  12.453 -1.4875 -0.3155  4.1926
 1061TIP3    H224599   1.827   0.706  12.412  0.1991  0.4982 -1.6738
 1062TIP3   OH224600   4.188   4.943  12.051 -0.2910  0.0567  0.3045
 1062TIP3    H124601   4.274   4.911  12.077 -0.5094  0.4998  1.6295
 1062TIP3    H224602   4.203   4.985  11.966  0.9619  0.8517  0.9022
 1063TIP3   OH224603   5.114   4.740   4.419 -0.1075 -0.4523  0.0163
 1063TIP3    H124604   5.140   4.831   4.410 -0.2381 -0.5496 -1.6511
 1063TIP3    H224605   5.190   4.697   4.459  1.0005 -0.0875 -1.6121
 1064TIP3   OH224606   0.722   2.839   1.750  0.4690  0.5814  0.4609
 1064TIP3    H124607   0.722   2.927   1.713 -0.4989  0.5027  0.2517
 1064TIP3    H224608   0.633   2.826   1.782  0.2787 -0.7378 -0.5088
 1065TIP3   OH224609   0.432   4.754  14.094 -0.1263  0.4902 -0.2704
 1065TIP3    H124610   0.385   4.779  14.174  0.7733  2.0290 -0.1944
 1065TIP3    H224611   0.362   4.733  14.031 -0.8621  0.4546  0.5281
 1066TIP3   OH224612   3.183   0.614  14.511  0.4574  0.2958 -0.3156
 1066TIP3    H124613   3.262   0.576  14.550 -0.6487 -1.4191  0.3406
 1066TIP3    H224614   3.162   0.688  14.568  0.5889 -0.3373  0.5802
 1067TIP3   OH224615   6.507   4.137   2.429 -0.1359  0.2946  0.2539
 1067TIP3    H124616   6.437   4.072   2.441  1.0754 -1.0409  0.3527
 1067TIP3    H224617   6.473   4.217   2.470 -1.5441 -0.3498  0.4099
 1068TIP3   OH224618   0.816   4.344  12.294 -0.3700  0.1783 -0.5962
 1068TIP3    H124619   0.727   4.377  12.303 -0.5428 -0.4910  0.2710
 1068TIP3    H224620   0.847   4.334  12.384 -0.2244 -1.7118 -0.8174
 1069TIP3   OH224621   1.844   0.380  16.239  0.0701 -0.7231  0.2051
 1069TIP3    H124622   1.929   0.339  16.220 -0.8018 -2.4518 -0.1953
 1069TIP3    H224623   1.825   0.354  16.329 -0.9723 -2.1988 -0.3909
 1070TIP3   OH224624   3.567   2.525  12.340  0.0980 -0.3288  0.2414
 1070TIP3    H124625   3.549   2.598  12.400 -0.1176 -1.8790  2.1722
 1070TIP3    H224626   3.658   2.537  12.314 -0.2010  1.1152 -0.2345
 1071TIP3   OH224627   6.687   6.438   5.813 -0.7381 -0.5728 -0.3199
 1071TIP3    H124628   6.658   6.415   5.725 -1.3345 -0.9604 -0.0300
 1071TIP3    H224629   6.760   6.498   5.799 -0.5509 -0.9585 -1.0788
 1072TIP3   OH224630   5.507   3.438  13.961 -0.8694 -0.1935 -0.4104
 1072TIP3    H124631   5.530   3.354  13.921 -0.7535 -1.9208  2.8791
 1072TIP3    H224632   5.592   3.478  13.982 -0.8509 -0.7988  0.7911
 1073TIP3   OH224633   1.749   4.829  10.794 -0.4956  0.4253  0.4855
 1073TIP3    H124634   1.828   4.883  10.806 -1.3663  1.4723  1.8292
 1073TIP3    H224635   1.685   4.889  10.756 -1.1885  0.0864  1.1057
 1074TIP3   OH224636   1.328   0.972   1.321  0.0186 -0.1845 -0.0181
 1074TIP3    H124637   1.269   0.913   1.367 -0.4554  0.6754  0.4962
 1074TIP3    H224638   1.279   1.053   1.312  1.3501  0.7757  1.0351
 1075TIP3   OH224639   3.051   1.585   1.897 -0.0454  0.0584  0.2584
 1075TIP3    H124640   3.111   1.643   1.851 -1.0251  0.4518 -0.5481
 1075TIP3    H224641   3.072   1.498   1.865  1.1172  0.0034  1.1260
 1076TIP3   OH224642   3.072   4.744   2.101  0.1484 -0.0081 -0.0988
 1076TIP3    H124643   3.013   4.672   2.075 -1.5151  1.4275 -0.4492
 1076TIP3    H224644   3.087   4.792   2.020  0.2080  0.7845  0.3801
 1077TIP3   OH224645   0.803   0.044  11.879  0.3802  0.6319  0.4658
 1077TIP3    H124646   0.854   0.111  11.925  0.9479 -0.0043  0.7921
 1077TIP3    H224647   0.719   0.042  11.924  0.9500 -0.0221  1.5456
 1078TIP3   OH224648   3.327   3.868  15.063  0.4520 -0.2767  0.6931
 1078TIP3    H124649   3.265   3.797  15.046 -1.3981  1.2502  0.7301
 1078TIP3    H224650   3.361   3.849  15.151 -2.3448  0.3919  2.0559
 1079TIP3   OH224651   2.400   0.114  10.832  0.4543 -0.6379 -0.2920
 1079TIP3    H124652   2.428   0.145  10.746  0.0697 -2.5263 -1.1369
 1079TIP3    H224653   2.307   0.095  10.821 -0.0491  0.8202  1.0865
 1080TIP3   OH224654   4.103   1.431   3.679 -0.4394 -0.0587 -0.2155
 1080TIP3    H124655   4.073   1.520   3.664 -1.3572 -0.0935  1.2525
 1080TIP3    H224656   4.150   1.408   3.599 -2.0509  0.9566 -1.5146
 1081TIP3   OH224657   1.100   2.842   0.504  0.1900  0.4693 -0.0335
 1081TIP3    H124658   1.084   2.876   0.416  0.6168  0.9834  0.0843
 1081TIP3    H224659   1.066   2.752   0.501 -2.0055  1.2539 -0.0015
 1082TIP3   OH224660   5.193   1.599  11.429 -0.5231 -0.3192  0.1887
 1082TIP3    H124661   5.140   1.610  11.508 -1.5583  0.8636 -0.6516
 1082TIP3    H224662   5.187   1.683  11.383 -0.7185 -1.2687 -1.6208
 1083TIP3   OH224663   1.100   6.694  16.659  0.3040 -0.2078  0.2876
 1083TIP3    H124664   1.071   6.662  16.574 -0.9831 -0.4214  0.7837
 1083TIP3    H224665   1.171   6.635  16.684  1.1069  0.2273 -0.8908
 1084TIP3   OH224666   5.478   5.678   6.105  0.1040  0.0258  0.1307
 1084TIP3    H124667   5.498   5.771   6.092 -1.6429  0.3506 -0.5086
 1084TIP3    H224668   5.406   5.677   6.168  1.0516 -0.9960  1.2505
 1085TIP3   OH224669   0.361   2.907  16.530  0.1668  0.1311  0.2796
 1085TIP3    H124670   0.410   2.982  16.562  0.4604 -0.0692  0.2997
 1085TIP3    H224671   0.428   2.845  16.500 -0.0647 -0.2434  0.5286
 1086TIP3   OH224672   2.514   6.644   3.972 -0.2707  0.1448 -0.2596
 1086TIP3    H124673   2.511   6.601   4.057 -2.1702  1.6907  0.5528
 1086TIP3    H224674   2.448   6.598   3.920 -0.7733  0.6625 -0.0955
 1087TIP3   OH224675   2.184   5.067  12.082  0.2072 -0.3365 -0.2447
 1087TIP3    H124676   2.143   4.991  12.123 -0.9332 -0.0414 -0.7994
 1087TIP3    H224677   2.185   5.133  12.151  1.7815 -1.0162  0.4368
 1088TIP3   OH224678   1.793   3.769  17.268 -0.6588  0.6754 -0.3312
 1088TIP3    H124679   1.766   3.751  17.358 -0.5228  1.5166 -0.1087
 1088TIP3    H224680   1.728   3.724  17.214  0.7801 -2.1624  0.1200
 1089TIP3   OH224681   3.994   5.671   4.001 -0.1651 -0.0623 -0.1906
 1089TIP3    H124682   3.952   5.744   4.047 -1.2809 -0.5042 -0.4966
 1089TIP3    H224683   3.936   5.596   4.017 -0.3324 -0.3279 -1.9409
 1090TIP3   OH224684   1.345   1.328   5.138 -0.4056  0.2889  0.2189
 1090TIP3    H124685   1.281   1.375   5.191  0.9556  2.5609  0.0180
 1090TIP3    H224686   1.423   1.322   5.194  0.3395  0.7868 -0.7232
 1091TIP3   OH224687   4.276   2.275  11.532  0.2633  0.0450  0.4846
 1091TIP3    H124688   4.286   2.370  11.522 -0.4397  0.4244  2.8100
 1091TIP3    H224689   4.185   2.263  11.557 -0.1627 -1.4802 -1.5133
 1092TIP3   OH224690   4.548   5.376  14.434  0.2697  0.4776 -0.4702
 1092TIP3    H124691   4.527   5.298  14.383  1.6793 -0.6618  0.6428
 1092TIP3    H224692   4.578   5.440  14.369 -2.3216  0.6990 -1.5825
 1093TIP3   OH224693   1.356   6.746   4.280 -0.3978  0.2695 -0.0870
 1093TIP3    H124694   1.418   6.818   4.282 -2.6308  2.3152  1.6176
 1093TIP3    H224695   1.395   6.681   4.221  3.6855  0.9834  1.5467
 1094TIP3   OH224696   0.732   0.331  13.120  0.0154 -0.1147  0.2385
 1094TIP3    H124697   0.713   0.315  13.028  0.8483  0.8070 -0.1171
 1094TIP3    H224698   0.653   0.303  13.166  0.1610 -2.0211 -0.5882
 1095TIP3   OH224699   1.707   2.562  15.738  0.0622 -0.3026 -0.3845
 1095TIP3    H124700   1.672   2.509  15.667  0.8682  1.3084 -2.0772
 1095TIP3    H224701   1.799   2.573  15.717  0.4031 -0.0315  1.1049
 1096TIP3   OH224702   2.938   2.274   6.586  0.5121 -0.1878 -0.2044
 1096TIP3    H124703   3.007   2.247   6.646  0.7680 -0.1234 -0.4701
 1096TIP3    H224704   2.922   2.198   6.530  1.3035  0.2280 -1.0190
 1097TIP3   OH224705   6.679   1.688  16.267 -0.0898  0.5154 -0.4164
 1097TIP3    H124706   6.714   1.763  16.316  0.9535 -0.5448  0.5055
 1097TIP3    H224707   6.714   1.699  16.179  2.6146 -0.4638  0.4503
 1098TIP3   OH224708   1.505   0.084   3.958 -0.0379  0.1237 -0.0810
 1098TIP3    H124709   1.514   0.085   3.862  0.4073 -1.4633 -0.0813
 1098TIP3    H224710   1.589   0.117   3.989 -0.2272  0.7596 -0.2363
 1099TIP3   OH224711   1.914   1.303  15.600 -0.4111  0.1273 -0.5465
 1099TIP3    H124712   1.929   1.365  15.528 -3.6042  1.3559 -0.2809
 1099TIP3    H224713   1.849   1.241  15.566 -0.2423 -0.6887  0.5515
 1100TIP3   OH224714   5.518   2.756   3.804  0.1599 -0.3597  0.3095
 1100TIP3    H124715   5.481   2.826   3.750  1.2013  0.4257  0.5895
 1100TIP3    H224716   5.470   2.678   3.777 -0.3426  0.2788 -0.7132
 1101TIP3   OH224717   0.942   1.473   3.326  0.0987 -0.1765  0.2967
 1101TIP3    H124718   0.925   1.562   3.297  0.2097  0.0002  0.7604
 1101TIP3    H224719   1.024   1.449   3.285  1.3838  0.8524  2.1213
 1102TIP3   OH224720   3.873   6.195  16.387 -0.5063 -0.0404  0.2929
 1102TIP3    H124721   3.790   6.163  16.353  0.5791 -2.1713 -0.5074
 1102TIP3    H224722   3.870   6.175  16.480 -1.2510  0.7565  0.4519
 1103TIP3   OH224723   3.559   5.952  12.362  0.1650  0.3891 -0.4370
 1103TIP3    H124724   3.632   6.008  12.387  1.7477 -1.4723 -0.6044
 1103TIP3    H224725   3.579   5.925  12.272  0.9592 -2.5101  0.4794
 1104TIP3   OH224726   3.460   0.337   4.803  0.3662  0.5145  0.1034
 1104TIP3    H124727   3.538   0.283   4.819 -1.2846 -2.3263 -0.7887
 1104TIP3    H224728   3.472   0.370   4.714 -0.0449 -1.1908 -0.6428
 1105TIP3   OH224729   0.978   6.004   4.651  0.0831 -0.7134  0.0796
 1105TIP3    H124730   0.936   6.080   4.692 -1.7291  0.2872 -3.2080
 1105TIP3    H224731   0.905   5.947   4.628  1.2234 -2.3320  0.3574
 1106TIP3   OH224732   0.175   2.151   6.188 -0.1764 -0.4459 -0.0493
 1106TIP3    H124733   0.179   2.056   6.194 -1.0048 -0.3926  2.1838
 1106TIP3    H224734   0.093   2.169   6.142 -2.0924 -0.8468  2.9634
 1107TIP3   OH224735   5.143   5.941  12.463 -0.3852 -0.0257  0.1773
 1107TIP3    H124736   5.126   5.880  12.391 -0.5747 -0.7272  0.8042
 1107TIP3    H224737   5.089   6.017  12.443 -0.3716 -0.1796 -0.4678
 1108TIP3   OH224738   3.980   2.395  15.632  0.2481 -0.4285  0.5203
 1108TIP3    H124739   3.958   2.378  15.723 -4.9145 -1.3287 -0.6108
 1108TIP3    H224740   3.978   2.309  15.590  1.6401  0.0759 -0.6940
 1109TIP3   OH224741   3.736   4.429   1.710  0.0631 -0.2006  0.5259
 1109TIP3    H124742   3.698   4.355   1.757 -3.9217 -0.1395 -2.1203
 1109TIP3    H224743   3.782   4.390   1.636 -0.8175 -0.1590 -0.0666
 1110TIP3   OH224744   3.548   1.366  13.063 -0.5180  0.0555  0.2033
 1110TIP3    H124745   3.512   1.339  12.978  0.1927  1.2294 -0.4920
 1110TIP3    H224746   3.613   1.433  13.042  0.6178 -0.5499  1.5820
 1111TIP3   OH224747   1.026   2.028  15.484 -0.8954  0.1054  0.6115
 1111TIP3    H124748   0.971   2.091  15.532  0.1252 -0.5087  2.6795
 1111TIP3    H224749   0.963   1.972  15.438 -1.8657  1.6944 -0.0976
 1112TIP3   OH224750   4.798   6.513   4.914  0.7307  0.3536  0.2812
 1112TIP3    H124751   4.883   6.557   4.912  0.0901  1.6385 -1.7808
 1112TIP3    H224752   4.791   6.469   4.830 -0.1242 -0.8317  0.9369
 1113TIP3   OH224753   6.471   0.182   4.930  0.3894  0.1377  0.4042
 1113TIP3    H124754   6.518   0.242   4.872 -0.1935  0.7319  0.5358
 1113TIP3    H224755   6.379   0.210   4.925 -0.4143 -2.5129 -1.7553
 1114TIP3   OH224756   2.173   3.863  13.815 -0.3415  0.2585 -0.2309
 1114TIP3    H124757   2.151   3.795  13.879  0.2464 -0.0020 -0.2998
 1114TIP3    H224758   2.088   3.899  13.789 -0.5765  0.5952  0.9363
 1115TIP3   OH224759   1.077   2.583  11.610  0.4087  0.6632 -0.0468
 1115TIP3    H124760   1.112   2.569  11.698  4.8395 -1.4715 -1.8198
 1115TIP3    H224761   1.002   2.524  11.604 -0.8908  1.8991  2.6258
 1116TIP3   OH224762   3.244   3.947  12.057  0.4467  0.8406 -0.3411
 1116TIP3    H124763   3.151   3.940  12.081  0.4290 -0.3353 -0.6380
 1116TIP3    H224764   3.291   3.937  12.139  0.3093  1.6843 -0.1549
 1117TIP3   OH224765   2.336   4.245  14.896  0.5699  0.0572 -0.3607
 1117TIP3    H124766   2.255   4.240  14.845  0.3732 -1.2100  0.0507
 1117TIP3    H224767   2.399   4.194  14.847  1.3278  1.5198 -0.9844
 1118TIP3   OH224768   1.838   6.073   6.270  0.0575  0.2522 -0.8055
 1118TIP3    H124769   1.923   6.045   6.304 -0.6691  0.2869  1.1384
 1118TIP3    H224770   1.855   6.158   6.229  1.1016 -0.1216 -1.1711
 1119TIP3   OH224771   5.322   1.256  14.139  0.6004 -0.4950  0.2775
 1119TIP3    H124772   5.349   1.249  14.231  0.5130  1.6477  0.5334
 1119TIP3    H224773   5.364   1.182  14.096 -0.4724 -2.3845  2.2474
 1120TIP3   OH224774   2.736   6.746   2.588 -0.3409 -0.5467  0.5483
 1120TIP3    H124775   2.727   6.651   2.600 -0.3821 -0.7036 -0.6092
 1120TIP3    H224776   2.647   6.776   2.570  0.1994 -1.1295 -4.3791
 1121TIP3   OH224777   2.598   0.236   5.616 -0.5382  0.0034 -0.2813
 1121TIP3    H124778   2.506   0.234   5.589 -0.9329 -1.4344  0.9933
 1121TIP3    H224779   2.601   0.299   5.688 -0.6696 -0.4397  0.1153
 1122TIP3   OH224780   1.949   5.497   4.619  0.1426 -0.1837  0.6272
 1122TIP3    H124781   1.892   5.420   4.629  0.5022 -0.2710  2.5283
 1122TIP3    H224782   1.962   5.528   4.709  0.2441  1.9445 -0.0694
 1123TIP3   OH224783   1.019   0.408   4.473 -0.4995 -0.2044  0.3894
 1123TIP3    H124784   1.104   0.378   4.442 -0.2669 -0.1788  0.9993
 1123TIP3    H224785   1.039   0.482   4.531 -0.9535 -0.0492  0.3538
 1124TIP3   OH224786   0.089   5.133  14.198 -0.5502 -0.0046 -0.1787
 1124TIP3    H124787   0.184   5.139  14.205 -0.2883 -2.7652 -0.0865
 1124TIP3    H224788   0.068   5.175  14.115  0.5081  1.9550  0.4732
 1125TIP3   OH224789   5.910   5.397  15.009  0.3022  0.1630  1.4575
 1125TIP3    H124790   5.950   5.484  15.003 -1.1057  0.7537 -2.5323
 1125TIP3    H224791   5.973   5.339  14.968 -0.9811  0.3715 -0.9710
 1126TIP3   OH224792   1.841   0.962   5.062 -0.4861 -0.1166 -0.0716
 1126TIP3    H124793   1.756   0.990   5.027  0.1443  0.6651 -1.0294
 1126TIP3    H224794   1.902   1.030   5.034  0.6544 -1.1882 -0.3017
 1127TIP3   OH224795   2.682   5.449  13.250  0.3110  0.2501 -0.4577
 1127TIP3    H124796   2.704   5.404  13.331 -1.3140 -0.3099 -0.3048
 1127TIP3    H224797   2.710   5.389  13.181  0.6436  0.2216 -0.3009
 1128TIP3   OH224798   3.221   4.157   4.733 -0.0206 -0.1520 -0.0091
 1128TIP3    H124799   3.155   4.208   4.781  0.2475  1.3918 -1.2130
 1128TIP3    H224800   3.173   4.080   4.702 -0.2826 -1.0669  2.3797
 1129TIP3   OH224801   3.546   2.661  12.624  0.3802  0.5126 -0.0861
 1129TIP3    H124802   3.453   2.682  12.628  0.1905 -0.3890  0.5012
 1129TIP3    H224803   3.550   2.566  12.628  1.3232  0.5395 -0.1372
 1130TIP3   OH224804   5.633   1.581   4.969  0.0080  0.0804 -0.4047
 1130TIP3    H124805   5.580   1.622   5.037  0.9457 -0.4330  0.6628
 1130TIP3    H224806   5.609   1.489   4.971  0.3628 -0.0172 -0.4463
 1131TIP3   OH224807   4.097   3.956   1.969  0.4162  0.2000  0.5106
 1131TIP3    H124808   4.139   3.906   2.040  2.7991 -0.3399 -1.1391
 1131TIP3    H224809   4.087   4.044   2.005 -0.8819 -0.6279  2.3768
 1132TIP3   OH224810   1.102   5.997   5.838 -0.2637 -0.0291 -0.3913
 1132TIP3    H124811   1.038   6.059   5.804 -0.8854 -1.0286 -1.0874
 1132TIP3    H224812   1.051   5.935   5.890  0.1270 -0.8272 -0.9383
 1133TIP3   OH224813   5.211   1.779  15.263  0.2593 -0.2574 -0.6275
 1133TIP3    H124814   5.238   1.794  15.354 -1.5368  1.3574 -0.3072
 1133TIP3    H224815   5.280   1.819  15.211  0.3060  0.5991  0.0760
 1134TIP3   OH224816   6.392   1.681  14.705  0.1745  0.4137  0.0206
 1134TIP3    H124817   6.407   1.755  14.763  1.3998  0.8805 -0.8401
 1134TIP3    H224818   6.458   1.616  14.731 -0.3572 -0.0554  0.2304
 1135TIP3   OH224819   3.899   6.343   1.204 -0.3492 -0.0960  0.3961
 1135TIP3    H124820   3.991   6.362   1.188 -0.2336 -0.2888  0.8321
 1135TIP3    H224821   3.852   6.407   1.150  0.0386  0.9536  1.2721
 1136TIP3   OH224822   6.055   0.651   5.868  0.3215  0.4307 -0.2874
 1136TIP3    H124823   6.091   0.659   5.956  1.4793  0.2751 -0.7304
 1136TIP3    H224824   6.070   0.737   5.828  1.0313  0.1064 -0.7595
 1137TIP3   OH224825   6.502   2.791  15.060 -0.3248 -0.2723  0.4393
 1137TIP3    H124826   6.411   2.814  15.039 -0.1341 -0.0599 -0.1940
 1137TIP3    H224827   6.496   2.742  15.141 -0.8588  1.0554  1.2367
 1138TIP3   OH224828   5.386   4.149   4.656 -0.0206 -0.2581  0.2507
 1138TIP3    H124829   5.366   4.240   4.674 -0.6138 -0.3484  0.0427
 1138TIP3    H224830   5.473   4.151   4.616  0.0455  0.1960  0.4175
 1139TIP3   OH224831   5.891   2.491   5.230 -0.5560  0.3864  0.4393
 1139TIP3    H124832   5.928   2.435   5.163  0.3701  1.1616  0.2841
 1139TIP3    H224833   5.949   2.567   5.233 -0.8483  0.5871  1.7782
 1140TIP3   OH224834   4.734   2.819   4.287  0.0899 -0.5787 -0.1715
 1140TIP3    H124835   4.768   2.771   4.363  1.6832  1.0516  0.2011
 1140TIP3    H224836   4.680   2.755   4.241  0.9895 -2.3071  1.0550
 1141TIP3   OH224837   0.524   0.883  16.702  0.1747 -0.6376  0.6203
 1141TIP3    H124838   0.535   0.898  16.608  2.1486 -0.5450  0.8110
 1141TIP3    H224839   0.442   0.834  16.709  0.2805 -1.1709 -1.1941
 1142TIP3   OH224840   4.904   3.114  12.233 -0.5403 -1.1734  0.0764
 1142TIP3    H124841   4.934   3.052  12.299  2.1129  0.3771  0.4704
 1142TIP3    H224842   4.809   3.113  12.240 -0.4001 -2.3088  2.7353
 1143TIP3   OH224843   3.569   6.557  16.516 -0.2402 -0.3070  0.2354
 1143TIP3    H124844   3.595   6.515  16.434 -0.8756  0.7425 -0.5318
 1143TIP3    H224845   3.631   6.523  16.581  1.4880  0.2681 -1.0283
 1144TIP3   OH224846   1.578   3.278  14.526  0.0251 -0.6185  0.1458
 1144TIP3    H124847   1.648   3.214  14.517  2.0534  0.9524  3.1198
 1144TIP3    H224848   1.535   3.256  14.608  0.3623  1.3734  0.9132
 1145TIP3   OH224849   0.586   0.670  12.247 -0.1175 -0.4419 -0.0537
 1145TIP3    H124850   0.530   0.675  12.170  0.1511  4.6041 -0.2963
 1145TIP3    H224851   0.530   0.698  12.319  0.3867 -2.1973  1.0603
 1146TIP3   OH224852   5.920   0.804  11.351  0.1473  0.3896 -0.2529
 1146TIP3    H124853   5.860   0.811  11.276 -0.0652 -0.0088 -0.1237
 1146TIP3    H224854   5.871   0.839  11.425  0.2724  0.5682 -0.2554
 1147TIP3   OH224855   1.220   4.351   3.414 -0.0246 -0.0181  0.6664
 1147TIP3    H124856   1.249   4.305   3.335 -0.4533  2.8469 -1.3229
 1147TIP3    H224857   1.301   4.376   3.458  0.2146 -2.3414  1.6937
 1148TIP3   OH224858   2.932   4.250  15.638  0.0269  0.0066  0.3051
 1148TIP3    H124859   3.003   4.292  15.686  0.5463  0.8869 -1.1856
 1148TIP3    H224860   2.915   4.169  15.686  0.4988  0.8521  1.9689
 1149TIP3   OH224861   5.221   5.411  16.723 -0.0597 -0.5980  0.4581
 1149TIP3    H124862   5.237   5.448  16.810  0.2319 -1.9267  0.9978
 1149TIP3    H224863   5.287   5.452  16.667 -0.4258  0.4754  0.7962
 1150TIP3   OH224864   5.505   0.030  16.558  0.3827 -0.6063 -0.5269
 1150TIP3    H124865   5.464   0.059  16.476  2.1016  0.0735 -1.1950
 1150TIP3    H224866   5.528   0.111  16.603  1.7127 -0.9447 -0.5687
 1151TIP3   OH224867   1.925   4.961   0.549  0.0306 -0.3128  0.3129
 1151TIP3    H124868   1.951   4.911   0.472 -0.1710  1.0219 -0.6504
 1151TIP3    H224869   1.848   4.916   0.582 -1.0377  0.1645 -1.4000
 1152TIP3   OH224870   6.613   4.516   0.666  0.0065 -0.0096  0.0878
 1152TIP3    H124871   6.545   4.572   0.628  0.4027  0.6932  0.4030
 1152TIP3    H224872   6.643   4.564   0.743 -0.5792 -1.2859  1.1393
 1153TIP3   OH224873   0.027   3.926  16.453  0.6028 -0.1466  0.2976
 1153TIP3    H124874  -0.026   3.991  16.407  0.5798 -0.1366  0.3391
 1153TIP3    H224875   0.117   3.946  16.427  0.4848 -1.0240 -0.8508
 1154TIP3   OH224876   1.641   3.867  12.988 -0.0048 -0.1953  0.5054
 1154TIP3    H124877   1.567   3.806  12.987  1.0540 -1.5717  1.7747
 1154TIP3    H224878   1.616   3.936  12.926 -1.1390 -2.0293 -1.1927
 1155TIP3   OH224879   2.168   5.283  12.252 -0.0252 -0.0152 -0.1766
 1155TIP3    H124880   2.200   5.347  12.314  1.1017 -1.0041  0.3102
 1155TIP3    H224881   2.086   5.251  12.290  0.8483 -0.8905  1.0274
 1156TIP3   OH224882   1.433   0.382   1.397  0.3182  0.1410 -0.5355
 1156TIP3    H124883   1.521   0.409   1.371  0.4545  0.0366 -0.1868
 1156TIP3    H224884   1.393   0.349   1.316  0.3722  0.7893 -0.8275
 1157TIP3   OH224885   1.328   5.259   0.336  0.1763  0.2815 -0.1505
 1157TIP3    H124886   1.303   5.187   0.394 -0.4380  0.6103  0.0017
 1157TIP3    H224887   1.406   5.297   0.376  1.6725 -1.4553 -1.2157
 1158TIP3   OH224888   2.344   2.278  14.900 -0.2202 -0.1273  0.0948
 1158TIP3    H124889   2.341   2.368  14.933 -2.2413 -0.4975  1.1217
 1158TIP3    H224890   2.299   2.227  14.967 -0.7333 -1.6269 -1.3223
 1159TIP3   OH224891   5.761   5.809  15.069 -0.1688  0.1302  0.4047
 1159TIP3    H124892   5.738   5.894  15.106  2.8293  0.5355  1.6156
 1159TIP3    H224893   5.793   5.758  15.144 -2.0155 -2.1852 -0.2527
 1160TIP3   OH224894   3.998   5.927   0.482 -0.2267  0.2967 -0.0776
 1160TIP3    H124895   4.050   5.846   0.485 -1.3197 -0.4095  1.1218
 1160TIP3    H224896   3.997   5.958   0.572 -1.5763  0.4808 -0.1427
 1161TIP3   OH224897   4.419   4.809  13.992  0.9104 -0.2440 -0.7968
 1161TIP3    H124898   4.430   4.904  14.004  3.6010 -0.3885 -1.5526
 1161TIP3    H224899   4.410   4.775  14.080  0.2773  0.6757 -0.4899
 1162TIP3   OH224900   0.199   1.207  16.235  0.0884 -0.4715 -0.5781
 1162TIP3    H124901   0.218   1.115  16.214  0.2774 -0.2061 -1.6404
 1162TIP3    H224902   0.285   1.250  16.233 -0.0599 -0.1745 -0.6284
 1163TIP3   OH224903   1.415   3.318   4.454  0.0570  0.3227 -0.0005
 1163TIP3    H124904   1.331   3.356   4.428 -0.3404  0.9319  1.9642
 1163TIP3    H224905   1.399   3.283   4.541  1.7135 -0.0087  0.1959
 1164TIP3   OH224906   0.531   6.475  14.602 -0.8306  0.0432  0.0649
 1164TIP3    H124907   0.488   6.390  14.596 -1.1595  0.0077  2.2088
 1164TIP3    H224908   0.492   6.517  14.679  2.2576  0.3563  1.6485
 1165TIP3   OH224909   2.322   4.315   2.200 -0.0092  0.0520 -0.4351
 1165TIP3    H124910   2.293   4.393   2.246 -0.6588 -0.4021 -0.0449
 1165TIP3    H224911   2.411   4.334   2.171 -0.2740  1.0483 -0.6205
 1166TIP3   OH224912   3.968   4.896  11.755 -0.2044  0.2817  0.3585
 1166TIP3    H124913   3.927   4.825  11.707  1.7402 -0.7532  0.1370
 1166TIP3    H224914   3.954   4.973  11.700 -0.1934 -0.4062 -0.6331
 1167TIP3   OH224915   3.143   5.219  15.718 -0.2296 -0.8329 -0.0170
 1167TIP3    H124916   3.059   5.233  15.675  0.7210  3.1078 -1.0459
 1167TIP3    H224917   3.200   5.184  15.649  0.2985  1.8714 -1.0865
 1168TIP3   OH224918   4.996   2.451  16.704 -0.7908 -0.7439 -0.3863
 1168TIP3    H124919   5.072   2.508  16.716 -0.0386 -0.9081 -3.5997
 1168TIP3    H224920   4.936   2.478  16.773  1.7142  0.1200  1.6309
 1169TIP3   OH224921   4.044   2.948  13.752  0.4861 -0.8833  0.0165
 1169TIP3    H124922   4.063   2.855  13.744  2.2417 -0.6166  0.7798
 1169TIP3    H224923   4.100   2.979  13.823 -0.3027  0.6996  0.0072
 1170TIP3   OH224924   0.609   3.934   2.008  0.0941  0.3604  0.1631
 1170TIP3    H124925   0.518   3.909   1.997  0.2009 -0.1166  0.3202
 1170TIP3    H224926   0.606   4.018   2.055 -0.2428 -0.7848  2.3147
 1171TIP3   OH224927   4.225   4.591   4.222 -0.1420 -0.1438  0.0337
 1171TIP3    H124928   4.259   4.678   4.199 -1.3075  0.2452 -0.2846
 1171TIP3    H224929   4.154   4.576   4.160  0.2567 -1.4882 -0.1370
 1172TIP3   OH224930   4.524   5.315  12.357  0.1554  0.4969 -0.0495
 1172TIP3    H124931   4.460   5.384  12.372  0.9237  1.0106  1.0081
 1172TIP3    H224932   4.471   5.237  12.337 -0.7524  1.1428 -0.2230
 1173TIP3   OH224933   6.489   3.840  12.627 -0.1844 -0.4703  0.0644
 1173TIP3    H124934   6.560   3.904  12.633 -0.0225 -0.6578  0.1960
 1173TIP3    H224935   6.409   3.892  12.630 -0.0532 -0.1658 -1.2531
 1174TIP3   OH224936   2.502   1.660   6.476  0.4521 -0.2657  0.1066
 1174TIP3    H124937   2.543   1.710   6.405  0.9405  0.0419  0.5935
 1174TIP3    H224938   2.505   1.719   6.552 -0.6862 -0.3288  0.2233
 1175TIP3   OH224939   0.459   5.336  15.624  0.0248 -0.0508  0.5175
 1175TIP3    H124940   0.536   5.391  15.612  0.2387 -0.5313 -0.4576
 1175TIP3    H224941   0.432   5.314  15.535 -3.3323  2.9294  0.5612
 1176TIP3   OH224942   5.539   2.586  14.702  0.7587 -0.3057  0.1017
 1176TIP3    H124943   5.555   2.643  14.626  0.5751 -0.0519  0.2497
 1176TIP3    H224944   5.489   2.513  14.667 -0.2013  0.3052  0.1460
 1177TIP3   OH224945   3.941   0.368  13.217 -0.0183  0.4659  0.5629
 1177TIP3    H124946   4.002   0.319  13.162  0.7102  0.9179  0.9628
 1177TIP3    H224947   3.860   0.316  13.215  0.2822  0.0170 -0.2031
 1178TIP3   OH224948   6.184   4.818   3.231 -0.2538 -0.3960  0.1435
 1178TIP3    H124949   6.208   4.757   3.301 -0.8114  0.3302  0.9895
 1178TIP3    H224950   6.210   4.904   3.264  0.8066 -0.1840 -1.1651
 1179TIP3   OH224951   3.714   4.791   5.712 -0.1081  0.5190  0.3976
 1179TIP3    H124952   3.807   4.767   5.717 -0.1449 -0.1688 -1.5312
 1179TIP3    H224953   3.671   4.727   5.768  0.3669 -0.6605 -0.5335
 1180TIP3   OH224954   4.237   5.881  16.305  0.6366 -0.4048 -0.0560
 1180TIP3    H124955   4.329   5.896  16.284  1.3583 -0.1733  2.8399
 1180TIP3    H224956   4.217   5.797  16.264  2.0609 -0.3693 -0.8943
 1181TIP3   OH224957   3.692   4.431  15.042 -0.0874 -0.1893 -0.2612
 1181TIP3    H124958   3.740   4.394  15.116 -0.0703  0.6706  0.1701
 1181TIP3    H224959   3.644   4.356  15.005 -1.1628 -0.3895  1.4362
 1182TIP3   OH224960   2.834   0.862  12.894  0.0686 -0.6473 -0.1745
 1182TIP3    H124961   2.791   0.792  12.845 -0.3638 -1.6368  1.5287
 1182TIP3    H224962   2.767   0.928  12.906 -0.1523 -0.9118  0.0520
 1183TIP3   OH224963   4.150   1.473   0.906  0.1705 -0.5295  0.1425
 1183TIP3    H124964   4.065   1.507   0.933 -0.6976 -2.6126  0.1673
 1183TIP3    H224965   4.137   1.446   0.815  0.8875 -0.6272  0.0637
 1184TIP3   OH224966   0.247   5.572  11.860  0.0595 -0.5670  0.2261
 1184TIP3    H124967   0.329   5.544  11.817  0.1818 -1.9150  1.2419
 1184TIP3    H224968   0.230   5.659  11.826  1.4912 -0.5912 -0.6341
 1185TIP3   OH224969   4.557   1.072  10.446  0.0690 -0.7031 -0.0099
 1185TIP3    H124970   4.641   1.030  10.461  0.1603 -0.9041 -0.9833
 1185TIP3    H224971   4.572   1.126  10.368  0.1455  1.6538  1.5119
 1186TIP3   OH224972   0.606   3.429   3.865 -0.4512  0.6465  0.0112
 1186TIP3    H124973   0.588   3.352   3.810 -2.4187  1.2548 -0.2711
 1186TIP3    H224974   0.695   3.415   3.897 -0.9446 -2.0620  0.4669
 1187TIP3   OH224975   1.975   2.131  12.184 -0.0393 -0.5677  0.0083
 1187TIP3    H124976   1.941   2.065  12.124  3.5066 -1.4349 -1.3247
 1187TIP3    H224977   1.937   2.213  12.154 -1.1639 -1.4529 -1.0896
 1188TIP3   OH224978   2.066   2.042  11.312 -0.3022 -0.0834  0.3167
 1188TIP3    H124979   1.976   2.032  11.343 -0.4070 -0.2007 -0.0227
 1188TIP3    H224980   2.067   2.127  11.267 -0.2669 -0.1214  0.2446
 1189TIP3   OH224981   2.613   2.178   0.016 -0.7643 -0.1500  0.8532
 1189TIP3    H124982   2.684   2.199  -0.045 -1.2438  0.7029  0.5706
 1189TIP3    H224983   2.565   2.107  -0.027 -1.6561  1.0767 -0.2350
 1190TIP3   OH224984   3.433   2.319  12.940  0.0823 -0.0002  0.2256
 1190TIP3    H124985   3.365   2.301  13.005 -0.3036 -0.4391 -0.2924
 1190TIP3    H224986   3.503   2.258  12.961  0.2380  0.3190  0.6414
 1191TIP3   OH224987   4.445   3.551  13.829 -0.2856  0.0956  0.7832
 1191TIP3    H124988   4.351   3.538  13.841 -0.0744 -1.0997  1.4133
 1191TIP3    H224989   4.485   3.477  13.876  0.9364  0.0296 -0.2909
 1192TIP3   OH224990   1.719   0.007  14.466 -0.2170 -0.6067 -0.2779
 1192TIP3    H124991   1.640   0.053  14.440 -0.9792 -1.8040 -0.1797
 1192TIP3    H224992   1.695  -0.086  14.465  0.8903 -0.9486  0.7341
 1193TIP3   OH224993   3.854   1.914  17.143 -0.6115  0.0298  0.1769
 1193TIP3    H124994   3.879   1.859  17.068  0.9612 -0.6939  1.1661
 1193TIP3    H224995   3.779   1.964  17.112  0.3205  0.1721 -2.0790
 1194TIP3   OH224996   1.557   2.634   0.418  0.3983 -0.7519  0.0590
 1194TIP3    H124997   1.574   2.550   0.375  0.8718 -0.3614 -0.5109
 1194TIP3    H224998   1.573   2.700   0.351  0.4637 -0.1758  0.6322
 1195TIP3   OH224999   0.007   6.178  16.813 -0.6326  0.3834  0.0176
 1195TIP3    H125000   0.010   6.219  16.899 -0.6818  0.1203  0.1457
 1195TIP3    H225001  -0.069   6.120  16.816 -0.5994  0.3272 -0.1804
 1196TIP3   OH225002   2.528   5.017   0.076  0.1395  0.5971 -0.3681
 1196TIP3    H125003   2.575   5.022   0.159 -0.9631 -0.0077  0.3214
 1196TIP3    H225004   2.536   5.104   0.038 -0.7855  1.4203  1.2068
 1197TIP3   OH225005   1.625   1.918  12.234  0.1761 -0.4915 -0.3896
 1197TIP3    H125006   1.582   2.001  12.215 -0.2129 -0.7623 -0.6959
 1197TIP3    H225007   1.706   1.921  12.182  0.7827  0.2177  0.5483
 1198TIP3   OH225008   6.156   5.825  12.350 -0.3078  0.3790  0.1156
 1198TIP3    H125009   6.132   5.772  12.426  0.5154  1.0842  0.9024
 1198TIP3    H225010   6.151   5.766  12.276 -1.5997 -0.2101  0.6451
 1199TIP3   OH225011   5.630   1.169   1.059  0.2596 -0.3096  0.1674
 1199TIP3    H125012   5.719   1.144   1.032 -0.2069 -0.2635 -1.5653
 1199TIP3    H225013   5.573   1.115   1.004 -0.7701  0.6218  0.2871
 1200TIP3   OH225014   4.591   2.693  16.951 -0.2719 -0.0297 -0.2300
 1200TIP3    H125015   4.579   2.787  16.942  0.9187  0.5539  3.1141
 1200TIP3    H225016   4.507   2.656  16.925 -0.4978  1.7951 -2.4504
 1201TIP3   OH225017   6.351   0.078   1.311  0.5626  0.7741  0.1322
 1201TIP3    H125018   6.386   0.033   1.234  0.3522 -1.8763  1.4440
 1201TIP3    H225019   6.287   0.140   1.277  0.7885 -0.0085 -1.8280
 1202TIP3   OH225020   5.173   5.462  14.643  0.0607  0.4232 -0.4013
 1202TIP3    H125021   5.109   5.533  14.640  0.9374  1.3046  0.7946
 1202TIP3    H225022   5.215   5.465  14.557 -0.0852  1.1844 -0.4568
 1203TIP3   OH225023   3.584   3.755   4.620  0.2250 -0.1521  0.0236
 1203TIP3    H125024   3.539   3.837   4.640  0.2784 -0.0827 -0.1454
 1203TIP3    H225025   3.589   3.709   4.704 -0.6060 -0.3797 -0.0453
 1204TIP3   OH225026   0.939   3.329  15.920  0.1819  0.2453  0.0544
 1204TIP3    H125027   0.912   3.350  16.009  0.2317  0.8131 -0.0650
 1204TIP3    H225028   0.856   3.325  15.871  0.1402 -0.2390  0.1590
 1205TIP3   OH225029   0.005   4.252  14.884  0.1558  0.5585 -0.4938
 1205TIP3    H125030   0.015   4.346  14.873  0.2880  0.7401  0.9334
 1205TIP3    H225031   0.019   4.237  14.978 -0.2844 -0.8249 -0.6189
 1206TIP3   OH225032   3.941   4.564  17.101  0.0297 -0.1983  0.4077
 1206TIP3    H125033   3.940   4.653  17.137 -0.6765  1.4787 -3.3632
 1206TIP3    H225034   4.030   4.553  17.068  0.1751 -1.0460  1.0365
 1207TIP3   OH225035   0.494   3.177  14.295  0.0451 -0.0453  0.1961
 1207TIP3    H125036   0.558   3.130  14.241  0.5560  1.4762 -0.6087
 1207TIP3    H225037   0.410   3.156  14.256  0.2447 -0.4780 -0.0078
 1208TIP3   OH225038   1.873   3.603   3.424  0.3379  0.0202  0.4250
 1208TIP3    H125039   1.866   3.605   3.520  1.6993  0.5298  0.5360
 1208TIP3    H225040   1.831   3.685   3.396  0.1354 -0.0247  0.5910
 1209TIP3   OH225041   5.725   2.983  16.833 -0.2430 -0.6619 -0.4239
 1209TIP3    H125042   5.692   2.898  16.806 -0.5481 -0.7257  0.1457
 1209TIP3    H225043   5.747   3.027  16.750 -1.7386 -0.6131 -0.8279
 1210TIP3   OH225044   2.708   5.863  14.815  0.0096 -0.0125 -0.3365
 1210TIP3    H125045   2.687   5.899  14.728  1.1354  0.8404 -0.2783
 1210TIP3    H225046   2.778   5.800  14.798  0.4292  0.3612 -0.0360
 1211TIP3   OH225047   6.387   0.499  15.424 -0.0405 -0.1335 -0.0920
 1211TIP3    H125048   6.425   0.441  15.490 -0.5044  1.1238  1.3318
 1211TIP3    H225049   6.440   0.484  15.345  1.1471 -0.9724  0.8280
 1212TIP3   OH225050   4.242   4.726  16.007  0.1519 -0.3129 -0.5141
 1212TIP3    H125051   4.194   4.805  16.034  0.9849 -0.3641  1.2343
 1212TIP3    H225052   4.319   4.759  15.962  0.8850 -0.0543  0.8624
 1213TIP3   OH225053   3.511   6.735   5.100  0.9198  0.0417 -0.2237
 1213TIP3    H125054   3.582   6.677   5.128 -0.0775 -1.4353 -0.5984
 1213TIP3    H225055   3.443   6.675   5.067 -0.8419  1.3200  0.8737
 1214TIP3   OH225056   6.349   5.701  14.607 -0.5044  0.1088 -0.7285
 1214TIP3    H125057   6.310   5.618  14.579  0.8519 -0.6857 -0.3829
 1214TIP3    H225058   6.321   5.711  14.698 -3.3387  1.7232 -1.6705
 1215TIP3   OH225059   0.636   2.719  12.704  0.1201  0.1748  0.8021
 1215TIP3    H125060   0.685   2.795  12.674  0.6934 -0.9102 -1.1595
 1215TIP3    H225061   0.658   2.711  12.797 -0.7323  2.9426  1.3112
 1216TIP3   OH225062   2.032   3.181   3.764  0.2925 -0.1639  0.3253
 1216TIP3    H125063   2.119   3.212   3.738 -0.3096  1.1901 -0.1571
 1216TIP3    H225064   1.983   3.175   3.681 -0.1220 -0.7776  0.6091
 1217TIP3   OH225065   1.001   3.122  17.321  0.3977  0.5179 -0.1710
 1217TIP3    H125066   0.992   3.190  17.254  0.6328 -0.0569 -0.7991
 1217TIP3    H225067   0.912   3.087  17.332  0.1008  1.5433  0.8310
 1218TIP3   OH225068   3.809   4.398  16.893 -0.2081 -0.1401  0.3083
 1218TIP3    H125069   3.827   4.486  16.861  0.9914 -0.6380 -0.4552
 1218TIP3    H225070   3.773   4.412  16.981 -2.8876  1.2121 -0.8884
 1219TIP3   OH225071   1.953   5.130  16.241 -0.2336  0.4525  0.0204
 1219TIP3    H125072   1.983   5.125  16.331  2.1661  0.9976 -0.6665
 1219TIP3    H225073   1.959   5.223  16.218 -0.8861  0.3346 -0.6996
 1220TIP3   OH225074   4.458   5.934   4.491 -0.2125 -0.7906 -0.3637
 1220TIP3    H125075   4.469   5.840   4.503 -1.0782 -0.8688 -0.1458
 1220TIP3    H225076   4.399   5.941   4.416 -2.3868 -0.5025  1.2756
 1221TIP3   OH225077   0.537   3.091  15.501 -0.0237 -0.0594 -0.3743
 1221TIP3    H125078   0.460   3.113  15.554  0.6407  2.0858 -0.2343
 1221TIP3    H225079   0.595   3.045  15.562 -0.2454  0.3144  0.1230
 1222TIP3   OH225080   5.502   0.449  14.545  0.3395  0.2782  0.1478
 1222TIP3    H125081   5.429   0.460  14.606 -0.7318  0.7483 -1.1796
 1222TIP3    H225082   5.461   0.419  14.464  1.5873  0.8678 -0.7247
 1223TIP3   OH225083   2.025   0.148  11.938  0.1198  0.4295 -0.1233
 1223TIP3    H125084   2.109   0.106  11.921 -0.2864 -0.7917  0.7615
 1223TIP3    H225085   2.033   0.181  12.028 -1.3618 -2.4308  1.1927
 1224TIP3   OH225086   4.844   1.652  15.543 -0.1785 -0.4522  0.2189
 1224TIP3    H125087   4.872   1.589  15.477  2.5990 -0.6619  1.4281
 1224TIP3    H225088   4.882   1.735  15.515 -0.9601 -0.0421  0.3582
 1225TIP3   OH225089   5.854   3.624   3.724  0.6947 -0.2300  0.0735
 1225TIP3    H125090   5.902   3.706   3.720 -0.3953  0.3733 -1.6343
 1225TIP3    H225091   5.762   3.650   3.729  0.4218 -1.3642  1.9785
 1226TIP3   OH225092   0.419   3.568   1.710  0.0513 -0.1424 -0.3661
 1226TIP3    H125093   0.461   3.569   1.795 -0.0374 -0.0265 -0.3236
 1226TIP3    H225094   0.357   3.496   1.714  0.7001 -0.7274 -0.6499
 1227TIP3   OH225095   3.532   6.415   4.807 -0.1097 -0.1364 -0.2382
 1227TIP3    H125096   3.595   6.479   4.773  0.8887 -1.9457 -1.9414
 1227TIP3    H225097   3.473   6.467   4.862  0.3564  2.3366 -1.9302
 1228TIP3   OH225098   0.652   3.140  13.121  0.2635  0.1190 -0.5400
 1228TIP3    H125099   0.591   3.117  13.051 -0.2137 -0.4719  0.0529
 1228TIP3    H225100   0.716   3.069  13.123  1.5528  1.2069 -1.7821
 1229TIP3   OH225101   3.424   3.407   4.597  0.6595 -0.0691  0.0849
 1229TIP3    H125102   3.476   3.469   4.648  1.9508 -0.6562 -0.4970
 1229TIP3    H225103   3.487   3.347   4.558 -0.4025 -0.4874 -1.0809
 1230TIP3   OH225104   2.419   1.192  15.811 -0.4034  0.3023  0.0803
 1230TIP3    H125105   2.479   1.175  15.884 -1.1726  0.6020  0.7943
 1230TIP3    H225106   2.344   1.235  15.851 -0.3737  1.4745 -1.0433
 1231TIP3   OH225107   1.396   6.090  16.067 -0.2548 -0.5042  0.1439
 1231TIP3    H125108   1.323   6.106  16.007 -0.7603 -0.4132  0.7689
 1231TIP3    H225109   1.395   5.996  16.083 -0.2337 -0.5040  0.1469
 1232TIP3   OH225110   0.793   0.009   2.345  0.1423 -0.0883 -0.3939
 1232TIP3    H125111   0.703   0.023   2.376  0.2256 -1.5440  0.5506
 1232TIP3    H225112   0.819  -0.074   2.383  2.1241  0.5890 -0.1917
 1233TIP3   OH225113   0.878   5.287   3.782  0.1375 -0.1234 -0.5769
 1233TIP3    H125114   0.869   5.382   3.772  0.4528  0.3810  2.7470
 1233TIP3    H225115   0.971   5.274   3.800 -0.1705 -0.8652  0.5338
 1234TIP3   OH225116   6.654   6.015   2.363  0.5768 -0.1534 -0.2434
 1234TIP3    H125117   6.686   6.043   2.448  1.4277 -2.2181  0.1889
 1234TIP3    H225118   6.670   5.920   2.362  0.0086 -0.2759 -2.4515
 1235TIP3   OH225119   2.160   0.245  15.754  0.4460  0.2352 -0.0259
 1235TIP3    H125120   2.220   0.294  15.811  0.5195  1.2781 -0.9586
 1235TIP3    H225121   2.197   0.157  15.750  1.2179  0.5262  0.4200
 1236TIP3   OH225122   6.419   3.170  11.483  0.0955 -0.2862 -0.4724
 1236TIP3    H125123   6.417   3.138  11.393 -0.3804  0.5526 -0.7677
 1236TIP3    H225124   6.330   3.158  11.515 -0.0866  0.7243 -0.5873
 1237TIP3   OH225125   3.700   5.362   1.390  1.1402 -0.4776 -0.1131
 1237TIP3    H125126   3.694   5.279   1.438  1.9280  0.2865  1.3822
 1237TIP3    H225127   3.736   5.424   1.454 -1.0470  1.4548 -0.6338
 1238TIP3   OH225128   4.692   2.172  15.978 -0.0593  0.2854 -0.3109
 1238TIP3    H125129   4.676   2.177  16.073  0.9059  0.2190 -0.1303
 1238TIP3    H225130   4.766   2.231  15.964 -0.7463  0.9631 -1.1704
 1239TIP3   OH225131   4.946   2.019   4.777  0.1015 -0.2047  0.0736
 1239TIP3    H125132   4.914   2.107   4.796  1.0623  0.8437 -2.7586
 1239TIP3    H225133   5.037   2.019   4.807  0.5445  0.2729 -1.2425
 1240TIP3   OH225134   3.414   2.300   0.315  0.7076 -0.0378  0.8977
 1240TIP3    H125135   3.396   2.219   0.268 -0.3361 -0.4155  1.8979
 1240TIP3    H225136   3.404   2.277   0.407  2.2483  0.7926  1.3085
 1241TIP3   OH225137   0.377   0.627   1.216 -0.0951 -0.4399 -0.6447
 1241TIP3    H125138   0.417   0.543   1.192 -0.2728 -0.8484  0.4619
 1241TIP3    H225139   0.440   0.667   1.276 -1.5490 -1.3502  1.5867
 1242TIP3   OH225140   5.079   2.174   6.601  0.3009 -0.5615 -0.1426
 1242TIP3    H125141   4.991   2.195   6.634  1.2075  1.5597  1.1521
 1242TIP3    H225142   5.109   2.101   6.654  0.0651  0.0230  0.8250
 1243TIP3   OH225143   1.571   2.267   4.903  0.4209 -0.2801  0.6455
 1243TIP3    H125144   1.550   2.240   4.813  1.7635 -1.0165  0.5280
 1243TIP3    H225145   1.563   2.362   4.902 -1.0025 -0.3784  0.1418
 1244TIP3   OH225146   6.227   4.137  15.744 -0.3728 -0.3758  0.1655
 1244TIP3    H125147   6.300   4.096  15.790 -0.0615  0.7539  0.7097
 1244TIP3    H225148   6.150   4.121  15.799 -0.6206 -1.7997 -0.5405
 1245TIP3   OH225149   6.352   0.602   3.670  0.7419  0.0010  0.0474
 1245TIP3    H125150   6.399   0.664   3.614 -0.8921  0.0963 -1.2764
 1245TIP3    H225151   6.344   0.647   3.754 -0.2674  1.5486 -0.8276
 1246TIP3   OH225152   4.787   5.735   5.406 -0.0583  0.0401 -0.2325
 1246TIP3    H125153   4.827   5.683   5.337 -0.7050 -0.7525 -0.0129
 1246TIP3    H225154   4.706   5.768   5.367 -0.0570  0.2053 -0.0959
 1247TIP3   OH225155   5.516   0.608  15.740  0.1330  0.7524  0.2874
 1247TIP3    H125156   5.548   0.533  15.690  1.3490  0.5046  1.3752
 1247TIP3    H225157   5.421   0.602  15.735  0.1523 -1.6284  1.3935
 1248TIP3   OH225158   4.165   2.091   2.155 -0.4971  0.1102  0.4510
 1248TIP3    H125159   4.076   2.087   2.118 -0.5140  0.0600  0.4974
 1248TIP3    H225160   4.205   2.167   2.113  0.2643 -1.2330 -1.4128
 1249TIP3   OH225161   1.167   1.355   2.258  0.2970  0.2340  0.1205
 1249TIP3    H125162   1.259   1.382   2.255  0.2487  0.7219  1.8313
 1249TIP3    H225163   1.170   1.263   2.282  0.3529  0.3923  0.7546
 1250TIP3   OH225164   2.188   0.928  17.014  0.0278  0.2995  1.0515
 1250TIP3    H125165   2.131   1.004  17.004 -1.5169 -0.9210  0.1162
 1250TIP3    H225166   2.142   0.872  17.077 -0.5667 -1.2989 -0.6903
 1251TIP3   OH225167   4.282   4.559  13.001 -0.7273  0.1370  0.1395
 1251TIP3    H125168   4.276   4.466  13.021 -0.2857 -0.0653 -0.6174
 1251TIP3    H225169   4.374   4.581  13.016 -0.4115  0.0126 -1.4290
 1252TIP3   OH225170   5.917   3.953   4.397 -0.0936  0.5715  0.1632
 1252TIP3    H125171   5.968   3.873   4.406  0.0649  0.7599  1.0966
 1252TIP3    H225172   5.968   4.008   4.338 -0.3080 -0.0864 -0.6522
 1253TIP3   OH225173   0.580   3.625  15.085  0.1490 -0.0291  0.4541
 1253TIP3    H125174   0.501   3.572  15.097  0.1870 -0.4005 -0.8290
 1253TIP3    H225175   0.547   3.713  15.065  0.0160 -0.4055 -1.0997
 1254TIP3   OH225176   3.102   4.872  13.810 -0.0481 -0.2942  0.1700
 1254TIP3    H125177   3.144   4.895  13.893 -1.0809  1.3561  0.2834
 1254TIP3    H225178   3.115   4.949  13.755 -2.8219  0.3019  0.1978
 1255TIP3   OH225179   3.612   0.238   2.592  0.5692  0.0652  0.1340
 1255TIP3    H125180   3.614   0.322   2.545  0.7660 -0.1940 -0.3234
 1255TIP3    H225181   3.553   0.183   2.540  0.0148  0.0823  0.7229
 1256TIP3   OH225182   5.612   1.939  12.326  0.3439 -0.6396 -0.3383
 1256TIP3    H125183   5.609   2.018  12.380 -0.4132  1.5485 -3.3363
 1256TIP3    H225184   5.699   1.902  12.341  1.2766  1.6023  0.0807
 1257TIP3   OH225185   0.603   3.479   4.732  0.2477 -0.7056 -0.1482
 1257TIP3    H125186   0.693   3.451   4.747  0.8459  0.4226 -1.4184
 1257TIP3    H225187   0.576   3.520   4.814  1.0539 -0.6292  0.0870
 1258TIP3   OH225188   3.217   6.073  14.525 -0.3552 -0.2232  0.0636
 1258TIP3    H125189   3.278   6.029  14.585  0.1741 -0.7647 -0.8380
 1258TIP3    H225190   3.160   6.003  14.494 -0.9866  0.1558  0.3690
 1259TIP3   OH225191   5.083   5.846   5.897  0.3847 -0.1488  0.3416
 1259TIP3    H125192   5.073   5.750   5.902 -0.4166 -0.1362 -0.7076
 1259TIP3    H225193   5.178   5.859   5.894  0.5343 -0.8539  1.3114
 1260TIP3   OH225194   2.780   6.183   1.922 -0.3206  0.0486  0.0024
 1260TIP3    H125195   2.823   6.109   1.881  1.3259  1.3260 -0.6666
 1260TIP3    H225196   2.686   6.161   1.919  0.1440 -2.2754  0.4645
 1261TIP3   OH225197   3.019   4.876  11.267  0.1734 -0.6865 -0.0828
 1261TIP3    H125198   3.031   4.872  11.172 -0.1949 -1.6249 -0.1024
 1261TIP3    H225199   3.106   4.861  11.303  0.2361 -0.7657 -0.2686
 1262TIP3   OH225200   5.809   0.789  16.276 -0.4230 -0.1564 -0.1687
 1262TIP3    H125201   5.806   0.857  16.342  0.7277  0.1484 -0.4083
 1262TIP3    H225202   5.733   0.807  16.220 -0.3096  0.7439 -0.0528
 1263TIP3   OH225203   3.939   0.712  13.344  0.2032  0.2975 -0.1790
 1263TIP3    H125204   3.968   0.660  13.269  1.9138 -1.7414  1.7530
 1263TIP3    H225205   4.018   0.758  13.373 -0.2476  0.4856  0.7820
 1264TIP3   OH225206   1.756   1.024   5.352  0.1139 -0.2535 -0.0676
 1264TIP3    H125207   1.682   1.025   5.412 -0.3203  0.5285 -0.6006
 1264TIP3    H225208   1.718   1.001   5.267  0.2229  1.5055 -0.6339
 1265TIP3   OH225209   2.629   0.560   1.179 -0.0235 -0.1227 -0.4477
 1265TIP3    H125210   2.633   0.505   1.101  1.6195 -0.6056 -0.0636
 1265TIP3    H225211   2.552   0.529   1.226 -0.6517 -0.2663 -1.5445
 1266TIP3   OH225212   6.307   4.324   5.688 -0.1623 -0.1088 -0.6208
 1266TIP3    H125213   6.330   4.391   5.624  1.5556  0.3288  0.3963
 1266TIP3    H225214   6.388   4.308   5.737 -1.7091  0.6269  2.4148
 1267TIP3   OH225215   5.062   2.528  11.465 -0.2473  0.6364 -0.3779
 1267TIP3    H125216   5.024   2.613  11.445 -1.5104  0.2580  0.2730
 1267TIP3    H225217   5.036   2.511  11.555  0.1985 -0.3218 -0.4185
 1268TIP3   OH225218   6.364   1.026  13.661  0.0925 -0.4339 -0.4014
 1268TIP3    H125219   6.394   1.110  13.625  0.0932  0.0633  0.6945
 1268TIP3    H225220   6.445   0.980  13.683  0.1143  0.3522  1.3224
 1269TIP3   OH225221   4.817   4.174  11.776 -0.0844 -0.0509 -0.0808
 1269TIP3    H125222   4.787   4.265  11.775 -1.8653 -0.5743  0.4226
 1269TIP3    H225223   4.896   4.175  11.829 -0.9208  1.0069  1.2255
 1270TIP3   OH225224   6.727   4.540  14.890  0.0477  0.3747 -0.8620
 1270TIP3    H125225   6.761   4.577  14.971 -1.2587  0.0819 -0.1653
 1270TIP3    H225226   6.760   4.600  14.821 -1.0404  2.1820  0.1117
 1271TIP3   OH225227   2.589   5.128   1.429  0.4175 -0.3873  0.4210
 1271TIP3    H125228   2.585   5.144   1.523 -0.9422  0.9736  0.1681
 1271TIP3    H225229   2.573   5.213   1.389 -0.8546 -1.2443 -1.0407
 1272TIP3   OH225230   3.745   4.986   3.539  0.0447  0.6217 -0.4941
 1272TIP3    H125231   3.735   4.935   3.459 -1.3984  0.4667 -0.2307
 1272TIP3    H225232   3.794   4.928   3.598  1.5922  0.9382 -1.4124
 1273TIP3   OH225233   4.962   2.949  14.784 -0.2872 -0.5932 -0.6046
 1273TIP3    H125234   4.944   2.986  14.870 -0.1598  1.2028 -1.3149
 1273TIP3    H225235   4.928   2.859  14.790  1.2090 -1.0936  1.8188
 1274TIP3   OH225236   6.341   1.521   5.294 -0.5867  0.3679 -0.3297
 1274TIP3    H125237   6.425   1.485   5.321 -1.1138 -0.4032  0.3473
 1274TIP3    H225238   6.289   1.523   5.374 -1.0795  1.2303 -0.6585
 1275TIP3   OH225239   6.587   6.427   1.790  0.2467 -0.5286  0.2050
 1275TIP3    H125240   6.551   6.515   1.779 -0.4424 -0.6120  1.6471
 1275TIP3    H225241   6.651   6.436   1.860 -0.6364 -1.3736  1.1465
 1276TIP3   OH225242   1.438   1.335  13.856 -0.5160 -0.7115 -0.7826
 1276TIP3    H125243   1.491   1.337  13.935 -0.7283 -1.6771 -0.6040
 1276TIP3    H225244   1.384   1.257  13.865 -2.1734  0.3802 -0.8474
 1277TIP3   OH225245   3.349   3.028  11.429  0.5378 -0.4115  0.4117
 1277TIP3    H125246   3.436   3.045  11.391  0.8756 -3.0026 -0.1351
 1277TIP3    H225247   3.367   3.000  11.518  0.3592 -1.6184  0.0864
 1278TIP3   OH225248   0.750   4.128   3.980 -0.2997 -0.4906 -0.2734
 1278TIP3    H125249   0.660   4.106   4.003 -0.4641  0.8274  0.4339
 1278TIP3    H225250   0.770   4.205   4.033  1.3735 -0.9764 -0.1492
 1279TIP3   OH225251   3.999   4.806   3.599  0.6557  0.6323  0.0868
 1279TIP3    H125252   4.087   4.840   3.588  1.2632 -0.2802  1.8074
 1279TIP3    H225253   3.991   4.737   3.533  1.8130 -0.2976  0.8677
 1280TIP3   OH225254   4.335   2.855   4.077  0.3094 -0.2582  0.2970
 1280TIP3    H125255   4.272   2.804   4.128 -0.6097  1.1133  0.5644
 1280TIP3    H225256   4.325   2.945   4.108  0.6566  0.3938 -1.3999
 1281TIP3   OH225257   1.013   1.067   2.586 -0.3796 -0.5750 -0.0504
 1281TIP3    H125258   0.961   1.111   2.519 -1.0582 -1.2485  0.0184
 1281TIP3    H225259   0.948   1.031   2.647  0.1832 -0.9737  0.3257
 1282TIP3   OH225260   4.557   3.419   4.908 -0.3471  0.2515 -0.0565
 1282TIP3    H125261   4.503   3.371   4.845 -0.5170 -2.1008  1.7350
 1282TIP3    H225262   4.643   3.376   4.903 -0.7755 -1.0508  2.2836
 1283TIP3   OH225263   4.347   4.694  11.079 -0.4623 -0.0548  0.2474
 1283TIP3    H125264   4.381   4.712  11.167  0.9546 -1.1176 -0.0353
 1283TIP3    H225265   4.424   4.663  11.031 -1.6852 -1.7771 -0.6754
 1284TIP3   OH225266   3.708   0.591  12.706  0.1424  0.0630  0.2993
 1284TIP3    H125267   3.801   0.614  12.712  0.1118 -0.0213  1.1735
 1284TIP3    H225268   3.664   0.674  12.690  0.2656  0.2663  1.0014
 1285TIP3   OH225269   4.929   2.458   6.626 -0.3167 -0.1067  0.3369
 1285TIP3    H125270   4.914   2.452   6.532  0.0097 -0.5978  0.3125
 1285TIP3    H225271   4.851   2.501   6.660 -0.9438 -0.9434 -0.0186
 1286TIP3   OH225272   1.264   1.993  13.759  0.7390 -0.0166  0.3770
 1286TIP3    H125273   1.192   1.936  13.734 -0.2794  1.0274  0.8390
 1286TIP3    H225274   1.224   2.080  13.767  2.2584  0.7871 -0.4091
 1287TIP3   OH225275   3.783   0.051   6.441 -0.2080  0.1300 -0.1895
 1287TIP3    H125276   3.756  -0.040   6.428 -0.2355 -0.0849  1.2131
 1287TIP3    H225277   3.874   0.045   6.468 -0.2281  0.5169 -0.0326
 1288TIP3   OH225278   0.357   1.369   0.137  0.3072  0.3456  0.4452
 1288TIP3    H125279   0.392   1.331   0.056  1.4322  0.5276  0.8179
 1288TIP3    H225280   0.281   1.315   0.158  1.6431 -1.5225  0.7810
 1289TIP3   OH225281   4.948   5.074  11.243 -0.2729  0.1595  0.5553
 1289TIP3    H125282   5.008   5.144  11.270  2.5740 -1.3401 -1.3629
 1289TIP3    H225283   4.920   5.033  11.325  0.0229  1.8893  1.5768
 1290TIP3   OH225284   5.826   2.270   3.995 -0.2517 -0.2482 -0.0383
 1290TIP3    H125285   5.783   2.231   4.072 -1.8891  1.8259  0.1962
 1290TIP3    H225286   5.879   2.341   4.031 -2.3967  1.8800 -0.8789
 1291TIP3   OH225287   3.966   4.926   2.527 -0.5905 -0.2563  0.0675
 1291TIP3    H125288   3.991   4.857   2.465 -1.8652 -0.7943  0.1103
 1291TIP3    H225289   3.987   5.008   2.482 -1.3064 -0.6457 -1.0126
 1292TIP3   OH225290   0.214   3.335   1.360  0.3815  0.1619 -0.1616
 1292TIP3    H125291   0.285   3.330   1.295  1.0654  2.5247  0.2914
 1292TIP3    H225292   0.258   3.363   1.440 -0.9757  1.2344  0.2467
 1293TIP3   OH225293   6.603   5.441  11.628  0.0045 -0.5974 -0.0913
 1293TIP3    H125294   6.515   5.405  11.640  1.1655 -3.1250  1.6533
 1293TIP3    H225295   6.655   5.368  11.597  1.9799  0.2519  1.0681
 1294TIP3   OH225296   6.197   2.516  13.640 -0.1861 -0.5381 -0.1355
 1294TIP3    H125297   6.217   2.500  13.732  2.2702  1.5179 -0.2103
 1294TIP3    H225298   6.180   2.610  13.635  1.0094 -0.3654 -1.9591
 1295TIP3   OH225299   3.975   4.217   3.929  0.6584  0.0518 -0.1560
 1295TIP3    H125300   3.980   4.311   3.911 -0.3004  0.3788  1.1184
 1295TIP3    H225301   4.058   4.196   3.972  0.7404  0.3775 -0.1550
 1296TIP3   OH225302   3.747   6.312   1.771  0.1472  0.1502 -0.5726
 1296TIP3    H125303   3.808   6.364   1.824  0.6287 -0.9872  0.0113
 1296TIP3    H225304   3.791   6.228   1.760 -2.1547 -1.4973  1.6758
 1297TIP3   OH225305   4.148   2.558  10.808  0.4526 -0.0875  0.0889
 1297TIP3    H125306   4.064   2.537  10.849 -0.6795  0.1861 -1.9749
 1297TIP3    H225307   4.141   2.651  10.786  1.2475 -0.0978 -0.2526
 1298TIP3   OH225308   4.070   2.921   4.401  0.0264  0.3583 -0.2424
 1298TIP3    H125309   4.114   2.880   4.326  0.2292 -0.1300  0.1367
 1298TIP3    H225310   4.056   2.849   4.462  1.2582  0.9941  0.8496
 1299TIP3   OH225311   3.449   6.198   5.628 -0.3509  0.1975 -0.4061
 1299TIP3    H125312   3.469   6.171   5.717 -0.9714  0.3993 -0.1999
 1299TIP3    H225313   3.500   6.139   5.572 -0.7080 -0.5656  0.0636
 1300TIP3   OH225314   6.610   4.570  17.269 -0.3893  0.1024 -0.3132
 1300TIP3    H125315   6.574   4.509  17.334  0.3488  0.0420  0.0485
 1300TIP3    H225316   6.642   4.514  17.198 -1.1710  0.1669 -0.7220
 1301TIP3   OH225317   5.820   6.481   1.546 -0.1078 -0.3202  0.3328
 1301TIP3    H125318   5.795   6.391   1.522 -1.8786  0.6461 -1.8553
 1301TIP3    H225319   5.890   6.503   1.485 -2.2939  0.9848 -1.9108
 1302TIP3   OH225320   2.982   2.851  15.525  0.2658  0.4802  0.2229
 1302TIP3    H125321   3.059   2.824  15.475 -0.3586 -0.2976 -0.3341
 1302TIP3    H225322   2.982   2.793  15.602 -1.1020 -1.2240 -0.9983
 1303TIP3   OH225323   3.080   5.388  17.002 -0.1840 -0.3859 -0.1382
 1303TIP3    H125324   3.012   5.449  17.029 -0.6053 -0.0076 -1.9555
 1303TIP3    H225325   3.160   5.421  17.044 -1.3928 -2.3158  4.2600
 1304TIP3   OH225326   6.736   1.094  11.475  0.2718 -0.5425  0.2991
 1304TIP3    H125327   6.791   1.167  11.503 -1.0377  0.7380 -0.2716
 1304TIP3    H225328   6.756   1.083  11.382  0.3485 -0.7884  0.3450
 1305TIP3   OH225329   4.401   1.697  15.239 -0.0518 -0.4319 -0.5430
 1305TIP3    H125330   4.370   1.652  15.318 -2.4026 -1.5617 -1.9925
 1305TIP3    H225331   4.479   1.648  15.212 -0.2067 -1.0817  0.1490
 1306TIP3   OH225332   2.239   6.338   3.719  0.2767  0.5581  0.0172
 1306TIP3    H125333   2.263   6.277   3.789 -1.1416  0.1999  0.2138
 1306TIP3    H225334   2.243   6.285   3.639  0.0651  0.4722  0.0621
 1307TIP3   OH225335   1.166   6.622   1.408 -0.4343  0.1105  0.2115
 1307TIP3    H125336   1.244   6.588   1.365 -0.9102  1.6186 -1.9714
 1307TIP3    H225337   1.177   6.598   1.500  1.5803 -1.5111 -0.3935
 1308TIP3   OH225338   2.359   2.908   1.786 -0.9355 -0.2251 -0.1758
 1308TIP3    H125339   2.416   2.985   1.783 -0.6374 -0.4500 -0.3698
 1308TIP3    H225340   2.271   2.942   1.769 -0.9910  0.2442  0.9302
 1309TIP3   OH225341   0.275   1.270  17.278 -0.0042  0.4736  0.2247
 1309TIP3    H125342   0.248   1.319  17.200  1.1084  0.7431 -0.0097
 1309TIP3    H225343   0.201   1.277  17.338 -0.6885  0.6597 -0.6272
 1310TIP3   OH225344   1.900   2.263  14.023 -0.3655 -0.1953 -0.1339
 1310TIP3    H125345   1.887   2.189  13.964  0.6518  1.1334 -2.1382
 1310TIP3    H225346   1.951   2.326  13.972  0.3407  1.1625  2.0991
 1311TIP3   OH225347   4.331   2.411   2.393  0.0476  0.1389 -0.2454
 1311TIP3    H125348   4.250   2.405   2.343  0.2446  2.6810 -1.0015
 1311TIP3    H225349   4.377   2.329   2.375 -1.5564 -0.5979 -1.1836
 1312TIP3   OH225350   0.829   2.161  15.625  0.9648  0.8442  0.5572
 1312TIP3    H125351   0.736   2.183  15.637  0.3930 -1.3490  0.6037
 1312TIP3    H225352   0.833   2.067  15.642  2.7113  0.3351 -2.1321
 1313TIP3   OH225353   0.812   6.005  16.960  0.1111  0.4821 -0.2144
 1313TIP3    H125354   0.799   5.978  16.870 -0.9679  1.9959 -0.5482
 1313TIP3    H225355   0.729   5.985  17.004 -0.7509  3.1118 -0.4871
 1314TIP3   OH225356   3.789   5.703  11.389 -0.6996  0.0442  0.0260
 1314TIP3    H125357   3.859   5.718  11.453 -0.5728  1.0000 -0.3240
 1314TIP3    H225358   3.801   5.772  11.324 -0.4624 -1.2572 -1.3629
 1315TIP3   OH225359   5.805   2.860   2.294  0.3484  0.0437 -0.2867
 1315TIP3    H125360   5.738   2.919   2.258  0.5839  0.4689 -0.0311
 1315TIP3    H225361   5.877   2.918   2.318  0.8748 -0.4265 -0.6977
 1316TIP3   OH225362   0.544   0.757   4.274  0.1322  0.1881 -0.0042
 1316TIP3    H125363   0.604   0.747   4.348 -2.4164 -1.7403  1.9912
 1316TIP3    H225364   0.563   0.681   4.218  0.0856  0.0195  0.2069
 1317TIP3   OH225365   6.120   1.693   6.094  0.2623 -0.1932 -0.0390
 1317TIP3    H125366   6.160   1.775   6.065 -0.0735  0.2637  0.7853
 1317TIP3    H225367   6.179   1.661   6.162 -0.5627  0.3076  0.9401
 1318TIP3   OH225368   6.521   5.677   2.296 -0.2301  0.5485  0.3136
 1318TIP3    H125369   6.510   5.754   2.241  1.8714  0.5965 -0.1317
 1318TIP3    H225370   6.528   5.712   2.385  0.5223  0.8660  0.1348
 1319TIP3   OH225371   5.545   5.053   1.016  0.0693  0.1984  0.3273
 1319TIP3    H125372   5.565   5.100   0.935  1.5198  0.5061  0.8363
 1319TIP3    H225373   5.488   4.981   0.989 -1.3632  1.6224 -0.6104
 1320TIP3   OH225374   1.152   6.511   4.250  0.2721 -0.3909 -0.2682
 1320TIP3    H125375   1.112   6.437   4.204 -0.4175 -0.5957  0.6265
 1320TIP3    H225376   1.226   6.536   4.196  0.0046 -1.1937 -1.0247
 1321TIP3   OH225377   6.448   3.240   1.834 -0.2636 -0.3550 -0.4861
 1321TIP3    H125378   6.518   3.188   1.874 -0.8761 -0.9374 -0.1550
 1321TIP3    H225379   6.369   3.188   1.848 -1.0333  1.0645  0.6327
 1322TIP3   OH225380   3.729   5.861  11.822 -0.1198  0.2339  0.1882
 1322TIP3    H125381   3.731   5.831  11.731 -1.0102 -1.1020  0.5741
 1322TIP3    H225382   3.652   5.918  11.827 -0.5560 -0.3465  0.2695
 1323TIP3   OH225383   6.213   0.671  16.855 -0.1410 -0.1752 -0.4546
 1323TIP3    H125384   6.247   0.630  16.776  1.3547 -1.1411  0.6481
 1323TIP3    H225385   6.259   0.754  16.861 -2.1013  1.1137 -1.8919
 1324TIP3   OH225386   0.219   6.022  14.553  0.1466 -0.3413 -0.2015
 1324TIP3    H125387   0.255   5.974  14.478  1.3815 -0.0474  0.1787
 1324TIP3    H225388   0.223   5.959  14.625  0.4395 -0.1285 -0.0287
 1325TIP3   OH225389   1.947   4.090   1.353 -0.4323 -0.4106  0.2958
 1325TIP3    H125390   1.890   4.167   1.350 -1.3762 -1.1065 -1.2232
 1325TIP3    H225391   1.964   4.077   1.446 -1.7910  0.5446  0.7232
 1326TIP3   OH225392   5.796   1.632   5.491 -0.0453 -0.4685  0.4378
 1326TIP3    H125393   5.886   1.666   5.489 -0.2121  0.2058  2.6550
 1326TIP3    H225394   5.793   1.577   5.569 -1.1268 -1.8308 -0.5178
 1327TIP3   OH225395   3.048   3.230  13.373  0.5536 -0.0811  0.1222
 1327TIP3    H125396   3.016   3.297  13.434 -1.8375  0.3151 -1.4281
 1327TIP3    H225397   3.006   3.149  13.403  2.3042 -0.6719  1.1332
 1328TIP3   OH225398   4.094   0.288  10.994  0.1700 -0.7491 -0.2584
 1328TIP3    H125399   4.170   0.320  10.945 -0.2282 -0.7522 -0.8939
 1328TIP3    H225400   4.062   0.214  10.942 -0.3870 -0.6175 -0.1056
 1329TIP3   OH225401   0.388   5.783  16.807 -0.5171  0.6029  0.2888
 1329TIP3    H125402   0.297   5.776  16.834 -0.4714  1.8628  0.8189
 1329TIP3    H225403   0.400   5.875  16.784  1.0059  0.7879  1.6331
 1330TIP3   OH225404   0.171   4.836   4.318  0.1742 -0.9237 -0.1249
 1330TIP3    H125405   0.245   4.819   4.375 -1.2846 -1.1204  1.8118
 1330TIP3    H225406   0.167   4.932   4.313 -0.3038 -0.8648  1.0155
 1331TIP3   OH225407   4.788   1.514  13.968 -0.4917  0.4346  0.5305
 1331TIP3    H125408   4.795   1.420  13.985 -0.0535  0.3480 -0.0981
 1331TIP3    H225409   4.694   1.529  13.953 -0.7387  0.3282  1.8916
 1332TIP3   OH225410   2.952   2.557   3.580  0.1982 -0.3227 -0.3051
 1332TIP3    H125411   2.911   2.602   3.654  2.0371 -0.6755  0.9954
 1332TIP3    H225412   2.974   2.470   3.614 -1.3777 -1.5119 -2.1390
 1333TIP3   OH225413   1.170   5.376   2.521 -0.5024 -0.0756 -0.0606
 1333TIP3    H125414   1.128   5.305   2.473  1.0268 -0.9408 -0.2037
 1333TIP3    H225415   1.195   5.337   2.605  0.0774  0.3619 -0.0181
 1334TIP3   OH225416   3.652   1.080   3.787  0.0459  0.1354 -0.1361
 1334TIP3    H125417   3.596   1.137   3.840  0.1016  0.7654 -0.7422
 1334TIP3    H225418   3.670   1.131   3.708 -0.9755 -1.2445 -1.3027
 1335TIP3   OH225419   1.248   4.827  15.806  0.8916 -0.2023 -0.1663
 1335TIP3    H125420   1.159   4.855  15.829  0.4522  0.6216 -2.5661
 1335TIP3    H225421   1.243   4.732  15.799 -0.0753 -0.0976 -1.1846
 1336TIP3   OH225422   1.702   5.763  13.173  0.1603  0.1587  0.1282
 1336TIP3    H125423   1.777   5.704  13.172 -0.2097 -0.3311 -0.8859
 1336TIP3    H225424   1.738   5.846  13.141  0.0615 -0.4075 -1.6081
 1337TIP3   OH225425   2.293   0.615  15.361  0.3482 -0.4192  0.1065
 1337TIP3    H125426   2.215   0.567  15.333  0.2811 -0.0125 -0.4309
 1337TIP3    H225427   2.366   0.567  15.322  0.2726 -0.0164 -0.5473
 1338TIP3   OH225428   2.235   6.639   1.109  0.0737  0.6303  0.6783
 1338TIP3    H125429   2.249   6.558   1.059  0.2580  0.5394  0.8732
 1338TIP3    H225430   2.155   6.623   1.158 -0.1764  0.7662  0.3241
 1339TIP3   OH225431   0.197   5.883   1.961 -0.0878 -0.5084  0.0699
 1339TIP3    H125432   0.127   5.827   1.929 -0.7282  1.2763 -1.8624
 1339TIP3    H225433   0.170   5.908   2.050  0.6436 -3.8171  1.3524
 1340TIP3   OH225434   6.591   4.406   5.997 -0.1386  0.3035  0.4403
 1340TIP3    H125435   6.541   4.347   5.940  2.5356 -1.0665 -0.6983
 1340TIP3    H225436   6.594   4.361   6.082  0.7541 -0.6101 -0.0483
 1341TIP3   OH225437   4.155   2.249  14.263  0.0448  0.0389 -0.0570
 1341TIP3    H125438   4.151   2.207  14.178 -2.4702 -1.8084  0.8572
 1341TIP3    H225439   4.124   2.338  14.248  0.0644 -0.1307 -1.1290
 1342TIP3   OH225440   3.918   3.164  13.313 -0.3714  0.4564  0.0455
 1342TIP3    H125441   3.979   3.106  13.267 -1.3651 -1.1511  0.6943
 1342TIP3    H225442   3.917   3.132  13.403 -2.2853  0.3308  0.0185
 1343TIP3   OH225443   1.358   2.596   3.163 -0.5018 -0.0448 -0.0111
 1343TIP3    H125444   1.297   2.579   3.091  0.6059 -0.0977 -0.9692
 1343TIP3    H225445   1.426   2.651   3.124  0.1637 -0.1400  0.9762
 1344TIP3   OH225446   5.365   0.009   6.679  0.7648 -0.1775  0.3732
 1344TIP3    H125447   5.382   0.061   6.601 -0.8968  0.9834  0.7213
 1344TIP3    H225448   5.319   0.069   6.738  0.3809 -1.5427  1.5248
 1345TIP3   OH225449   5.789   0.762  15.200  0.0205  0.3326  0.0981
 1345TIP3    H125450   5.862   0.705  15.176 -0.0502  0.5538 -0.6723
 1345TIP3    H225451   5.742   0.776  15.118 -0.6101  0.5862  0.4969
 1346TIP3   OH225452   1.879   4.884   1.245  0.3635  0.3527 -0.0739
 1346TIP3    H125453   1.821   4.935   1.302  1.2315  1.1096  0.1578
 1346TIP3    H225454   1.955   4.864   1.299  0.7856  0.2746 -0.6806
 1347TIP3   OH225455   0.489   5.164   2.052  0.0402  0.1000  0.0398
 1347TIP3    H125456   0.499   5.212   1.970 -1.9646  1.7695  0.6764
 1347TIP3    H225457   0.422   5.098   2.032 -1.8538  1.7133  0.7114
 1348TIP3   OH225458   4.309   4.243  10.405  0.2307 -0.1619  0.4736
 1348TIP3    H125459   4.269   4.318  10.450 -0.3394 -0.3879  0.3522
 1348TIP3    H225460   4.385   4.280  10.360  0.2121  0.2611  0.7819
 1349TIP3   OH225461   6.315   5.606  17.185 -0.2009  0.5142 -0.6983
 1349TIP3    H125462   6.255   5.628  17.257 -0.0900  0.1555 -0.4927
 1349TIP3    H225463   6.260   5.607  17.107 -1.9666 -5.3191 -0.0011
 1350TIP3   OH225464   4.173   3.186   2.783 -0.1890 -0.6222 -0.1582
 1350TIP3    H125465   4.167   3.146   2.870  0.6199  1.2239  0.8081
 1350TIP3    H225466   4.265   3.213   2.775 -0.7983  1.5777 -0.4498
 1351TIP3   OH225467   4.061   6.199   1.716  0.3245  0.9399 -0.3365
 1351TIP3    H125468   4.056   6.116   1.764  0.8081  0.2521 -1.4267
 1351TIP3    H225469   4.132   6.247   1.759  0.5938  0.4357 -0.2077
 1352TIP3   OH225470   3.595   4.438   4.454 -0.1712  0.0911  0.3592
 1352TIP3    H125471   3.679   4.444   4.500 -0.3181  0.6480  0.5675
 1352TIP3    H225472   3.598   4.507   4.388 -0.8599  0.7945  1.0363
 1353TIP3   OH225473   6.589   5.674   1.080 -0.0460 -0.4341 -0.6670
 1353TIP3    H125474   6.638   5.595   1.057 -2.0571 -2.1842  0.5821
 1353TIP3    H225475   6.643   5.719   1.144  0.3947 -1.7706 -0.0681
 1354TIP3   OH225476   5.500   1.205  16.335 -0.1061 -0.4409  0.1039
 1354TIP3    H125477   5.435   1.135  16.343 -0.9619  0.2398 -0.6577
 1354TIP3    H225478   5.448   1.284  16.324  0.8553  0.0143 -1.4494
 1355TIP3   OH225479   1.856   1.115  14.525 -0.1478  0.6785 -0.7699
 1355TIP3    H125480   1.890   1.166  14.452  0.5639 -1.1379 -1.7632
 1355TIP3    H225481   1.773   1.078  14.493  0.3103 -0.3667 -0.8011
 1356TIP3   OH225482   4.190   3.204  15.080 -0.3735 -0.3074  0.7250
 1356TIP3    H125483   4.141   3.146  15.138 -0.4458 -0.0012  0.9780
 1356TIP3    H225484   4.150   3.191  14.994 -0.0078 -1.0564  0.6621
 1357TIP3   OH225485   0.321   4.881   5.811 -0.2508 -0.6309 -0.3042
 1357TIP3    H125486   0.382   4.893   5.738  0.5702  0.5228  0.5386
 1357TIP3    H225487   0.255   4.820   5.777  0.5337 -0.7278 -1.7408
 1358TIP3   OH225488   0.932   4.960  13.852 -0.5401  0.2495  0.3750
 1358TIP3    H125489   0.884   4.916  13.922  1.0559  0.1459  1.4740
 1358TIP3    H225490   0.991   5.020  13.898 -0.6010  1.4112 -0.9735
 1359TIP3   OH225491   2.565   5.067  14.263 -0.5501 -0.2387  0.0696
 1359TIP3    H125492   2.586   5.117  14.342 -1.0045  1.1202 -0.6387
 1359TIP3    H225493   2.596   4.978  14.282 -1.5208 -0.1941  2.1500
 1360TIP3   OH225494   5.556   5.963  14.307  0.7148  0.1628  0.2184
 1360TIP3    H125495   5.578   5.880  14.264  0.4083  0.4555 -0.5071
 1360TIP3    H225496   5.524   6.019  14.237 -1.9006 -0.0672  1.1305
 1361TIP3   OH225497   0.640   5.442  11.505  0.9262  0.5134  0.5728
 1361TIP3    H125498   0.664   5.512  11.445 -1.8998  0.3927 -0.8470
 1361TIP3    H225499   0.632   5.365  11.449 -1.4552  0.3324  1.0815
 1362TIP3   OH225500   2.307   6.303  17.251 -0.2361  0.6409 -0.2532
 1362TIP3    H125501   2.317   6.317  17.345  1.1842 -1.2901 -0.0739
 1362TIP3    H225502   2.331   6.387  17.212 -0.2624  1.2803  1.0563
 1363TIP3   OH225503   3.447   5.613   1.400 -0.3398  0.1952 -0.2676
 1363TIP3    H125504   3.511   5.550   1.431 -1.2101 -0.4493  0.2609
 1363TIP3    H225505   3.363   5.568   1.409 -1.1694  1.9984  1.6706
 1364TIP3   OH225506   3.793   6.057  12.770  0.7552 -0.2594 -0.1868
 1364TIP3    H125507   3.837   6.033  12.688 -0.1788  1.2034 -1.1557
 1364TIP3    H225508   3.835   6.002  12.836  1.2838 -1.7554 -1.6886
 1365TIP3   OH225509   3.394   6.237   3.618 -0.4330 -0.1846  0.0272
 1365TIP3    H125510   3.432   6.199   3.539 -0.7698 -0.1600 -0.1452
 1365TIP3    H225511   3.341   6.168   3.655 -1.0616  0.1174 -0.2969
 1366TIP3   OH225512   1.942   0.900  11.946 -0.1768 -0.4764 -0.0583
 1366TIP3    H125513   1.861   0.933  11.908  0.4633 -0.0212 -1.0876
 1366TIP3    H225514   1.927   0.901  12.041 -1.0873  0.3199 -0.1997
 1367TIP3   OH225515   2.201   4.620   4.240 -0.1061 -0.2269 -0.6450
 1367TIP3    H125516   2.185   4.557   4.310  1.1189  1.7160  1.5221
 1367TIP3    H225517   2.114   4.650   4.214 -0.5653 -0.2944  0.7433
 1368TIP3   OH225518   1.313   5.562  11.694  0.7092 -0.1167 -0.6559
 1368TIP3    H125519   1.317   5.590  11.603  2.3838 -1.5434 -1.0703
 1368TIP3    H225520   1.282   5.472  11.691  2.2420 -0.7029  0.0113
 1369TIP3   OH225521   0.473   4.184  11.370  0.2024 -0.0789  0.1944
 1369TIP3    H125522   0.514   4.241  11.435  0.6673 -0.3850  0.1698
 1369TIP3    H225523   0.451   4.243  11.298  1.3209 -0.0354 -0.1311
 1370TIP3   OH225524   2.829   0.192  13.420  0.0183 -0.0213  0.0380
 1370TIP3    H125525   2.856   0.134  13.350  1.1087 -0.9399  1.1709
 1370TIP3    H225526   2.867   0.154  13.499 -0.4432  1.4487  1.0184
 1371TIP3   OH225527   1.943   4.694   1.897  0.3419  0.6577 -0.2801
 1371TIP3    H125528   1.943   4.723   1.989  0.6674  0.2597 -0.1522
 1371TIP3    H225529   1.901   4.608   1.900 -1.9369  1.6800 -0.8504
 1372TIP3   OH225530   5.082   6.709   3.638 -0.5997  0.3370  0.2511
 1372TIP3    H125531   5.117   6.756   3.714 -2.1137  0.7145  0.7599
 1372TIP3    H225532   5.019   6.647   3.675  1.1809 -2.0209 -0.4279
 1373TIP3   OH225533   3.715   5.112   1.529 -0.5389  0.3971  0.4083
 1373TIP3    H125534   3.627   5.105   1.565  0.2837 -0.9588  2.3083
 1373TIP3    H225535   3.760   5.035   1.561  1.1423  0.6477 -1.1880
 1374TIP3   OH225536   2.603   0.821  13.217 -0.4845 -0.1738 -0.0764
 1374TIP3    H125537   2.691   0.784  13.224  0.5218  1.7238 -1.7093
 1374TIP3    H225538   2.616   0.916  13.219 -2.3480  0.1798 -1.7423
 1375TIP3   OH225539   2.814   2.779  16.232 -0.1929 -0.8206  0.0523
 1375TIP3    H125540   2.811   2.731  16.315  3.2450 -0.0186  0.8136
 1375TIP3    H225541   2.808   2.871  16.257 -0.7802 -0.6198 -0.7899
 1376TIP3   OH225542   1.411   6.452  15.625 -0.7399  0.3006 -0.5459
 1376TIP3    H125543   1.361   6.532  15.606 -0.6974  0.5231  0.2377
 1376TIP3    H225544   1.479   6.449  15.558 -0.6543  1.0034 -0.4954
 1377TIP3   OH225545   4.142   6.020  14.239  1.2535 -0.0712  0.1673
 1377TIP3    H125546   4.191   5.957  14.187 -0.6509 -0.3088 -1.4835
 1377TIP3    H225547   4.083   6.062  14.176 -0.0245  0.7979  1.8589
 1378TIP3   OH225548   2.219   3.448   6.307  0.5625  0.7264 -0.0261
 1378TIP3    H125549   2.209   3.426   6.399 -0.0095 -2.2221 -0.7056
 1378TIP3    H225550   2.297   3.399   6.279 -0.0050  0.5557 -1.3874
 1379TIP3   OH225551   0.481   0.558  16.495  0.1354  0.2286  0.0669
 1379TIP3    H125552   0.553   0.499  16.474  0.3287  0.6754 -0.5518
 1379TIP3    H225553   0.495   0.582  16.586 -0.8527 -1.9424  0.8604
 1380TIP3   OH225554   6.013   0.634   4.094  1.0425 -0.4483 -0.2847
 1380TIP3    H125555   6.067   0.676   4.028  1.8074 -2.3214 -0.9063
 1380TIP3    H225556   6.024   0.540   4.079  0.3141 -0.9194  1.7564
 1381TIP3   OH225557   0.501   6.330  11.133 -0.3679  0.0193 -0.3246
 1381TIP3    H125558   0.471   6.265  11.197  1.3032 -1.0286 -0.5314
 1381TIP3    H225559   0.513   6.280  11.052  1.2425  0.5027 -0.4139
 1382TIP3   OH225560   1.661   0.787  14.542  0.2929  0.2325  0.1607
 1382TIP3    H125561   1.652   0.874  14.502 -1.0327 -0.9138 -2.2927
 1382TIP3    H225562   1.613   0.793  14.625 -0.9891  1.4996 -0.6263
 1383TIP3   OH225563   5.973   0.349   4.014 -0.1989  0.1045  0.5484
 1383TIP3    H125564   6.029   0.366   3.939 -1.1669  0.4923 -0.1005
 1383TIP3    H225565   5.959   0.254   4.012 -0.0183  0.0811  0.3907
 1384TIP3   OH225566   4.651   4.859   1.142 -0.1031  0.4356  0.4366
 1384TIP3    H125567   4.731   4.806   1.145 -0.6809 -0.4229  1.3665
 1384TIP3    H225568   4.670   4.932   1.201  0.7427  1.3823 -0.9456
 1385TIP3   OH225569   2.365   1.824  14.934  0.2707 -0.1297 -0.2378
 1385TIP3    H125570   2.289   1.881  14.947 -0.3113 -1.2465  1.6268
 1385TIP3    H225571   2.352   1.785  14.848  0.6905  2.4884 -1.5728
 1386TIP3   OH225572   1.701   5.561   4.784 -0.5141  0.0942 -0.1558
 1386TIP3    H125573   1.715   5.472   4.752 -0.8680 -0.3877  0.9518
 1386TIP3    H225574   1.616   5.557   4.828  0.0525  0.6401  1.0306
 1387TIP3   OH225575   4.340   5.646  15.904 -0.2159  0.5755 -0.1478
 1387TIP3    H125576   4.326   5.738  15.881 -1.2565  0.6791  0.7955
 1387TIP3    H225577   4.281   5.631  15.978  1.0649 -0.4400  0.7146
 1388TIP3   OH225578   0.128   3.372   3.892 -0.2784 -0.2240  0.1547
 1388TIP3    H125579   0.053   3.432   3.893 -0.0309  0.1666 -1.3096
 1388TIP3    H225580   0.194   3.417   3.839  0.3977 -1.2423  0.0969
 1389TIP3   OH225581   6.451   1.076  14.658  0.1202 -0.8060 -0.3300
 1389TIP3    H125582   6.364   1.039  14.669 -0.1188 -0.2009 -0.1591
 1389TIP3    H225583   6.440   1.170  14.674  0.9900 -0.8605  0.7659
 1390TIP3   OH225584   5.295   5.366   1.090  0.0610  0.2237  0.1434
 1390TIP3    H125585   5.382   5.327   1.080 -0.7762 -1.2477 -2.3972
 1390TIP3    H225586   5.309   5.460   1.083  1.6114  0.1309  1.5151
 1391TIP3   OH225587   4.337   2.360  11.272 -0.7375  0.0058  0.3268
 1391TIP3    H125588   4.409   2.409  11.233 -0.8079  0.4459  0.7427
 1391TIP3    H225589   4.372   2.326  11.354 -0.1762 -2.0191 -0.6815
 1392TIP3   OH225590   6.197   0.910  12.705 -0.1040  0.0883  0.3627
 1392TIP3    H125591   6.287   0.879  12.693 -0.5736 -0.8140 -1.1892
 1392TIP3    H225592   6.159   0.907  12.617 -1.1328  2.1487  0.6764
 1393TIP3   OH225593   3.562   5.196  17.245 -0.4503  0.2036  0.4050
 1393TIP3    H125594   3.636   5.247  17.212 -0.7983 -1.0386 -2.6953
 1393TIP3    H225595   3.518   5.254  17.307  1.0241  2.3694 -0.4486
 1394TIP3   OH225596   4.273   0.343   1.570  0.0373 -0.1900  0.0187
 1394TIP3    H125597   4.349   0.370   1.519 -1.0401  1.4150 -0.8309
 1394TIP3    H225598   4.246   0.422   1.617 -1.7730 -0.3754 -0.6145
 1395TIP3   OH225599   6.132   2.158  17.044  0.3965 -0.4395  0.2834
 1395TIP3    H125600   6.041   2.134  17.066  0.6406 -0.4668  1.3018
 1395TIP3    H225601   6.178   2.075  17.041  0.3253 -0.4575 -0.5980
 1396TIP3   OH225602   3.818   2.096  16.086 -0.5850  0.1848  0.1754
 1396TIP3    H125603   3.813   2.003  16.110  0.8545  0.3047  1.0408
 1396TIP3    H225604   3.812   2.143  16.168  0.5745  0.7706 -0.0565
 1397TIP3   OH225605   1.076   5.894   5.341  0.2344  0.5850 -0.0666
 1397TIP3    H125606   1.148   5.831   5.337  0.6602  1.0036  0.6526
 1397TIP3    H225607   1.002   5.844   5.376  0.3596  0.3085 -0.1954
 1398TIP3   OH225608   4.745   2.528  16.796  0.0853  0.1329 -0.6312
 1398TIP3    H125609   4.674   2.463  16.799  1.3055 -1.3238 -1.8051
 1398TIP3    H225610   4.718   2.595  16.859 -2.2140 -0.4786 -0.8714
 1399TIP3   OH225611   6.037   3.347   3.574  0.1214 -0.1697 -0.6662
 1399TIP3    H125612   6.051   3.255   3.551  3.0139 -0.0073 -0.0339
 1399TIP3    H225613   6.126   3.381   3.587 -0.9482  2.2862  0.7729
 1400TIP3   OH225614   4.610   0.096   1.787  0.0310 -0.3860 -0.0992
 1400TIP3    H125615   4.545   0.144   1.736 -0.2574  0.0616  0.6717
 1400TIP3    H225616   4.668   0.164   1.822  0.2464 -0.6896  0.1465
 1401TIP3   OH225617   5.393   2.961   2.768  0.9239 -0.1578 -0.1506
 1401TIP3    H125618   5.323   3.024   2.790  0.5891  0.3493 -2.4224
 1401TIP3    H225619   5.387   2.894   2.835 -1.7988 -0.1378 -0.2707
 1402TIP3   OH225620   5.031   2.932  14.322 -0.5968  0.5564  0.1008
 1402TIP3    H125621   4.936   2.941  14.322 -0.7863 -0.7761 -2.3415
 1402TIP3    H225622   5.049   2.860  14.262  1.8927 -0.3698  1.8049
 1403TIP3   OH225623   2.039   1.312   2.803 -0.4864  0.8265 -0.0304
 1403TIP3    H125624   2.103   1.334   2.736  1.8687 -2.7366  0.7895
 1403TIP3    H225625   2.008   1.224   2.779 -2.4314  1.0138  1.5410
 1404TIP3   OH225626   6.382   6.643  16.566 -0.5153  0.6175 -0.2977
 1404TIP3    H125627   6.318   6.713  16.580 -0.6146  0.6325 -0.8055
 1404TIP3    H225628   6.463   6.676  16.604 -0.2109  1.5848 -1.7111
 1405TIP3   OH225629   2.379   1.542   0.758  0.1678  0.5012 -0.1118
 1405TIP3    H125630   2.295   1.545   0.803  0.2843 -0.7528  0.2295
 1405TIP3    H225631   2.411   1.632   0.762 -1.8267  1.3439 -1.5845
 1406TIP3   OH225632   4.455   0.246   2.815  0.0313  0.2740  0.0875
 1406TIP3    H125633   4.509   0.184   2.767 -2.8215 -0.6751 -2.1832
 1406TIP3    H225634   4.476   0.230   2.907  2.8911 -0.5677 -0.6201
 1407TIP3   OH225635   3.689   3.268   2.561 -0.4720  0.1323  0.0058
 1407TIP3    H125636   3.664   3.352   2.522  3.3150  0.6380 -1.7349
 1407TIP3    H225637   3.688   3.284   2.656  0.2446  2.2097 -0.2869
 1408TIP3   OH225638   6.327   1.089   1.467 -0.4503 -0.0879  0.0372
 1408TIP3    H125639   6.326   1.125   1.378 -1.2728  1.1063  0.5077
 1408TIP3    H225640   6.363   1.160   1.520 -1.7684 -0.0713  0.9390
 1409TIP3   OH225641   3.870   4.492   3.152  0.2477  0.3392 -0.0779
 1409TIP3    H125642   3.828   4.410   3.175  0.8261  0.5429  1.8545
 1409TIP3    H225643   3.831   4.516   3.068  0.0079 -1.8441 -0.6467
 1410TIP3   OH225644   0.614   2.018   2.272 -0.0150  0.2388  0.0432
 1410TIP3    H125645   0.525   1.987   2.255  0.2241 -0.8141  0.6043
 1410TIP3    H225646   0.670   1.942   2.254  0.5360  0.0693  2.1627
 1411TIP3   OH225647   6.634   6.269   2.119  0.3128  0.4066  0.2142
 1411TIP3    H125648   6.616   6.339   2.182 -0.0208  0.3347  0.2000
 1411TIP3    H225649   6.641   6.190   2.171 -0.1639  0.3152  0.1420
 1412TIP3   OH225650   3.113   1.021   4.011 -0.4718  0.2439  0.3257
 1412TIP3    H125651   3.040   1.079   3.994 -0.7177 -0.2399 -0.3394
 1412TIP3    H225652   3.136   0.986   3.925  0.2857  0.0941  0.5808
 1413TIP3   OH225653   0.993   5.602   5.158  0.8667  0.3291 -0.0817
 1413TIP3    H125654   0.906   5.595   5.198  0.9163  0.4220  0.0410
 1413TIP3    H225655   0.976   5.616   5.065  0.7132 -2.4140 -0.5759
 1414TIP3   OH225656   1.273   6.289  11.209 -0.2194 -0.6316 -1.0673
 1414TIP3    H125657   1.179   6.291  11.195 -0.4460 -0.2796  0.3530
 1414TIP3    H225658   1.296   6.380  11.230  0.6698 -0.4466 -2.6649
 1415TIP3   OH225659   2.962   5.067  11.948  0.3412  0.2590  0.0295
 1415TIP3    H125660   2.978   5.075  12.041  1.0804 -0.1794 -0.0539
 1415TIP3    H225661   2.883   5.119  11.932  1.5952  2.3711  0.4718
 1416TIP3   OH225662   4.498   2.824   2.142  0.2273  0.6044 -0.5432
 1416TIP3    H125663   4.556   2.769   2.090  1.1843  1.8798 -0.8914
 1416TIP3    H225664   4.455   2.881   2.078 -0.1971  0.7567 -0.1286
 1417TIP3   OH225665   1.622   2.195  11.529  0.0118  0.0974  0.3546
 1417TIP3    H125666   1.638   2.181  11.622 -0.3052 -1.0857  0.2480
 1417TIP3    H225667   1.656   2.283  11.512 -0.1781  0.4441  1.6370
 1418TIP3   OH225668   2.423   0.625  12.384  0.2565 -0.3740 -0.0095
 1418TIP3    H125669   2.505   0.674  12.378 -0.3187  0.4965 -1.2868
 1418TIP3    H225670   2.401   0.625  12.477  0.5270  1.3887  0.0908
 1419TIP3   OH225671   2.520   2.117   4.839 -0.3350 -0.0784  0.0830
 1419TIP3    H125672   2.571   2.087   4.764 -0.5936 -1.3383  0.3781
 1419TIP3    H225673   2.479   2.037   4.873 -0.8735  0.5963  1.0688
 1420TIP3   OH225674   6.731   6.236  16.488  0.0629 -0.1665 -0.3449
 1420TIP3    H125675   6.653   6.267  16.533  0.4005 -1.2698  1.0864
 1420TIP3    H225676   6.802   6.249  16.551  0.7385 -0.7767 -0.9565
 1421TIP3   OH225677   6.133   1.640   2.758 -0.1872  0.0175  0.2635
 1421TIP3    H125678   6.221   1.618   2.730 -0.0423 -0.4248  1.0423
 1421TIP3    H225679   6.144   1.707   2.826 -0.4914  0.5242 -0.1784
 1422TIP3   OH225680   4.466   0.837  15.395  0.1462 -0.3572 -0.5759
 1422TIP3    H125681   4.455   0.830  15.300  0.2676  0.5225 -0.6705
 1422TIP3    H225682   4.545   0.788  15.415  1.4796  1.4275 -1.2799
 1423TIP3   OH225683   3.011   5.612   4.059 -0.9194 -0.8109  0.0948
 1423TIP3    H125684   2.967   5.673   4.118  0.5875 -0.8911  1.3740
 1423TIP3    H225685   3.085   5.662   4.023 -0.8063 -1.2988 -0.3749
 1424TIP3   OH225686   0.170   5.012   0.995 -0.5617  0.0017  0.2074
 1424TIP3    H125687   0.115   5.089   1.012  0.3318  1.2332 -2.0380
 1424TIP3    H225688   0.116   4.938   1.023 -2.4767  1.2848  0.1343
 1425TIP3   OH225689   1.788   3.927   3.881  0.0267 -0.2335 -0.0099
 1425TIP3    H125690   1.788   3.832   3.895 -0.3447 -0.0105  1.5911
 1425TIP3    H225691   1.757   3.937   3.791 -3.3610 -1.5115  0.8515
 1426TIP3   OH225692   4.950   2.010   1.757 -0.5554  0.0189  0.3016
 1426TIP3    H125693   5.025   1.962   1.722  0.2620  2.3132 -1.3668
 1426TIP3    H225694   4.874   1.970   1.715  0.0009 -0.5407 -0.1949
 1427TIP3   OH225695   6.645   5.697   1.424 -0.0837  0.2396 -0.5376
 1427TIP3    H125696   6.602   5.713   1.508  0.1694 -0.5888 -0.2343
 1427TIP3    H225697   6.624   5.773   1.370 -0.6552  0.5471  0.1151
 1428TIP3   OH225698   0.504   5.016   4.761 -0.3393  0.2738  0.8101
 1428TIP3    H125699   0.483   5.066   4.682 -0.5604  1.8307  1.8110
 1428TIP3    H225700   0.583   4.968   4.739  0.6884  2.1375  0.2203
 1429TIP3   OH225701   4.825   2.444   0.572 -0.4826 -0.4596 -0.4418
 1429TIP3    H125702   4.833   2.538   0.555 -2.2043 -0.3310 -0.6160
 1429TIP3    H225703   4.743   2.435   0.620  0.4213 -1.7136  0.9770
 1430TIP3   OH225704   6.387   2.040  17.153 -0.0230 -0.1651 -0.3006
 1430TIP3    H125705   6.355   1.975  17.090 -0.4186 -0.3211  0.0598
 1430TIP3    H225706   6.432   2.105  17.099 -1.8846  0.6470 -0.9563
 1431TIP3   OH225707   3.608   5.716   0.931 -0.4319  0.4960  0.3675
 1431TIP3    H125708   3.538   5.666   0.971  1.0139 -1.4052  0.6585
 1431TIP3    H225709   3.583   5.808   0.943 -2.2236 -0.1140  1.5494
 1432TIP3   OH225710   2.599   6.302  16.898  0.8972  0.7820 -0.1538
 1432TIP3    H125711   2.617   6.344  16.982  0.6129  0.6347 -0.0156
 1432TIP3    H225712   2.517   6.254  16.913  1.1491  0.2825 -0.3469
 1433TIP3   OH225713   5.048   3.550  13.223 -0.0395 -0.1651  0.0010
 1433TIP3    H125714   5.099   3.530  13.301  1.0380 -0.7779 -0.8389
 1433TIP3    H225715   4.957   3.552  13.254  0.4964  1.8016  1.6870
 1434TIP3   OH225716   6.334   1.395   4.228  0.4199 -0.3343 -0.0320
 1434TIP3    H125717   6.394   1.445   4.283  0.8844  1.6132 -2.1609
 1434TIP3    H225718   6.365   1.410   4.139  0.5347 -4.4742 -0.8502
 1435TIP3   OH225719   2.649   4.244   3.959  0.0396  0.0141 -0.2884
 1435TIP3    H125720   2.580   4.190   3.920  0.0931 -1.4972  1.5796
 1435TIP3    H225721   2.699   4.184   4.015  2.1493  1.3278 -0.6503
 1436TIP3   OH225722   0.164   3.362   0.495  0.3218  0.2242  0.5763
 1436TIP3    H125723   0.228   3.339   0.427  1.2517 -0.8826  1.7712
 1436TIP3    H225724   0.149   3.456   0.483  0.6635  0.1199 -0.9584
 1437TIP3   OH225725   0.316   1.981   1.738  0.5859 -0.9285 -0.3178
 1437TIP3    H125726   0.308   2.013   1.648 -0.3313 -0.2200 -0.0038
 1437TIP3    H225727   0.410   1.977   1.753  0.7491 -0.3184 -1.0661
 1438TIP3   OH225728   0.905   4.549  12.667  0.4926 -0.2118  0.0770
 1438TIP3    H125729   0.928   4.473  12.613 -0.0801  0.1506 -0.6878
 1438TIP3    H225730   0.811   4.541  12.681  0.2924  0.7167 -0.6073
 1439TIP3   OH225731   3.037   3.599  11.528 -0.1073 -0.4673  0.1340
 1439TIP3    H125732   3.102   3.597  11.457  1.2738  1.7076  1.2621
 1439TIP3    H225733   3.073   3.540  11.594  1.8274  2.1013  1.5507
 1440TIP3   OH225734   5.539   2.069  16.251  0.3180 -0.1661 -0.0951
 1440TIP3    H125735   5.536   2.002  16.319  0.1931  0.2580  0.3217
 1440TIP3    H225736   5.604   2.132  16.283 -0.5217  0.5893  0.1526
 1441TIP3   OH225737   3.139   2.861   0.465  0.7158  0.3343 -0.2467
 1441TIP3    H125738   3.211   2.823   0.515 -0.0234 -1.1826 -0.2716
 1441TIP3    H225739   3.166   2.853   0.374  0.9761  0.7771 -0.2116
 1442TIP3   OH225740   3.144   0.946   4.668 -0.4554 -0.2825  0.5979
 1442TIP3    H125741   3.186   0.884   4.727  0.2172 -0.8620 -0.4606
 1442TIP3    H225742   3.141   0.901   4.584  0.1779  1.1538 -0.2406
 1443TIP3   OH225743   2.360   5.176   5.299 -0.2510 -0.1312  0.2896
 1443TIP3    H125744   2.310   5.197   5.378  0.5812 -1.5145  1.2217
 1443TIP3    H225745   2.295   5.179   5.229 -1.4762 -0.9630  1.3227
 1444TIP3   OH225746   6.562   1.545  14.411 -0.5007  0.1508  0.0159
 1444TIP3    H125747   6.618   1.606  14.363 -0.9569  1.3289  0.9228
 1444TIP3    H225748   6.622   1.502  14.472 -0.2202 -0.1157 -0.4415
 1445TIP3   OH225749   0.066   1.212  16.488 -0.3847 -0.3297  0.3275
 1445TIP3    H125750   0.018   1.294  16.493  1.1486  0.5565  1.3878
 1445TIP3    H225751   0.122   1.221  16.411  1.4301  0.6168  1.6906
 1446TIP3   OH225752   3.396   2.055   3.077 -0.2671  0.5400 -0.5255
 1446TIP3    H125753   3.305   2.084   3.083 -0.6203 -0.3952 -1.0926
 1446TIP3    H225754   3.412   2.009   3.160 -0.8097 -0.5850 -1.0142
 1447TIP3   OH225755   1.764   2.507  14.105  0.5292  0.1540  0.0236
 1447TIP3    H125756   1.781   2.430  14.052 -0.2029  0.0276 -0.0352
 1447TIP3    H225757   1.851   2.546  14.119  0.8625 -0.4714 -0.2477
 1448TIP3   OH225758   4.563   6.253  12.526 -0.1776 -0.0679 -0.2248
 1448TIP3    H125759   4.541   6.175  12.476  0.3951 -0.3318 -0.0737
 1448TIP3    H225760   4.569   6.223  12.617  1.0026 -0.0683 -0.2785
 1449TIP3   OH225761   4.989   4.788   3.160  0.8648  0.0328  0.1513
 1449TIP3    H125762   5.024   4.745   3.081  0.4208  0.7657 -0.4570
 1449TIP3    H225763   4.894   4.778   3.152  0.7819  0.7056  0.2380
 1450TIP3   OH225764   0.800   2.265  14.346  0.1383 -0.4013 -0.7618
 1450TIP3    H125765   0.844   2.281  14.263  0.0488 -0.3824 -0.8060
 1450TIP3    H225766   0.854   2.309  14.411 -0.0424 -0.0097 -0.8690
 1451TIP3   OH225767   6.463   1.343  12.315  0.5390  0.1817  0.1605
 1451TIP3    H125768   6.507   1.261  12.339  0.9509 -0.4650 -2.5145
 1451TIP3    H225769   6.472   1.348  12.220 -3.0733  1.2730 -0.2675
 1452TIP3   OH225770   2.222   1.534  11.621  0.0475  0.6623  0.8924
 1452TIP3    H125771   2.264   1.583  11.692 -0.2546  1.3073  0.6319
 1452TIP3    H225772   2.151   1.590  11.592  0.3264  0.5159 -0.0950
 1453TIP3   OH225773   5.883   6.050   2.664  0.4802 -0.3821  0.0012
 1453TIP3    H125774   5.848   6.071   2.751  1.1442 -0.8922  0.4094
 1453TIP3    H225775   5.902   6.135   2.625 -0.1526 -0.1328  0.2088
 1454TIP3   OH225776   3.558   1.042  14.000 -0.0378  0.0045  0.4129
 1454TIP3    H125777   3.505   1.004  14.069  0.1230 -0.0903  0.4829
 1454TIP3    H225778   3.494   1.069  13.933 -0.1935  0.1273  0.6112
 1455TIP3   OH225779   3.852   2.553   2.513 -0.3628  0.5628  0.0785
 1455TIP3    H125780   3.891   2.473   2.548 -0.2563 -1.4985 -4.1251
 1455TIP3    H225781   3.759   2.547   2.538 -0.5081 -1.3082 -0.8040
 1456TIP3   OH225782   4.361   3.373   3.002  0.2288 -0.7631 -0.0188
 1456TIP3    H125783   4.384   3.342   3.089  2.0748 -0.8909 -0.5090
 1456TIP3    H225784   4.343   3.467   3.013 -0.7742 -1.0197  0.6766
 1457TIP3   OH225785   5.652   5.261  12.411 -0.4541 -0.1599 -0.2904
 1457TIP3    H125786   5.686   5.252  12.500  0.8622  0.2213 -0.7280
 1457TIP3    H225787   5.607   5.179  12.393 -1.4062  0.0565  0.9917
 1458TIP3   OH225788   1.895   2.823   3.608  0.6280  0.3885  0.3096
 1458TIP3    H125789   1.950   2.785   3.540  2.9190  0.8356  1.8002
 1458TIP3    H225790   1.892   2.916   3.589 -0.4368  0.2501 -0.2807
 1459TIP3   OH225791   2.722   2.087  11.418 -0.4638  0.1388 -0.1111
 1459TIP3    H125792   2.732   2.136  11.336  0.6413 -0.1939 -0.1888
 1459TIP3    H225793   2.706   1.996  11.389 -1.5595  0.2625  0.0433
 1460TIP3   OH225794   5.245   1.934   2.430  0.0008  0.6001 -0.2502
 1460TIP3    H125795   5.339   1.931   2.411 -0.3426  2.5530 -2.5995
 1460TIP3    H225796   5.215   2.015   2.391 -2.5345  0.5271  1.3391
 1461TIP3   OH225797   2.963   0.241  12.223  0.3647 -0.2195  0.1448
 1461TIP3    H125798   2.893   0.226  12.286  0.1803 -2.7166 -0.5497
 1461TIP3    H225799   3.041   0.256  12.276 -0.3079  0.5806  0.9315
 1462TIP3   OH225800   3.053   2.466   1.574  0.5312  0.5308  0.5075
 1462TIP3    H125801   3.009   2.447   1.657  0.9269 -1.8367  0.2476
 1462TIP3    H225802   3.005   2.415   1.509  0.3848  2.1581 -0.7164
 1463TIP3   OH225803   5.749   1.071  12.525 -0.2450  0.0048  0.0306
 1463TIP3    H125804   5.689   1.005  12.491  0.3190 -0.1825 -0.6161
 1463TIP3    H225805   5.713   1.094  12.611 -1.4857  0.2254 -0.5221
 1464TIP3   OH225806   6.331   5.741   1.187  1.2810 -0.3063  0.0050
 1464TIP3    H125807   6.351   5.691   1.266  1.7058  0.0166  0.1019
 1464TIP3    H225808   6.405   5.726   1.129  1.1378 -0.2514 -0.1946
 1465TIP3   OH225809   2.744   2.197  13.735 -0.1726 -0.3156 -0.0565
 1465TIP3    H125810   2.691   2.164  13.808 -0.9405  0.4938 -0.2370
 1465TIP3    H225811   2.833   2.172  13.758 -0.2246  0.9420  1.7887
 1466TIP3   OH225812   1.855   5.411   0.960  0.0451  0.0080  0.3838
 1466TIP3    H125813   1.848   5.438   1.051  0.1283  0.7120  0.1819
 1466TIP3    H225814   1.888   5.321   0.965  0.1459  0.0759  1.0443
 1467TIP3   OH225815   3.781   5.954  11.212 -0.3419 -0.5093  0.5203
 1467TIP3    H125816   3.867   5.959  11.170 -0.5135 -1.5936  0.0228
 1467TIP3    H225817   3.778   6.032  11.268  0.1376  0.6494 -0.9959
 1468TIP3   OH225818   2.473   0.514   2.285 -0.4945 -0.4119 -0.1258
 1468TIP3    H125819   2.474   0.452   2.358  0.2382  0.1857  0.3833
 1468TIP3    H225820   2.524   0.470   2.216 -2.8550 -1.8651 -1.0816
 1469TIP3   OH225821   6.370   4.958   5.789  0.4536 -0.0815  0.8300
 1469TIP3    H125822   6.311   5.031   5.807  1.8860  1.2144  0.4755
 1469TIP3    H225823   6.330   4.913   5.714 -1.0648 -0.4116  1.7992
 1470TIP3   OH225824   6.137   1.015  13.819  0.2884  0.3076  0.8236
 1470TIP3    H125825   6.207   1.035  13.756  0.4705  2.6438  1.6481
 1470TIP3    H225826   6.120   0.922  13.807  0.6421  0.5302 -2.3376
 1471TIP3   OH225827   1.513   5.236  16.756  0.3510 -0.2467 -0.2634
 1471TIP3    H125828   1.526   5.141  16.761  0.8544 -0.1553  0.2590
 1471TIP3    H225829   1.423   5.247  16.724 -0.3755 -0.9033  1.4499
 1472TIP3   OH225830   3.979   1.219   0.216 -0.2614 -0.6207  0.2971
 1472TIP3    H125831   3.933   1.294   0.178  0.8393  0.0268  0.1802
 1472TIP3    H225832   3.918   1.146   0.209 -1.0572  0.0908 -0.3224
 1473TIP3   OH225833   4.054   1.443   5.722 -0.1118 -0.3106 -0.2426
 1473TIP3    H125834   4.066   1.462   5.815  0.1306  1.5788 -0.6182
 1473TIP3    H225835   3.961   1.455   5.707 -0.5426 -2.6168  0.1070
 1474TIP3   OH225836   0.173   1.382   0.767  0.5243  0.2185  0.3305
 1474TIP3    H125837   0.250   1.419   0.724  1.6241 -0.2772  1.7914
 1474TIP3    H225838   0.163   1.295   0.729  1.4444 -0.1903  1.0079
 1475TIP3   OH225839   5.833   1.320  12.389 -0.1790  0.2484  0.5223
 1475TIP3    H125840   5.794   1.291  12.307 -1.1770  0.5050  0.8833
 1475TIP3    H225841   5.853   1.240  12.437  1.4272  0.0593 -0.3980
 1476TIP3   OH225842   6.177   3.311   2.688 -0.6328  0.4083  0.3122
 1476TIP3    H125843   6.235   3.263   2.628  0.4153  0.6786  1.0740
 1476TIP3    H225844   6.235   3.375   2.730 -1.5150  0.7387  1.0400
 1477TIP3   OH225845   6.107   6.608  13.740  0.0766  0.1198  0.4874
 1477TIP3    H125846   6.189   6.561  13.725  0.7677  1.7300 -1.0781
 1477TIP3    H225847   6.133   6.700  13.748 -1.5529  0.6511  0.1014
 1478TIP3   OH225848   3.473   6.607   1.655  0.0577 -0.3341  0.1023
 1478TIP3    H125849   3.566   6.583   1.651 -0.2415 -1.4037 -0.8830
 1478TIP3    H225850   3.426   6.524   1.644 -1.0114  0.3325 -0.5586
 1479TIP3   OH225851   1.135   4.304   3.737 -0.0704 -0.2785 -0.0977
 1479TIP3    H125852   1.197   4.371   3.766  0.0206 -0.2510 -0.3548
 1479TIP3    H225853   1.111   4.330   3.648 -1.3551  0.3747  0.4013
 1480TIP3   OH225854   2.619   1.980  11.931 -0.3835  0.3305 -0.9075
 1480TIP3    H125855   2.631   1.887  11.954 -0.7046  0.7016  0.9520
 1480TIP3    H225856   2.685   2.026  11.982 -1.9795  1.3437  0.3505
 1481TIP3   OH225857   3.999   6.406   6.400  0.3063  0.4409 -0.3384
 1481TIP3    H125858   4.085   6.441   6.424 -0.2822  2.5431 -1.1061
 1481TIP3    H225859   4.012   6.369   6.312  0.7815 -0.8229  0.2286
 1482TIP3   OH225860   5.178   2.677   2.833 -0.1654  0.1049  0.0017
 1482TIP3    H125861   5.192   2.741   2.903 -0.5168  1.0913 -0.8120
 1482TIP3    H225862   5.164   2.595   2.880 -1.8335  0.9867  1.1916
 1483TIP3   OH225863   5.961   5.334   1.188  0.2522  0.1791  0.0519
 1483TIP3    H125864   5.968   5.375   1.102  0.4145 -0.2625 -0.1494
 1483TIP3    H225865   5.935   5.244   1.170  0.2936  0.0821  0.4621
 1484TIP3   OH225866   3.602   5.185   0.679 -0.3712  0.0510 -0.4182
 1484TIP3    H125867   3.590   5.110   0.620  1.0086 -0.4819 -0.0557
 1484TIP3    H225868   3.632   5.256   0.621  0.6770 -0.3829 -0.4339
 1485TIP3   OH225869   0.275   4.995   5.252 -0.1001 -0.2294 -0.4825
 1485TIP3    H125870   0.337   4.945   5.305 -1.4330 -0.2428  1.1504
 1485TIP3    H225871   0.195   4.942   5.253 -0.7055  0.6468 -0.9734
 1486TIP3   OH225872   2.259   4.164   6.744  0.1510  0.2778 -0.6142
 1486TIP3    H125873   2.180   4.115   6.721 -1.1474  1.3065  1.4190
 1486TIP3    H225874   2.330   4.112   6.708 -1.4292 -0.3109 -3.2019
 1487TIP3   OH225875   2.940   4.414  16.278 -0.2363 -0.5288  0.3018
 1487TIP3    H125876   2.931   4.491  16.334  1.7033 -0.9311  1.2616
 1487TIP3    H225877   2.971   4.447  16.194  1.2500 -0.2744  0.9186
 1488TIP3   OH225878   3.221   1.761  11.845 -0.1124 -0.2782  0.3363
 1488TIP3    H125879   3.165   1.756  11.767 -0.7356  1.0325  0.6805
 1488TIP3    H225880   3.259   1.849  11.843 -1.0330  0.2083  2.1006
 1489TIP3   OH225881   4.731   2.461  13.584  0.1355  0.6884  0.0987
 1489TIP3    H125882   4.823   2.482  13.567  0.6373 -0.4472  1.2067
 1489TIP3    H225883   4.718   2.375  13.544 -0.3752  0.7180  0.1879
 1490TIP3   OH225884   5.120   2.689   2.029 -0.9383 -0.6983  0.3055
 1490TIP3    H125885   5.139   2.666   1.937 -3.7584  0.6377 -0.7030
 1490TIP3    H225886   5.185   2.755   2.050 -0.3115 -0.9386 -0.7562
 1491TIP3   OH225887   5.708   2.392   0.487 -0.0844  0.3441  0.0218
 1491TIP3    H125888   5.706   2.463   0.551  1.8587 -0.5078  1.1343
 1491TIP3    H225889   5.770   2.421   0.420 -1.0768  0.6554 -0.7852
 1492TIP3   OH225890   2.749   2.624   1.583  0.0564 -0.3355 -0.0634
 1492TIP3    H125891   2.768   2.621   1.489 -0.7503 -1.7502 -0.2094
 1492TIP3    H225892   2.658   2.655   1.588  0.5280  1.0354  0.3350
 1493TIP3   OH225893   1.034   1.140  15.045  1.1119 -0.7695  0.9768
 1493TIP3    H125894   1.104   1.160  15.107  0.4630  0.4039  1.3654
 1493TIP3    H225895   1.053   1.193  14.968 -0.0399  0.6604  1.6063
 1494TIP3   OH225896   1.267   2.044  13.379 -0.1001  0.4579  0.3357
 1494TIP3    H125897   1.199   1.990  13.421 -0.2574  0.7748  0.4890
 1494TIP3    H225898   1.276   2.119  13.437 -0.1497  0.7855 -0.0820
 1495TIP3   OH225899   6.025   3.866   3.717  0.6324  0.7606 -0.4355
 1495TIP3    H125900   6.093   3.839   3.655 -0.9309 -0.8854 -1.5260
 1495TIP3    H225901   6.010   3.958   3.698  1.5830  0.7797 -1.1421
 1496TIP3   OH225902   5.384   0.245   5.101 -0.0524  0.0946  0.2098
 1496TIP3    H125903   5.422   0.167   5.061  0.5790  1.0294 -1.0602
 1496TIP3    H225904   5.356   0.215   5.188 -1.5483 -2.0170 -0.8935
 1497TIP3   OH225905   4.429   4.089   1.123  0.4247 -0.6449 -0.1958
 1497TIP3    H125906   4.334   4.096   1.107  0.3337  0.2236  0.6578
 1497TIP3    H225907   4.440   4.117   1.213  1.5950 -0.0182 -0.5211
 1498TIP3   OH225908   3.102   0.116  14.597  0.1199 -0.4383 -0.5287
 1498TIP3    H125909   3.087   0.210  14.588 -1.8987 -0.3326  2.4551
 1498TIP3    H225910   3.042   0.089  14.666  2.9508 -3.3166  1.0696
 1499TIP3   OH225911   1.733   2.911   1.500  0.0272  0.2639 -0.1444
 1499TIP3    H125912   1.826   2.922   1.482 -0.4207  0.7676 -2.4857
 1499TIP3    H225913   1.690   2.974   1.443 -1.7970 -0.6054  0.2019
 1500TIP3   OH225914   2.612   3.401  10.798  0.1041  0.0881 -0.2794
 1500TIP3    H125915   2.588   3.347  10.873 -0.0375  1.0589  0.3964
 1500TIP3    H225916   2.704   3.379  10.780 -0.2398 -1.0856 -0.6529
 1501TIP3   OH225917   4.468   2.646  13.871 -0.4151 -0.1080  0.2533
 1501TIP3    H125918   4.464   2.582  13.941  0.3269  0.8317  1.1783
 1501TIP3    H225919   4.559   2.676  13.871 -0.7664  0.9838 -0.1266
 1502TIP3   OH225920   3.068   0.802  17.212  0.3658 -0.2451  0.4295
 1502TIP3    H125921   3.057   0.839  17.124  1.1833 -1.8479 -0.4003
 1502TIP3    H225922   3.158   0.771  17.214  0.7397  0.8075  2.2915
 1503TIP3   OH225923   5.259   0.491   0.464  0.3633 -0.0496  0.2917
 1503TIP3    H125924   5.173   0.523   0.436 -0.1222  0.5081  2.2977
 1503TIP3    H225925   5.321   0.538   0.408 -0.4743  2.4007  1.3068
 1504TIP3   OH225926   2.729   4.955   5.524  0.3362  0.1968 -0.9037
 1504TIP3    H125927   2.652   4.951   5.467 -0.1942  0.0114 -0.1755
 1504TIP3    H225928   2.776   5.034   5.495 -1.6437  2.0263  0.5482
 1505TIP3   OH225929   0.665   5.111   3.301 -0.2101  0.7760  0.5978
 1505TIP3    H125930   0.656   5.164   3.381  0.1729 -0.0545  1.2072
 1505TIP3    H225931   0.742   5.056   3.318 -2.0819 -1.8761  1.1082
 1506TIP3   OH225932   6.183   6.483  16.204  0.6301 -0.1985  0.3560
 1506TIP3    H125933   6.100   6.448  16.171  1.0551 -1.5147  0.6703
 1506TIP3    H225934   6.202   6.433  16.283  1.3042  0.6756  0.7700
 1507TIP3   OH225935   1.797   4.978  11.590 -0.4955 -0.0074  0.5095
 1507TIP3    H125936   1.755   4.921  11.526  0.1474  1.2922 -1.1594
 1507TIP3    H225937   1.765   5.066  11.569 -0.4913  0.4455  2.1983
 1508TIP3   OH225938   0.596   1.032   2.170 -0.5418  0.0787  0.0747
 1508TIP3    H125939   0.661   1.050   2.102 -0.4601  2.4571  0.7169
 1508TIP3    H225940   0.646   1.028   2.251 -0.9635 -0.0627  0.3330
 1509TIP3   OH225941   1.092   5.791   6.045 -0.1200 -0.4705 -0.2713
 1509TIP3    H125942   1.013   5.844   6.042  0.6045  0.9746  2.4011
 1509TIP3    H225943   1.087   5.745   6.129  2.4345  0.7793  0.6915
 1510TIP3   OH225944   3.851   3.390  15.611 -0.5328  0.1614 -0.9226
 1510TIP3    H125945   3.905   3.345  15.547 -0.9545 -0.5441 -0.7920
 1510TIP3    H225946   3.869   3.346  15.694  0.1782  1.2119 -0.4960
 1511TIP3   OH225947   3.485   5.187   1.740  0.0416 -0.3947 -0.0519
 1511TIP3    H125948   3.551   5.231   1.793  1.6302 -0.3936 -1.9021
 1511TIP3    H225949   3.401   5.214   1.778  1.0599 -0.5427  2.4995
 1512TIP3   OH225950   0.680   1.366  13.441  0.4326 -0.1654 -0.2630
 1512TIP3    H125951   0.628   1.446  13.447  0.5912  0.2050 -2.7425
 1512TIP3    H225952   0.769   1.396  13.425  0.1860 -0.7223 -3.3089
 1513TIP3   OH225953   5.770   0.508   5.199 -0.2429  0.2162 -0.2856
 1513TIP3    H125954   5.809   0.446   5.261 -0.4521 -0.5117 -0.8670
 1513TIP3    H225955   5.816   0.492   5.117 -0.3312  0.8044 -0.4538
 1514TIP3   OH225956   1.211   5.700  10.614  0.3073 -0.3776 -0.4475
 1514TIP3    H125957   1.222   5.648  10.693 -0.2898  0.5003  0.2344
 1514TIP3    H225958   1.298   5.738  10.598  1.0911 -2.5125 -1.6769
 1515TIP3   OH225959   0.013   2.316  17.387  0.3772  0.8090  0.3519
 1515TIP3    H125960   0.059   2.325  17.303  1.7815  0.0049  1.0010
 1515TIP3    H225961  -0.071   2.277  17.364  0.5440  1.0581 -0.7364
 1516TIP3   OH225962   2.910   4.990  17.335  0.5268 -0.0157  0.2275
 1516TIP3    H125963   2.856   4.934  17.280 -0.8950  1.2016  0.3120
 1516TIP3    H225964   2.887   5.079  17.308  1.2056  0.5650  1.4826
 1517TIP3   OH225965   1.544   2.215  12.687  0.3904 -0.1335 -0.2230
 1517TIP3    H125966   1.580   2.155  12.753  1.4840 -0.4780 -1.1053
 1517TIP3    H225967   1.475   2.165  12.644  0.8261 -0.5174 -0.4826
 1518TIP3   OH225968   5.572   4.896  13.459  0.0911 -0.3913  0.0806
 1518TIP3    H125969   5.495   4.856  13.420  1.4963 -1.9734 -1.2607
 1518TIP3    H225970   5.576   4.861  13.547 -0.2120 -1.0673 -0.1716
 1519TIP3   OH225971   2.805   4.134  13.849 -0.5577 -0.1885 -0.2189
 1519TIP3    H125972   2.867   4.154  13.779  2.2641 -1.5898  1.6705
 1519TIP3    H225973   2.801   4.038  13.851 -3.1402 -0.1381 -0.5003
 1520TIP3   OH225974   3.035   4.997   3.140  0.0953  0.0494 -0.4511
 1520TIP3    H125975   3.124   5.028   3.156 -0.4639  0.9956  1.1489
 1520TIP3    H225976   3.016   4.940   3.215 -0.9469  0.6284 -0.2454
 1521TIP3   OH225977   1.109   5.407   5.288  0.3585 -0.1793 -0.2584
 1521TIP3    H125978   1.042   5.344   5.314  0.4331 -0.5752 -0.9897
 1521TIP3    H225979   1.065   5.465   5.226  0.7268 -0.5523 -0.8832
 1522TIP3   OH225980   2.373   1.706  14.350 -0.0485 -0.6675  0.2444
 1522TIP3    H125981   2.457   1.719  14.393  0.5135 -3.1723  0.0342
 1522TIP3    H225982   2.339   1.624  14.388 -1.9524 -0.2155 -0.3664
 1523TIP3   OH225983   1.827   2.621  16.171 -0.2992 -0.3501  0.1231
 1523TIP3    H125984   1.743   2.582  16.146 -0.9006 -0.0743  1.5916
 1523TIP3    H225985   1.836   2.697  16.113 -0.3640 -1.1615 -0.9918
 1524TIP3   OH225986   3.602   3.552   2.679  0.4791  0.3496 -0.4227
 1524TIP3    H125987   3.598   3.640   2.642  1.1111  0.5412 -0.0599
 1524TIP3    H225988   3.544   3.499   2.623  0.8556  0.7822 -1.2412
 1525TIP3   OH225989   6.498   2.044  16.147  0.4712 -0.2394  0.4281
 1525TIP3    H125990   6.467   2.058  16.237  2.2957  1.2916  0.8911
 1525TIP3    H225991   6.471   1.955  16.126 -2.6579  0.3936  1.3321
 1526TIP3   OH225992   3.397   4.731  15.961 -0.4062 -0.1747 -0.1101
 1526TIP3    H125993   3.356   4.659  15.913 -0.8321 -0.1249  0.1701
 1526TIP3    H225994   3.453   4.688  16.025 -1.0152 -0.2740  0.3686
 1527TIP3   OH225995   3.475   4.775   0.863  0.8634  0.3843  0.1965
 1527TIP3    H125996   3.390   4.820   0.869 -0.2850 -1.6267 -0.0017
 1527TIP3    H225997   3.510   4.803   0.778  0.0127  0.6427 -0.0910
 1528TIP3   OH225998   2.645   4.883   2.864 -0.2486  0.3064  0.2127
 1528TIP3    H125999   2.740   4.875   2.863 -0.2115  0.5466  0.9947
 1528TIP3    H226000   2.614   4.806   2.911 -0.3931  0.5421  0.5159
 1529TIP3   OH226001   2.813   5.036  12.527  0.6026 -0.2299  0.0517
 1529TIP3    H126002   2.834   5.096  12.598  0.9476 -0.3182  0.0222
 1529TIP3    H226003   2.876   4.965  12.535  1.3691  0.3001 -1.0160
 1530TIP3   OH226004   2.266   2.587   3.295  0.2731  0.0175  0.5912
 1530TIP3    H126005   2.209   2.510   3.299 -1.0893  0.9401 -0.4372
 1530TIP3    H226006   2.336   2.562   3.234 -0.0466 -0.4833  0.4284
 1531TIP3   OH226007   1.227   2.881   4.675  0.1054  0.0072 -0.4377
 1531TIP3    H126008   1.133   2.889   4.687  0.3041  1.2610  0.3718
 1531TIP3    H226009   1.239   2.791   4.644 -1.4634  0.2023 -1.7536
 1532TIP3   OH226010   4.292   1.881   2.914 -0.0138 -0.5884  0.6739
 1532TIP3    H126011   4.292   1.953   2.852 -1.3497  0.4889  1.8472
 1532TIP3    H226012   4.385   1.860   2.926  0.3993  0.8101  0.1640
 1533TIP3   OH226013   5.671   4.624   4.760  0.9397  0.2587  0.5630
 1533TIP3    H126014   5.635   4.576   4.834  1.4943 -0.9195  0.1017
 1533TIP3    H226015   5.766   4.617   4.770  1.0691 -1.3360 -1.0593
 1534TIP3   OH226016   4.708   6.135   2.552 -0.2252  0.5127 -0.2748
 1534TIP3    H126017   4.773   6.205   2.545 -0.3792  0.5292 -1.9354
 1534TIP3    H226018   4.630   6.169   2.509 -0.7183 -0.2294 -0.0040
 1535TIP3   OH226019   2.211   5.738  14.856 -0.6773  0.6028  0.3967
 1535TIP3    H126020   2.226   5.647  14.882 -0.1500  0.4297 -0.4948
 1535TIP3    H226021   2.137   5.765  14.910  0.4626  0.3127  2.1818
 1536TIP3   OH226022   6.519   0.772  17.384 -0.4440  0.0820  0.1789
 1536TIP3    H126023   6.534   0.840  17.450 -2.3563  0.4834  0.2474
 1536TIP3    H226024   6.603   0.763  17.339 -0.0318  2.1973  0.4443
 1537TIP3   OH226025   4.980   0.763  16.188  0.9572 -0.5558  0.0383
 1537TIP3    H126026   5.033   0.743  16.110  0.0390 -1.1830 -0.4513
 1537TIP3    H226027   4.905   0.703  16.181  0.6817 -0.3600  1.2229
 1538TIP3   OH226028   2.665   2.162  11.711 -0.3402 -0.0578 -0.4659
 1538TIP3    H126029   2.637   2.100  11.779 -1.1152 -0.9732 -1.5820
 1538TIP3    H226030   2.675   2.109  11.633 -0.3566  1.1247 -1.2929
 1539TIP3   OH226031   4.250   6.205   4.816  0.2138 -0.7329 -0.1534
 1539TIP3    H126032   4.298   6.245   4.743 -1.2314  0.6158 -0.4312
 1539TIP3    H226033   4.282   6.253   4.893 -0.2189 -0.2512 -0.2642
 1540TIP3   OH226034   1.999   2.420  17.072  0.3048 -0.0564  0.1533
 1540TIP3    H126035   2.023   2.362  16.999  0.9975 -1.0384  1.1434
 1540TIP3    H226036   1.935   2.371  17.123  0.3344  0.3472  0.5875
 1541TIP3   OH226037   5.612   6.591   6.729  0.1798  0.7721 -0.6175
 1541TIP3    H126038   5.521   6.618   6.738  0.3129  0.9791  0.1371
 1541TIP3    H226039   5.662   6.672   6.740  0.5314  0.4001  0.6139
 1542TIP3   OH226040   6.182   6.454  15.169 -0.6335 -0.1235  0.3675
 1542TIP3    H126041   6.101   6.501  15.188 -0.2797  0.1756  1.1613
 1542TIP3    H226042   6.223   6.440  15.254 -1.5912 -3.4927  0.4229
 1543TIP3   OH226043   6.048   6.170  15.109 -0.3902  0.2680  0.0478
 1543TIP3    H126044   6.096   6.161  15.026  1.7926  1.3693  1.1087
 1543TIP3    H226045   6.004   6.255  15.102 -1.0494 -0.0961 -0.3539
 1544TIP3   OH226046   1.134   3.468   0.310 -0.0781  0.1884  0.3634
 1544TIP3    H126047   1.169   3.419   0.385 -0.1203  0.5441  0.6198
 1544TIP3    H226048   1.127   3.404   0.240  0.8086  0.0452  0.3975
 1545TIP3   OH226049   5.519   3.393   2.211  0.4032 -0.2156 -0.2344
 1545TIP3    H126050   5.576   3.466   2.234 -1.3015  1.0964  0.0065
 1545TIP3    H226051   5.495   3.409   2.120 -1.9085  0.9371  0.5115
 1546TIP3   OH226052   3.967   5.737  12.486  0.6727  0.7771  0.0095
 1546TIP3    H126053   4.062   5.740  12.477  0.8315  0.8858  1.4575
 1546TIP3    H226054   3.951   5.664  12.545 -0.1144  1.0268  0.1184
 1547TIP3   OH226055   5.367   6.205  10.827  0.3015 -0.8792  0.0903
 1547TIP3    H126056   5.433   6.225  10.893 -0.1686 -1.5864  0.7900
 1547TIP3    H226057   5.416   6.204  10.744  1.1242 -1.1513  0.5672
 1548TIP3   OH226058   0.472   3.460  14.339  0.1445  0.2497 -0.9339
 1548TIP3    H126059   0.460   3.450  14.433  2.6644 -0.9416 -0.6793
 1548TIP3    H226060   0.494   3.373  14.307  0.9458  0.9317 -2.3668
 1549TIP3   OH226061   2.912   2.477  15.360  0.2977 -0.2572  0.5987
 1549TIP3    H126062   2.962   2.396  15.348 -0.0066 -0.5848  1.4487
 1549TIP3    H226063   2.873   2.468  15.447 -1.3749 -0.0659 -0.1101
 1550TIP3   OH226064   1.401   2.515   5.541 -0.0756  0.1559 -0.0077
 1550TIP3    H126065   1.378   2.534   5.450 -1.8670  1.5176  0.6845
 1550TIP3    H226066   1.454   2.590   5.569 -2.5255  1.5914  1.0758
 1551TIP3   OH226067   4.848   2.232  13.770 -0.3022 -0.4816  0.1869
 1551TIP3    H126068   4.820   2.150  13.811 -1.0021  0.0547  0.8138
 1551TIP3    H226069   4.940   2.218  13.748 -0.8818 -2.1195 -1.4627
 1552TIP3   OH226070   0.379   0.602   6.113 -0.9927 -0.2485  0.2689
 1552TIP3    H126071   0.466   0.639   6.130 -1.1509 -0.8146  2.6703
 1552TIP3    H226072   0.384   0.513   6.147 -2.7592  0.0039  1.2869
 1553TIP3   OH226073   3.991   5.587  16.444  0.4429  0.0244 -0.2217
 1553TIP3    H126074   3.931   5.570  16.516 -0.2237  1.2122 -0.4701
 1553TIP3    H226075   4.071   5.618  16.487 -0.1113  1.1905  0.0171
 1554TIP3   OH226076   1.236   5.203   3.197  0.0467 -0.3553 -0.4644
 1554TIP3    H126077   1.241   5.280   3.140  0.1562  0.1450  0.2124
 1554TIP3    H226078   1.302   5.219   3.264 -2.0456  0.4916  1.5156
 1555TIP3   OH226079   6.461   6.046   3.303  0.7515 -0.2082 -0.3199
 1555TIP3    H126080   6.425   5.960   3.328  0.3610  0.1002  0.1963
 1555TIP3    H226081   6.473   6.040   3.209 -2.6748  0.3658 -0.9324
 1556TIP3   OH226082   2.488   6.720   2.476  0.1691  0.6231 -0.4198
 1556TIP3    H126083   2.398   6.724   2.444 -0.3997  0.0260  1.0558
 1556TIP3    H226084   2.541   6.728   2.396 -1.1744 -2.2167 -1.7519
 1557TIP3   OH226085   5.544   3.833  15.236  0.5643  0.1092 -0.2472
 1557TIP3    H126086   5.603   3.777  15.187 -1.3754  0.3666 -3.0788
 1557TIP3    H226087   5.497   3.774  15.294 -0.7913 -1.1683 -2.5209
 1558TIP3   OH226088   2.921   2.117   4.691 -0.8671 -0.2003 -0.1040
 1558TIP3    H126089   2.979   2.061   4.744 -1.0703 -1.7899 -1.4578
 1558TIP3    H226090   2.980   2.164   4.632 -0.7572  0.3342  0.4315
 1559TIP3   OH226091   0.117   1.037  16.706 -0.0987  0.1886  0.6523
 1559TIP3    H126092   0.207   1.062  16.726  1.1071 -2.2974 -1.1513
 1559TIP3    H226093   0.098   1.079  16.622  0.0517 -0.6993  0.1626
 1560TIP3   OH226094   2.138   0.460   5.113  0.0603  0.3652 -0.0640
 1560TIP3    H126095   2.179   0.497   5.034  1.1942 -1.9586 -0.6423
 1560TIP3    H226096   2.047   0.447   5.088  0.6491 -1.4473 -1.4779
 1561TIP3   OH226097   4.668   3.806   4.625 -0.5745 -0.0193 -0.4892
 1561TIP3    H126098   4.665   3.728   4.569 -0.3244 -0.3435 -0.0496
 1561TIP3    H226099   4.686   3.773   4.713 -2.1791  0.3578  0.0301
 1562TIP3   OH226100   5.474   4.854   4.988 -0.3008 -0.1162 -0.1073
 1562TIP3    H126101   5.514   4.917   5.049 -3.1137  2.3045 -0.5284
 1562TIP3    H226102   5.443   4.783   5.044  0.3474  0.2897  0.8002
 1563TIP3   OH226103   6.260   5.641  12.870 -0.1930 -0.0095  0.2816
 1563TIP3    H126104   6.305   5.645  12.785 -0.9215  0.0414 -0.1124
 1563TIP3    H226105   6.273   5.551  12.899  1.8327  0.5000  1.1273
 1564TIP3   OH226106   2.574   0.411  15.021 -0.1864 -0.1291 -0.1111
 1564TIP3    H126107   2.533   0.447  15.099  0.0034 -1.9006  0.8496
 1564TIP3    H226108   2.616   0.487  14.979 -0.8041  0.9536  1.1543
 1565TIP3   OH226109   2.327   5.920  14.685  0.5675  0.2570  0.0767
 1565TIP3    H126110   2.252   5.927  14.626 -0.8585  2.3673  1.9552
 1565TIP3    H226111   2.294   5.870  14.760  1.5716 -0.2202  0.2205
 1566TIP3   OH226112   6.661   3.362   6.399  0.0740  0.1884 -0.2119
 1566TIP3    H126113   6.678   3.418   6.475  2.6781  1.7087 -1.7549
 1566TIP3    H226114   6.583   3.400   6.359  0.5352  1.4188 -0.0120
 1567TIP3   OH226115   0.989   2.518  15.381 -0.2250  0.5834 -0.9169
 1567TIP3    H126116   0.985   2.485  15.470  0.3415 -0.6312 -1.3166
 1567TIP3    H226117   0.930   2.594  15.380 -1.0434 -0.0144  0.2074
 1568TIP3   OH226118   4.579   1.786   5.768  0.0195  0.1263 -0.4629
 1568TIP3    H126119   4.528   1.706   5.776  0.5237 -0.3551 -1.9659
 1568TIP3    H226120   4.528   1.851   5.817 -1.0659 -0.7846 -0.3533
 1569TIP3   OH226121   3.078   0.674   3.825 -0.2184 -0.7667 -0.1238
 1569TIP3    H126122   3.050   0.764   3.809 -0.7166 -1.1116 -1.3024
 1569TIP3    H226123   3.098   0.672   3.919 -0.0335  0.6044 -0.1087
 1570TIP3   OH226124   4.857   4.674  15.031 -0.4582  0.1103 -0.5359
 1570TIP3    H126125   4.834   4.767  15.027 -1.0827  0.0026  0.2553
 1570TIP3    H226126   4.952   4.673  15.020 -0.3833  0.8913 -0.0788
 1571TIP3   OH226127   5.159   5.578   5.648  0.1268 -0.6092  0.3044
 1571TIP3    H126128   5.148   5.568   5.742  0.7764 -2.5278  0.2098
 1571TIP3    H226129   5.252   5.594   5.636  0.7997 -4.1472 -0.1923
 1572TIP3   OH226130   1.188   0.562  11.499  0.6570 -1.1133 -0.4028
 1572TIP3    H126131   1.262   0.506  11.476  1.4215 -0.6237  0.7859
 1572TIP3    H226132   1.153   0.524  11.580  0.5847 -0.4495 -0.1132
 1573TIP3   OH226133   4.407   0.487  12.617  0.0097  0.2370  0.2467
 1573TIP3    H126134   4.370   0.399  12.613  1.2847 -0.2717 -3.0046
 1573TIP3    H226135   4.424   0.501  12.710 -2.5100 -1.9099  1.1477
 1574TIP3   OH226136   1.368   1.028  17.041 -0.2534  0.2192 -0.1636
 1574TIP3    H126137   1.352   1.058  17.131  0.1340 -1.4185  0.4869
 1574TIP3    H226138   1.425   1.095  17.004  0.9119  0.1317  1.3587
 1575TIP3   OH226139   1.426   2.982   2.433  0.2023  0.2945 -0.3380
 1575TIP3    H126140   1.363   3.046   2.398  0.2576 -0.9894 -3.0702
 1575TIP3    H226141   1.390   2.897   2.406  1.6659 -0.6422  0.5634
 1576TIP3   OH226142   2.604   6.161   2.965  0.2189  0.5219  0.4989
 1576TIP3    H126143   2.687   6.164   2.918 -0.2797 -2.2103 -0.7626
 1576TIP3    H226144   2.626   6.134   3.054  0.7380  0.4101  0.3368
 1577TIP3   OH226145   0.872   1.661   2.946 -0.0020 -0.3148 -0.2008
 1577TIP3    H126146   0.957   1.618   2.941  0.0713 -0.0860 -1.3878
 1577TIP3    H226147   0.827   1.633   2.866 -0.6767  0.3127 -0.0537
 1578TIP3   OH226148   5.161   4.368   3.870  0.4881  0.0660  0.4456
 1578TIP3    H126149   5.121   4.361   3.783 -0.2063  0.3065  0.7315
 1578TIP3    H226150   5.151   4.281   3.908 -2.5292  0.8154  1.6493
 1579TIP3   OH226151   1.255   5.720   4.401  0.2772  0.4387  0.1953
 1579TIP3    H126152   1.326   5.702   4.463  1.5862 -3.7489 -2.1639
 1579TIP3    H226153   1.180   5.673   4.437  0.7360 -1.0689 -0.7475
 1580TIP3   OH226154   3.784   2.388  13.788 -0.0259 -0.4269  0.3326
 1580TIP3    H126155   3.807   2.377  13.696  2.1867 -0.5052  0.8532
 1580TIP3    H226156   3.781   2.483  13.801  2.0092 -0.3717  0.6756
 1581TIP3   OH226157   3.813   3.309  12.665  0.2793  1.1172  0.2035
 1581TIP3    H126158   3.770   3.338  12.745 -0.4374  2.5120 -0.6496
 1581TIP3    H226159   3.906   3.306  12.687 -0.0865 -1.1938  1.8590
 1582TIP3   OH226160   0.188   2.829  16.290  0.0426  0.3414 -0.0793
 1582TIP3    H126161   0.111   2.777  16.269  1.4675 -1.7979 -0.2898
 1582TIP3    H226162   0.189   2.832  16.386  0.3385 -0.6771 -0.0407
 1583TIP3   OH226163   4.072   2.657  13.996 -0.5143 -0.0851  0.1479
 1583TIP3    H126164   4.037   2.630  13.911  1.2855 -0.7852 -0.4252
 1583TIP3    H226165   4.166   2.669  13.981 -0.0073 -0.9542  2.1811
 1584TIP3   OH226166   3.677   6.588  12.196 -0.4287  0.0132 -0.2488
 1584TIP3    H126167   3.671   6.541  12.279 -0.4741  0.9698  0.2994
 1584TIP3    H226168   3.623   6.666  12.208 -0.9727 -0.1519 -1.4069
 1585TIP3   OH226169   6.242   4.069   3.955  0.1131  0.6265  0.1823
 1585TIP3    H126170   6.312   4.004   3.945 -0.6433  0.0188 -1.5384
 1585TIP3    H226171   6.165   4.018   3.979 -0.6361  0.7209 -1.7878
 1586TIP3   OH226172   0.096   4.995   4.576  0.6960  0.4000 -0.4738
 1586TIP3    H126173   0.034   5.062   4.549  1.1636  0.3871 -1.6449
 1586TIP3    H226174   0.047   4.913   4.571  0.4505  0.5243 -0.1478
 1587TIP3   OH226175   6.559   4.504   4.600  0.3464  0.1536  0.2628
 1587TIP3    H126176   6.564   4.495   4.695  1.0754  2.5659  0.4958
 1587TIP3    H226177   6.542   4.415   4.569 -0.9505 -0.5493  2.6969
 1588TIP3   OH226178   4.932   1.629   0.274  0.1521  0.2990 -0.2976
 1588TIP3    H126179   5.014   1.676   0.287  0.4018 -0.2890  0.3988
 1588TIP3    H226180   4.951   1.540   0.304 -0.0565 -0.4868 -2.3830
 1589TIP3   OH226181   4.759   4.559  15.759 -0.2675  0.4340  0.2001
 1589TIP3    H126182   4.801   4.476  15.781 -0.3112 -0.2957 -2.1246
 1589TIP3    H226183   4.811   4.625  15.804  0.9688 -0.7231  0.5409
 1590TIP3   OH226184   3.728   2.068  13.516  0.0338  0.6558  0.3040
 1590TIP3    H126185   3.661   2.049  13.451 -1.1063  3.4194  0.5251
 1590TIP3    H226186   3.756   1.982  13.548 -0.9649 -0.7021 -2.1901
 1591TIP3   OH226187   5.001   5.351   3.060 -0.4197 -0.1690 -0.3455
 1591TIP3    H126188   5.061   5.281   3.086 -0.0396  0.1260 -0.4158
 1591TIP3    H226189   5.050   5.432   3.076 -0.9541  0.0950 -0.0023
 1592TIP3   OH226190   4.737   1.024   1.986  0.6147 -1.0672  0.0245
 1592TIP3    H126191   4.702   1.079   1.915  0.7830  0.2871  0.9469
 1592TIP3    H226192   4.711   0.935   1.962 -2.0583 -0.3419 -0.1872
 1593TIP3   OH226193   0.975   2.427  13.572 -0.1898 -0.2617 -0.0106
 1593TIP3    H126194   0.987   2.521  13.582 -0.0765 -0.2110 -0.5887
 1593TIP3    H226195   0.902   2.405  13.631 -0.2600  0.1980  0.0720
 1594TIP3   OH226196   6.543   3.611   3.763  0.4511  0.1474  0.6947
 1594TIP3    H126197   6.505   3.599   3.676 -1.7222  1.1691  1.4180
 1594TIP3    H226198   6.623   3.662   3.748  1.1213 -1.2952 -0.8355
 1595TIP3   OH226199   0.783   2.189   0.911 -0.4432  0.0600 -0.1327
 1595TIP3    H126200   0.752   2.228   0.993 -0.3028  1.8313 -0.8701
 1595TIP3    H226201   0.801   2.098   0.933  0.8028  0.7709  2.1325
 1596TIP3   OH226202   2.450   3.901  16.924 -0.6256 -0.2477  0.4093
 1596TIP3    H126203   2.433   3.995  16.932  0.8576  0.2110 -1.2161
 1596TIP3    H226204   2.397   3.873  16.850 -1.1640 -0.7277  0.9735
 1597TIP3   OH226205   5.426   3.018   3.962 -0.0816  0.1773 -0.3989
 1597TIP3    H126206   5.391   2.939   3.920 -1.5765  0.0799  0.9439
 1597TIP3    H226207   5.372   3.029   4.041  0.4393  2.2467 -0.2865
 1598TIP3   OH226208   0.179   0.411   5.667 -0.3137  0.1557 -0.2633
 1598TIP3    H126209   0.104   0.467   5.688  1.3822  1.2089  3.9683
 1598TIP3    H226210   0.243   0.469   5.628  0.2335  0.5525  1.1518
 1599TIP3   OH226211   4.140   2.650   1.507  0.5792 -0.5623 -0.3024
 1599TIP3    H126212   4.067   2.659   1.567  0.3527  1.8721 -0.8329
 1599TIP3    H226213   4.218   2.671   1.559  0.6824 -0.9996 -0.2704
 1600TIP3   OH226214   3.818   2.691   2.111 -0.1569 -0.3041 -0.1117
 1600TIP3    H126215   3.744   2.644   2.071 -2.3443  1.8595  1.0876
 1600TIP3    H226216   3.807   2.782   2.082  1.0257  0.3975  1.5007
 1601TIP3   OH226217   4.355   3.172   1.717  0.0260 -0.3183  0.0455
 1601TIP3    H126218   4.365   3.089   1.764 -0.9358 -0.0538  0.7213
 1601TIP3    H226219   4.434   3.221   1.739 -0.4485 -0.1576  1.4704
 1602TIP3   OH226220   4.700   2.040   0.870  0.2799  0.0599  0.4691
 1602TIP3    H126221   4.715   2.003   0.783  1.3439  1.3936  0.0543
 1602TIP3    H226222   4.614   2.081   0.864  0.6546  0.7754 -0.2018
 1603TIP3   OH226223   1.939   2.720   6.101  0.1479 -0.0913  0.2260
 1603TIP3    H126224   1.996   2.791   6.072  0.5729 -0.6158 -0.2615
 1603TIP3    H226225   1.850   2.751   6.083  0.3883 -1.0903 -3.5168
 1604TIP3   OH226226   1.183   3.858  17.190 -0.0474  0.1904 -0.6880
 1604TIP3    H126227   1.230   3.923  17.242 -1.3027  0.8826 -0.3884
 1604TIP3    H226228   1.220   3.866  17.102 -1.4951  2.7691 -1.1851
 1605TIP3   OH226229   4.536   6.547   5.791  0.5172  0.8575 -0.1472
 1605TIP3    H126230   4.610   6.496   5.758 -0.2134 -0.2577 -0.1366
 1605TIP3    H226231   4.575   6.616   5.844  1.4964 -1.1446  1.9018
 1606TIP3   OH226232   6.586   4.598   3.400  0.3393  0.0938  0.1468
 1606TIP3    H126233   6.599   4.517   3.449 -0.1113 -1.6850 -2.4697
 1606TIP3    H226234   6.625   4.581   3.314 -0.5339  2.3424 -0.7801
 1607TIP3   OH226235   5.688   5.168  11.222 -0.1786 -1.0144  0.1619
 1607TIP3    H126236   5.653   5.257  11.221 -1.0547 -1.2419  2.3890
 1607TIP3    H226237   5.695   5.143  11.130 -1.3387  0.8188 -0.4776
 1608TIP3   OH226238   3.758   2.678  15.478  0.3137 -0.0887 -0.7690
 1608TIP3    H126239   3.805   2.740  15.534 -3.3214  1.0113  1.4241
 1608TIP3    H226240   3.764   2.595  15.525  0.8326 -0.2089 -1.0324
 1609TIP3   OH226241   3.998   3.723  12.580  0.3055  0.7535 -0.3297
 1609TIP3    H126242   4.088   3.710  12.551  0.9086  0.4179  1.5696
 1609TIP3    H226243   3.948   3.656  12.532  1.0563  0.8709 -1.3163
 1610TIP3   OH226244   1.468   3.397   5.372 -0.1221 -0.4607 -0.1437
 1610TIP3    H126245   1.405   3.385   5.444 -0.8528 -0.4585 -0.7752
 1610TIP3    H226246   1.512   3.480   5.392 -1.8867  0.6944 -0.8364
 1611TIP3   OH226247   3.962   6.441   2.419 -0.9033 -0.0251  0.6546
 1611TIP3    H126248   3.954   6.347   2.403 -1.1382  0.0718  0.2004
 1611TIP3    H226249   4.053   6.452   2.447 -0.7814 -0.3428  0.3942
 1612TIP3   OH226250   2.021   2.024  13.424  0.2211  0.7385  0.2140
 1612TIP3    H126251   2.050   2.012  13.334  2.9917  1.0222  0.9665
 1612TIP3    H226252   2.013   2.118  13.435 -0.0045  0.7098  0.3033
 1613TIP3   OH226253   5.401   3.736   3.373 -0.6735  0.0163 -0.1500
 1613TIP3    H126254   5.369   3.796   3.307 -0.1263  0.3169 -0.1517
 1613TIP3    H226255   5.409   3.652   3.328  2.2907  0.7758 -1.2832
 1614TIP3   OH226256   2.985   6.406  12.022 -0.0453  0.0528  0.0734
 1614TIP3    H126257   3.059   6.466  12.028 -0.0824  0.3548 -1.9541
 1614TIP3    H226258   2.997   6.347  12.096  0.9048  1.5236  1.1618
 1615TIP3   OH226259   0.905   4.691   6.183 -0.0219 -0.1856 -0.4924
 1615TIP3    H126260   0.925   4.734   6.266 -0.0511  0.8745 -1.0100
 1615TIP3    H226261   0.944   4.748   6.117 -0.4376 -0.7386 -1.2311
 1616TIP3   OH226262   2.831   2.509   6.203 -0.1550  0.0574 -0.4140
 1616TIP3    H126263   2.859   2.518   6.294  0.9310 -0.6505 -0.6560
 1616TIP3    H226264   2.783   2.427   6.200 -1.8723  1.0172 -0.1094
 1617TIP3   OH226265   2.062   6.053  13.346 -0.4077  0.1499 -0.3852
 1617TIP3    H126266   2.123   6.001  13.294  0.8761  0.1308  1.0598
 1617TIP3    H226267   1.982   6.058  13.293  0.1152 -1.6226 -1.4007
 1618TIP3   OH226268   0.704   0.887  13.305 -0.2913 -0.0243  0.3857
 1618TIP3    H126269   0.635   0.874  13.369  1.6223  1.5958  3.0136
 1618TIP3    H226270   0.779   0.838  13.341  1.0793  1.6142 -0.0838
 1619TIP3   OH226271   5.953   2.625   3.065  0.2637  0.2503  0.2062
 1619TIP3    H126272   5.934   2.662   3.151  0.7775 -1.0388  0.9127
 1619TIP3    H226273   5.894   2.550   3.058  1.9172 -1.1455  0.5366
 1620TIP3   OH226274   6.160   6.232   3.878  0.4635  0.3554  0.2102
 1620TIP3    H126275   6.171   6.241   3.783  0.3486  1.2023  0.2676
 1620TIP3    H226276   6.106   6.154   3.889  1.2272 -0.2836 -0.3729
 1621TIP3   OH226277   3.569   0.003  10.675  0.2616  0.6587  0.1828
 1621TIP3    H126278   3.587   0.085  10.631 -0.5826  1.8175  1.9009
 1621TIP3    H226279   3.546   0.027  10.765 -0.6763 -1.3831  0.5737
 1622TIP3   OH226280   2.898   4.061  14.530 -0.0323 -0.0355  0.0713
 1622TIP3    H126281   2.870   4.088  14.617  0.6660  1.2430 -0.0764
 1622TIP3    H226282   2.994   4.061  14.534  0.1180  2.5335 -1.3584
 1623TIP3   OH226283   0.719   1.339   1.769 -0.0272  0.1006  0.6547
 1623TIP3    H126284   0.685   1.425   1.743 -1.7172 -0.2578  1.5107
 1623TIP3    H226285   0.784   1.318   1.702 -0.4305  1.5283 -0.2343
 1624TIP3   OH226286   6.123   2.122  11.369  0.1838  0.0793  0.1058
 1624TIP3    H126287   6.031   2.138  11.389 -0.0609 -2.0891  1.0177
 1624TIP3    H226288   6.169   2.139  11.451  0.3139 -0.7540  0.2129
 1625TIP3   OH226289   1.506   0.169   0.387 -0.7472 -0.3431 -0.0434
 1625TIP3    H126290   1.564   0.115   0.441  0.1037  0.5669 -0.0255
 1625TIP3    H226291   1.496   0.119   0.306 -0.5074 -0.8316  0.2192
 1626TIP3   OH226292   5.787   1.753   2.576  0.0168  0.4332  0.4527
 1626TIP3    H126293   5.772   1.689   2.646 -4.4907  0.3788 -0.2375
 1626TIP3    H226294   5.783   1.838   2.619 -1.3514  0.3522  0.5477
 1627TIP3   OH226295   3.572   0.693  13.065  0.0729  0.3138 -0.0564
 1627TIP3    H126296   3.550   0.600  13.072  1.1633  0.1406  1.3587
 1627TIP3    H226297   3.569   0.726  13.155  0.7729  1.4009 -0.4113
 1628TIP3   OH226298   6.568   0.128  14.107  0.0468 -0.1568 -0.0001
 1628TIP3    H126299   6.608   0.210  14.079  1.1606 -0.3363  0.9987
 1628TIP3    H226300   6.537   0.146  14.196  1.6771 -1.2396  0.8273
 1629TIP3   OH226301   2.359   4.827   3.112 -0.1522  0.0112  0.7001
 1629TIP3    H126302   2.390   4.830   3.202  1.0604 -0.6980  0.3204
 1629TIP3    H226303   2.361   4.918   3.083  2.0308 -0.0266  0.5663
 1630TIP3   OH226304   0.502   5.030   6.565 -0.0058  0.6343 -0.2650
 1630TIP3    H126305   0.518   5.014   6.658 -0.0507  1.8704 -0.0293
 1630TIP3    H226306   0.579   4.994   6.521 -0.2667 -0.5265  0.1794
 1631TIP3   OH226307   3.701   0.862   0.382  0.4252  0.2079  0.2405
 1631TIP3    H126308   3.684   0.909   0.463  1.8905  1.8902 -0.3728
 1631TIP3    H226309   3.637   0.897   0.320  0.6618  0.4474  0.1297
 1632TIP3   OH226310   1.583   3.220  14.973 -0.2831  0.3358  0.0591
 1632TIP3    H126311   1.564   3.135  15.013  0.1685  0.2009 -0.0065
 1632TIP3    H226312   1.540   3.215  14.887 -2.0102  0.9679  0.8545
 1633TIP3   OH226313   0.674   6.194  16.795  0.1055 -0.0545 -0.4512
 1633TIP3    H126314   0.725   6.182  16.876  0.7264 -0.3973 -0.8822
 1633TIP3    H226315   0.740   6.199  16.726 -0.2412  2.6888 -0.7146
 1634TIP3   OH226316   2.695   2.913  13.280  0.8835 -0.4374 -0.2141
 1634TIP3    H126317   2.708   2.826  13.317  0.0595  0.3078  1.9906
 1634TIP3    H226318   2.704   2.973  13.354 -2.8436  1.0327 -0.7333
 1635TIP3   OH226319   4.569   0.397  13.840 -0.8177  0.2834  1.2955
 1635TIP3    H126320   4.487   0.426  13.799  0.6116  1.2533 -1.0683
 1635TIP3    H226321   4.619   0.477  13.852  0.4773 -0.4661  1.0628
 1636TIP3   OH226322   6.350   4.538   5.468  0.1579  0.9626  0.0510
 1636TIP3    H126323   6.362   4.499   5.382 -1.7817  2.2891 -0.8730
 1636TIP3    H226324   6.435   4.577   5.489  0.6137  0.7405 -1.3018
 1637TIP3   OH226325   4.254   4.317   6.609 -0.2498  0.3220  0.1122
 1637TIP3    H126326   4.264   4.241   6.553 -0.6502 -0.4625  1.0680
 1637TIP3    H226327   4.319   4.305   6.678 -0.1618  0.9648  0.1471
 1638TIP3   OH226328   4.934   6.343   5.456  0.4990  0.4686  0.1661
 1638TIP3    H126329   4.974   6.339   5.369  0.5221  1.9134  0.0783
 1638TIP3    H226330   4.842   6.323   5.442  0.1559  2.3215 -0.4905
 1639TIP3   OH226331   1.372   5.670  14.972 -0.9458 -0.3136 -0.7690
 1639TIP3    H126332   1.363   5.583  15.010 -1.4209 -0.6070 -1.5250
 1639TIP3    H226333   1.288   5.713  14.990 -0.1559  0.5891  1.0138
 1640TIP3   OH226334   2.415   4.414  11.783  0.3015 -0.1476  0.1439
 1640TIP3    H126335   2.436   4.415  11.690 -0.5218 -0.3923 -0.0493
 1640TIP3    H226336   2.329   4.375  11.788 -0.0023  0.5855  0.9421
 1641TIP3   OH226337   4.548   3.784   1.204  0.0927 -0.1212  0.7245
 1641TIP3    H126338   4.486   3.744   1.143  0.4937 -0.6498  0.6578
 1641TIP3    H226339   4.561   3.873   1.169 -0.2837 -0.1542  0.4921
 1642TIP3   OH226340   1.956   0.070  13.281  0.1754 -0.0366 -0.3383
 1642TIP3    H126341   2.013  -0.004  13.303 -0.1155 -0.8355 -2.0740
 1642TIP3    H226342   2.002   0.116  13.211 -0.4754  0.3677 -0.5102
 1643TIP3   OH226343   1.832   1.870  12.461 -0.0070  0.1341  0.5200
 1643TIP3    H126344   1.911   1.886  12.410 -0.2161  0.6109  0.3432
 1643TIP3    H226345   1.795   1.791  12.422 -0.4358  0.7722 -0.4187
 1644TIP3   OH226346   1.802   4.591   4.434 -0.0779 -0.0322  0.6174
 1644TIP3    H126347   1.786   4.685   4.440  1.0727  0.2393 -0.2108
 1644TIP3    H226348   1.809   4.562   4.524  1.0016  0.9597  0.8722
 1645TIP3   OH226349   6.445   0.447  16.603 -0.2558  0.3176  0.6601
 1645TIP3    H126350   6.460   0.476  16.693 -0.9959  3.8132 -0.1801
 1645TIP3    H226351   6.358   0.482  16.581 -1.1555 -2.5054 -0.7301
 1646TIP3   OH226352   5.490   5.480   2.476  0.0232  0.2347  1.0957
 1646TIP3    H126353   5.487   5.392   2.438 -2.0065  0.4160  0.7210
 1646TIP3    H226354   5.579   5.510   2.459 -0.2068 -0.4401 -1.8699
 1647TIP3   OH226355   5.187   0.179   1.321 -0.2365  0.2654 -0.4539
 1647TIP3    H126356   5.209   0.199   1.412 -0.4143  0.7187 -0.5067
 1647TIP3    H226357   5.212   0.258   1.273 -0.7817  0.2909 -0.6967
 1648TIP3   OH226358   2.390   2.811  16.145  0.8448 -0.3548 -0.1415
 1648TIP3    H126359   2.381   2.871  16.072  1.2559  0.0577  0.1371
 1648TIP3    H226360   2.313   2.826  16.199  0.2667 -1.0437 -0.7545
 1649TIP3   OH226361   4.979   4.596   2.839  0.7943  0.2062  0.2319
 1649TIP3    H126362   4.944   4.542   2.768 -0.7164 -1.2555  1.9812
 1649TIP3    H226363   4.902   4.639   2.878  1.2998 -0.4254  2.0580
 1650TIP3   OH226364   3.448   6.691  14.873 -0.1497  0.1120  0.7693
 1650TIP3    H126365   3.524   6.672  14.929 -0.0770  0.0471  0.6492
 1650TIP3    H226366   3.394   6.750  14.926  0.5130  1.0300  0.4486
 1651TIP3   OH226367   3.795   4.523  14.517  0.7515  0.2072  0.0601
 1651TIP3    H126368   3.850   4.472  14.576 -0.5983 -0.4021  0.8388
 1651TIP3    H226369   3.710   4.528  14.561  0.0348  0.7119 -1.3044
 1652TIP3   OH226370   4.571   3.810   5.512 -0.2641 -0.3755  0.3659
 1652TIP3    H126371   4.589   3.819   5.605 -0.3727  0.4498  0.3138
 1652TIP3    H226372   4.657   3.796   5.472 -0.1752 -0.3357  0.5457
 1653TIP3   OH226373   5.131   4.629   3.922 -0.1807  0.0049  0.1186
 1653TIP3    H126374   5.078   4.671   3.854 -0.5878 -0.0325  0.4130
 1653TIP3    H226375   5.146   4.540   3.889  1.7869  0.7258 -1.1330
 1654TIP3   OH226376   1.332   0.560   2.819 -0.1904 -0.3616 -0.1872
 1654TIP3    H126377   1.248   0.584   2.781 -1.8066 -1.2526  2.5452
 1654TIP3    H226378   1.358   0.637   2.871  1.7259  0.6482 -2.4462
 1655TIP3   OH226379   0.250   1.729  14.877 -0.6847  0.7961  0.5219
 1655TIP3    H126380   0.274   1.709  14.786  1.5637 -0.2132  1.2690
 1655TIP3    H226381   0.221   1.821  14.873 -0.4130  0.8576 -1.1633
 1656TIP3   OH226382   4.900   5.719   3.073  0.2344  0.0231 -0.3022
 1656TIP3    H126383   4.851   5.674   3.005 -0.4923  0.0375  0.1964
 1656TIP3    H226384   4.974   5.759   3.028  1.2425 -2.1432 -0.6871
 1657TIP3   OH226385   4.986   2.484   2.224 -0.2678 -0.0549  0.3610
 1657TIP3    H126386   4.897   2.513   2.206 -0.3736 -0.1828  0.6684
 1657TIP3    H226387   5.042   2.542   2.172 -0.4849  0.6062  0.8511
 1658TIP3   OH226388   4.486   6.211  11.549 -0.0602 -0.3021 -0.1520
 1658TIP3    H126389   4.516   6.213  11.640 -0.0366 -1.0670 -0.1366
 1658TIP3    H226390   4.392   6.229  11.554 -0.0550 -0.3189  0.0151
 1659TIP3   OH226391   3.587   4.748  10.643  0.4556 -0.4199  0.0631
 1659TIP3    H126392   3.498   4.775  10.665  0.0409 -0.7680 -1.1490
 1659TIP3    H226393   3.640   4.826  10.656 -0.1551  0.0038  0.0286
 1660TIP3   OH226394   4.797   6.592  13.826  0.1702 -0.2676 -0.2345
 1660TIP3    H126395   4.811   6.561  13.915  1.5793 -0.8214 -0.6237
 1660TIP3    H226396   4.821   6.684  13.827 -0.0142 -0.2238  0.0063
 1661TIP3   OH226397   2.965   2.738  15.211 -0.1286  0.4760 -0.1253
 1661TIP3    H126398   2.889   2.784  15.245 -2.3335 -2.7659 -0.1814
 1661TIP3    H226399   2.970   2.658  15.264  2.1362 -0.2943 -1.3617
 1662TIP3   OH226400   0.078   5.609   3.544 -0.2878 -0.3751 -0.2128
 1662TIP3    H126401   0.130   5.533   3.520 -2.0609 -2.1456  1.2092
 1662TIP3    H226402   0.014   5.619   3.474 -0.7493 -0.9108  0.1232
 1663TIP3   OH226403   5.052   6.650   3.103 -0.0897  0.1102 -0.0923
 1663TIP3    H126404   5.095   6.651   3.189  0.8895 -0.5753 -0.5454
 1663TIP3    H226405   4.968   6.608   3.118  0.6112 -1.2064  0.3244
 1664TIP3   OH226406   2.352   0.010   1.812  0.9504  0.5234 -0.6440
 1664TIP3    H126407   2.423  -0.039   1.854 -0.7278 -0.5127  1.1297
 1664TIP3    H226408   2.338   0.085   1.870 -0.3956 -0.1078 -0.1212
 1665TIP3   OH226409   6.229   5.584   0.557  0.1557 -0.2882 -0.3097
 1665TIP3    H126410   6.176   5.538   0.492  0.8085 -2.0033  0.3253
 1665TIP3    H226411   6.319   5.557   0.539  0.6824  1.4012 -0.4081
 1666TIP3   OH226412   2.527   4.040   3.290 -0.2477 -0.2953  0.6712
 1666TIP3    H126413   2.486   4.070   3.371 -1.4142  1.1697 -0.4167
 1666TIP3    H226414   2.620   4.059   3.302 -0.3294 -0.5511  1.8447
 1667TIP3   OH226415   6.450   1.178   5.564  0.4018 -0.3313 -0.0141
 1667TIP3    H126416   6.444   1.247   5.630  1.5297  0.1150 -0.3541
 1667TIP3    H226417   6.378   1.197   5.504 -0.3859 -0.5049  0.8443
 1668TIP3   OH226418   4.277   3.642  12.789  0.0348  0.4805 -0.0855
 1668TIP3    H126419   4.286   3.546  12.791  1.0599  0.5431 -0.8187
 1668TIP3    H226420   4.281   3.665  12.696  0.4179  1.2768  0.1146
 1669TIP3   OH226421   3.856   4.331  17.235  0.0099 -0.3165 -0.0426
 1669TIP3    H126422   3.776   4.304  17.190  1.0799 -0.5393 -1.9093
 1669TIP3    H226423   3.866   4.423  17.213  1.3331 -0.7884 -1.5926
 1670TIP3   OH226424   4.564   1.177   1.768  0.1050 -0.1156 -0.3753
 1670TIP3    H126425   4.513   1.258   1.780 -0.8080 -0.5491 -1.2354
 1670TIP3    H226426   4.507   1.108   1.802  1.2306 -0.3474  1.1788
 1671TIP3   OH226427   2.000   1.844   0.957  0.0472  0.1361  1.0070
 1671TIP3    H126428   1.954   1.765   0.986  0.1477  0.1109  1.0982
 1671TIP3    H226429   2.018   1.892   1.038  0.7374 -0.1541  1.0327
 1672TIP3   OH226430   5.249   3.205  12.800  0.4472  0.1485 -0.0826
 1672TIP3    H126431   5.282   3.129  12.751  2.0923  0.7367  0.0465
 1672TIP3    H226432   5.264   3.183  12.892  0.9259  0.6146 -0.0441
 1673TIP3   OH226433   2.231   6.721  15.744  0.3833 -0.0498  0.1219
 1673TIP3    H126434   2.287   6.692  15.672  0.3322  0.3587 -0.0862
 1673TIP3    H226435   2.277   6.693  15.823  1.3458  1.0444 -0.0073
 1674TIP3   OH226436   2.253   2.726  15.785 -0.3907  0.0048 -0.1922
 1674TIP3    H126437   2.290   2.639  15.799 -0.8813  0.0004  1.2342
 1674TIP3    H226438   2.318   2.772  15.732  0.8480 -0.5556  0.8015
 1675TIP3   OH226439   4.360   1.628   4.307  0.4492 -0.1360 -0.2404
 1675TIP3    H126440   4.345   1.722   4.295  0.2069 -0.4274 -2.6062
 1675TIP3    H226441   4.410   1.601   4.230  1.9248 -1.6960  1.1630
 1676TIP3   OH226442   3.004   2.135   4.304  0.0441 -0.2582 -0.0466
 1676TIP3    H126443   3.051   2.056   4.332  0.3130  0.2099  0.8760
 1676TIP3    H226444   3.011   2.194   4.379  1.7274  1.4965 -1.4843
 1677TIP3   OH226445   0.603   1.394   2.024 -0.0994 -0.0884 -0.1198
 1677TIP3    H126446   0.525   1.421   1.975 -1.0417  1.1973  1.9353
 1677TIP3    H226447   0.661   1.355   1.959 -2.5083 -1.2362 -1.7123
 1678TIP3   OH226448   1.281   1.412  12.254  0.1352  0.5597  0.3829
 1678TIP3    H126449   1.225   1.340  12.224 -0.1849  1.0750 -0.2720
 1678TIP3    H226450   1.226   1.489  12.249  0.3285  0.7935  1.5510
 1679TIP3   OH226451   4.259   3.060   1.204 -0.0760 -0.4891 -0.9540
 1679TIP3    H126452   4.206   2.981   1.199 -0.1558 -0.5789  0.8072
 1679TIP3    H226453   4.299   3.057   1.291  1.6746  0.3120 -1.6996
 1680TIP3   OH226454   2.061   5.091  15.185 -0.0676 -0.1473  0.6768
 1680TIP3    H126455   1.991   5.054  15.132  0.2046 -0.4808  0.5460
 1680TIP3    H226456   2.126   5.120  15.121 -0.8318  1.7483  0.7009
 1681TIP3   OH226457   4.662   3.288   1.578  0.0421  0.3301 -0.0186
 1681TIP3    H126458   4.739   3.339   1.555  0.1171  0.3602  0.2917
 1681TIP3    H226459   4.672   3.270   1.671  1.6428 -2.9123 -0.6535
 1682TIP3   OH226460   1.545   0.540   2.560 -0.1129 -0.0137 -0.2661
 1682TIP3    H126461   1.552   0.589   2.478 -0.5802 -2.8525 -2.1762
 1682TIP3    H226462   1.458   0.499   2.555 -0.4834  0.3893  2.0877
 1683TIP3   OH226463   6.549   2.416   3.782 -0.1094  0.1150  0.1362
 1683TIP3    H126464   6.596   2.332   3.781 -0.0333  0.1404  0.7520
 1683TIP3    H226465   6.501   2.418   3.700  1.5877  0.4401 -0.8989
 1684TIP3   OH226466   0.761   5.814   4.864  0.1859  0.1276 -0.7957
 1684TIP3    H126467   0.692   5.783   4.806 -0.0486 -2.5774  0.7621
 1684TIP3    H226468   0.715   5.838   4.945  0.8585  0.3508 -0.4708
 1685TIP3   OH226469   1.156   3.968   4.604  0.8481  0.3929 -0.2546
 1685TIP3    H126470   1.080   3.909   4.600  1.8447 -0.9736  0.3272
 1685TIP3    H226471   1.220   3.929   4.544  1.4450  1.0275 -0.0401
 1686TIP3   OH226472   3.686   1.865   4.335 -0.6151  0.0962  0.0424
 1686TIP3    H126473   3.763   1.846   4.281  0.1478 -0.0436  1.1414
 1686TIP3    H226474   3.722   1.881   4.423 -1.9086 -0.7689  0.7588
 1687TIP3   OH226475   2.600   5.272  16.254 -0.2939  0.6216  0.2773
 1687TIP3    H126476   2.548   5.199  16.223  1.1964 -1.1069  1.6546
 1687TIP3    H226477   2.623   5.250  16.344  1.6958  1.9121  0.1628
 1688TIP3   OH226478   4.771   5.370  15.882  0.1880 -0.5578 -0.0576
 1688TIP3    H126479   4.748   5.344  15.793  0.6283 -1.8700  0.1899
 1688TIP3    H226480   4.753   5.464  15.885  1.0982 -0.2810 -1.8288
 1689TIP3   OH226481   6.299   4.980   3.632 -0.1472 -0.1812  0.0621
 1689TIP3    H126482   6.359   4.997   3.705  1.0543 -0.2533 -0.8849
 1689TIP3    H226483   6.219   4.950   3.674 -0.2570  1.9199  1.4841
 1690TIP3   OH226484   4.212   3.441  15.227  0.2391 -0.4834 -0.1375
 1690TIP3    H126485   4.210   3.376  15.157 -2.1404 -1.2452  0.5233
 1690TIP3    H226486   4.135   3.496  15.211  0.7385  0.5361  0.7970
 1691TIP3   OH226487   4.982   6.057   3.427 -0.0779 -0.1144 -0.0289
 1691TIP3    H126488   5.040   6.108   3.371  1.7587 -2.0702 -0.0550
 1691TIP3    H226489   5.039   6.023   3.496 -1.7565  0.0412  1.5045
 1692TIP3   OH226490   4.876   5.882  11.706 -0.5799 -0.7557  0.6285
 1692TIP3    H126491   4.970   5.874  11.694 -0.4195  0.0093  1.2705
 1692TIP3    H226492   4.845   5.792  11.719 -0.0607 -1.0864 -0.3142
 1693TIP3   OH226493   0.972   4.560   3.865  0.3848 -0.5157  0.4109
 1693TIP3    H126494   0.943   4.592   3.779 -0.3905  0.0385  0.8701
 1693TIP3    H226495   0.943   4.469   3.868  2.6058 -1.3635 -0.9080
 1694TIP3   OH226496   6.704   3.272   2.092 -0.8345 -0.0185 -0.3824
 1694TIP3    H126497   6.655   3.193   2.067  0.2236 -1.3218  1.3925
 1694TIP3    H226498   6.669   3.296   2.177  0.6164 -0.1447  0.2818
 1695TIP3   OH226499   0.943   4.910   2.685 -0.0842 -0.4831  0.1074
 1695TIP3    H126500   0.854   4.899   2.718 -0.5356  1.7260 -0.2190
 1695TIP3    H226501   0.997   4.857   2.744 -1.2260  0.8370  2.4684
 1696TIP3   OH226502   5.646   2.296   4.715 -0.1357 -0.1291  0.3521
 1696TIP3    H126503   5.606   2.269   4.798  0.0149 -1.7067 -0.0659
 1696TIP3    H226504   5.645   2.218   4.661  0.2978  0.7338 -0.9480
 1697TIP3   OH226505   4.093   5.123   0.618  0.6067  0.3489 -0.2836
 1697TIP3    H126506   4.009   5.103   0.575 -0.0594  1.0315  0.6666
 1697TIP3    H226507   4.132   5.191   0.563  1.0781 -0.7395 -1.3498
 1698TIP3   OH226508   1.692   0.614  16.100  0.2218  0.3855 -0.1251
 1698TIP3    H126509   1.664   0.547  16.163 -1.2138 -0.2949 -1.4538
 1698TIP3    H226510   1.766   0.574  16.054  0.7336  0.5610  0.5267
 1699TIP3   OH226511   4.984   2.041  12.374 -0.3223 -0.3915 -0.3721
 1699TIP3    H126512   4.998   1.955  12.335  0.7477  1.0287 -3.5422
 1699TIP3    H226513   4.891   2.058  12.360 -0.3397 -0.6707 -0.6111
 1700TIP3   OH226514   6.271   6.221   3.081  0.3197 -0.0485  0.3588
 1700TIP3    H126515   6.200   6.281   3.057 -0.6760 -1.0371  0.7032
 1700TIP3    H226516   6.244   6.186   3.166  1.7102  0.2657  0.9485
 1701TIP3   OH226517   5.146   4.028  17.240 -0.2083  0.2945  0.1786
 1701TIP3    H126518   5.230   4.011  17.283  1.1945  0.6234 -2.2246
 1701TIP3    H226519   5.104   3.942  17.235 -0.2468  0.1870  1.7480
 1702TIP3   OH226520   1.678   4.458  16.300 -0.0539  0.3087 -0.4079
 1702TIP3    H126521   1.688   4.527  16.366  1.1905  0.7499 -1.0299
 1702TIP3    H226522   1.713   4.379  16.343  2.5447  0.9796 -1.1168
 1703TIP3   OH226523   4.721   1.558   4.397  0.7176  0.0835 -0.3237
 1703TIP3    H126524   4.681   1.622   4.456  0.4488 -0.8920  0.5796
 1703TIP3    H226525   4.684   1.474   4.424  2.6934 -0.7468 -0.0456
 1704TIP3   OH226526   4.577   5.015   4.417  0.5115  0.1160  0.8323
 1704TIP3    H126527   4.609   5.001   4.328  0.0665  0.5384  0.6010
 1704TIP3    H226528   4.655   5.035   4.468  0.6201  1.2804  0.2502
 1705TIP3   OH226529   4.589   1.722  16.177 -0.0082 -0.2736 -0.5351
 1705TIP3    H126530   4.494   1.730  16.188  0.1011 -1.0028  1.2722
 1705TIP3    H226531   4.603   1.632  16.150  0.0431  0.4970 -3.4330
 1706TIP3   OH226532   2.638   1.822  10.902 -0.7181 -0.0775  0.5167
 1706TIP3    H126533   2.623   1.756  10.834 -1.9729 -0.3290  1.0163
 1706TIP3    H226534   2.584   1.897  10.875  0.8404  0.8553 -0.1486
 1707TIP3   OH226535   0.333   0.107  16.526 -0.4853  0.6256 -0.0388
 1707TIP3    H126536   0.387   0.139  16.598  0.2042  0.5715 -0.5299
 1707TIP3    H226537   0.248   0.150  16.539 -0.3217  0.7360  0.7114
 1708TIP3   OH226538   6.656   2.806  11.068 -0.0367  0.0077 -0.5057
 1708TIP3    H126539   6.677   2.889  11.109 -1.6883  0.1680  0.1231
 1708TIP3    H226540   6.595   2.829  10.998 -0.4182 -0.6540 -0.3993
 1709TIP3   OH226541   2.593   4.022  13.187 -0.0857  0.0571 -0.0384
 1709TIP3    H126542   2.517   4.080  13.196  0.3303  0.5089  0.6137
 1709TIP3    H226543   2.611   4.020  13.093 -0.9631 -0.1337 -0.2118
 1710TIP3   OH226544   0.705   6.324  11.865  0.3636  0.4014  0.2350
 1710TIP3    H126545   0.756   6.259  11.913  0.4625 -0.8198 -1.4183
 1710TIP3    H226546   0.770   6.369  11.811 -0.0925 -0.3649 -1.0090
 1711TIP3   OH226547   2.644   3.202  15.018  0.0231  0.3539  0.1437
 1711TIP3    H126548   2.561   3.170  15.054  0.9707 -0.7849  1.4266
 1711TIP3    H226549   2.636   3.297  15.021 -1.3931  0.2700 -0.1548
 1712TIP3   OH226550   1.855   4.180  15.360  0.3095 -0.0929  0.0817
 1712TIP3    H126551   1.870   4.214  15.449  0.8643 -0.6869  0.2225
 1712TIP3    H226552   1.776   4.225  15.331  0.6190  0.7787  0.5367
 1713TIP3   OH226553   6.201   1.310  13.446  0.0226  0.0099  0.2756
 1713TIP3    H126554   6.186   1.298  13.540  0.0148  1.4710  0.4976
 1713TIP3    H226555   6.114   1.303  13.406  0.1947 -2.0363  0.1557
 1714TIP3   OH226556   3.043   4.065  12.894 -0.5266 -0.8175  0.5340
 1714TIP3    H126557   2.959   4.041  12.934 -0.5106  0.4985  1.4303
 1714TIP3    H226558   3.036   4.033  12.804 -2.7926  0.8910 -0.0083
 1715TIP3   OH226559   3.235   4.913   0.750 -0.3738  0.3361 -0.0569
 1715TIP3    H126560   3.168   4.873   0.694 -1.1885  0.7402  0.5988
 1715TIP3    H226561   3.311   4.924   0.693 -0.5015 -1.1040 -0.5455
 1716TIP3   OH226562   5.930   4.551  16.679  0.7565 -0.5207  0.4882
 1716TIP3    H126563   5.970   4.547  16.766  0.6048  0.1002  0.5873
 1716TIP3    H226564   5.841   4.518  16.693  1.1209 -1.6157  0.3256
 1717TIP3   OH226565   2.113   5.081  16.833  0.3754 -0.0483 -0.0775
 1717TIP3    H126566   2.145   5.016  16.771 -0.6585 -0.9787  0.3203
 1717TIP3    H226567   2.074   5.029  16.904 -0.9575  1.0067 -0.0050
 1718TIP3   OH226568   6.582   5.256   2.991  0.3271 -0.3221 -0.0620
 1718TIP3    H126569   6.594   5.163   2.971  1.5533 -0.0383 -0.7502
 1718TIP3    H226570   6.640   5.301   2.929  0.1493  0.8772  0.6199
 1719TIP3   OH226571   3.701   6.088   3.890 -0.1972  0.0822 -0.4134
 1719TIP3    H126572   3.632   6.071   3.955 -1.5693 -1.2954 -2.1394
 1719TIP3    H226573   3.698   6.183   3.877 -2.2103 -0.0049 -0.8790
 1720TIP3   OH226574   3.029   3.898   1.076  0.7449  0.2677  0.2405
 1720TIP3    H126575   3.053   3.925   1.164 -0.6090 -1.5165  1.2189
 1720TIP3    H226576   2.974   3.969   1.043 -2.0915 -0.6675  2.4495
 1721TIP3   OH226577   2.356   1.111  13.436 -0.7795  0.0491  0.2987
 1721TIP3    H126578   2.294   1.133  13.368 -1.5236 -0.9681  0.6178
 1721TIP3    H226579   2.352   1.015  13.442  1.8861 -0.2185 -0.6690
 1722TIP3   OH226580   1.718   6.715   5.887  0.0576 -0.2099  0.2114
 1722TIP3    H126581   1.769   6.639   5.918 -0.1351 -0.5645 -0.3143
 1722TIP3    H226582   1.777   6.757   5.824 -0.4843 -0.9352 -0.8129
 1723TIP3   OH226583   3.905   1.556   0.918  0.8277  0.6191 -0.5412
 1723TIP3    H126584   3.893   1.598   1.003  2.1588 -0.0385 -0.0064
 1723TIP3    H226585   3.892   1.626   0.854  0.7628  1.3268  0.2402
 1724TIP3   OH226586   2.786   2.759   3.195 -0.4706 -0.0543 -0.3049
 1724TIP3    H126587   2.873   2.719   3.189  0.2795  1.2879  1.1286
 1724TIP3    H226588   2.797   2.831   3.257 -2.3550  0.8441 -0.9611
 1725TIP3   OH226589   0.683   3.246   0.370  0.3094  0.4150  0.5379
 1725TIP3    H126590   0.618   3.178   0.353 -0.2852  0.8926  0.8923
 1725TIP3    H226591   0.729   3.256   0.287  0.7175 -0.7381  0.5987
 1726TIP3   OH226592   3.833   2.051   1.587  0.0713 -0.1348 -0.1014
 1726TIP3    H126593   3.854   2.135   1.547  0.5532  0.4498  1.3068
 1726TIP3    H226594   3.823   2.071   1.680 -0.0443 -1.6004  0.2249
 1727TIP3   OH226595   5.913   6.351   4.560 -0.1150 -0.3582  0.0083
 1727TIP3    H126596   5.901   6.260   4.534 -0.5657 -0.5728  0.9288
 1727TIP3    H226597   5.891   6.352   4.653 -1.5038  0.9474 -0.2902
 1728TIP3   OH226598   6.596   4.277  17.373  0.3839 -0.3901 -0.2023
 1728TIP3    H126599   6.681   4.317  17.353  0.4079  0.2421  1.0560
 1728TIP3    H226600   6.618   4.190  17.408  0.6621  0.3622  1.6354
 1729TIP3   OH226601   0.656   6.675   5.860 -0.3012  0.4727  0.5092
 1729TIP3    H126602   0.720   6.624   5.909 -0.9471 -1.1088 -0.2358
 1729TIP3    H226603   0.696   6.687   5.774 -0.7796 -0.0642  0.2102
 1730TIP3   OH226604   6.047   3.187   0.472 -0.7937 -1.0420  0.1220
 1730TIP3    H126605   6.058   3.213   0.564 -0.5335 -2.3796  0.4885
 1730TIP3    H226606   5.952   3.173   0.463 -0.5846 -3.4363  0.9482
 1731TIP3   OH226607   5.322   1.496  15.737 -0.2123  0.3324  0.3879
 1731TIP3    H126608   5.381   1.433  15.779 -1.0038  1.0263  2.7450
 1731TIP3    H226609   5.285   1.448  15.663  1.0596 -1.1204  0.6418
 1732TIP3   OH226610   2.868   3.840   1.715 -0.2997 -0.2303  0.2561
 1732TIP3    H126611   2.790   3.789   1.739  2.4462 -3.3736  3.6264
 1732TIP3    H226612   2.877   3.904   1.785 -0.1821  0.5962 -0.5008
 1733TIP3   OH226613   5.281   1.515   1.571  0.2256 -0.3417 -0.5874
 1733TIP3    H126614   5.192   1.527   1.604 -0.0621  2.2857 -2.0022
 1733TIP3    H226615   5.269   1.475   1.485  0.2175  1.4372 -1.4630
 1734TIP3   OH226616   0.359   6.348  14.359  0.3827  0.1507 -0.4109
 1734TIP3    H126617   0.341   6.410  14.430 -0.6658 -1.7391  1.0754
 1734TIP3    H226618   0.280   6.350  14.304  1.1338  1.5026 -1.4941
 1735TIP3   OH226619   6.700   0.846  14.784  0.0871 -0.7451 -0.1744
 1735TIP3    H126620   6.793   0.826  14.796 -0.1710 -1.1952  1.2922
 1735TIP3    H226621   6.699   0.937  14.754  1.0088 -0.8122 -0.4398
 1736TIP3   OH226622   5.399   0.188   5.659 -0.5439  0.3079  0.0311
 1736TIP3    H126623   5.374   0.113   5.713  0.6427  0.6386  1.1019
 1736TIP3    H226624   5.360   0.263   5.705  0.6240  0.6111  0.5615
 1737TIP3   OH226625   1.806   6.495  14.322 -0.3834 -0.4653  0.6864
 1737TIP3    H126626   1.728   6.545  14.348 -0.5520  1.1025 -2.3908
 1737TIP3    H226627   1.772   6.422  14.271  0.1180 -0.1130 -0.1676
 1738TIP3   OH226628   6.631   6.256  13.032 -0.9451 -0.0518  0.3872
 1738TIP3    H126629   6.710   6.234  13.081 -0.7643  0.0418  0.1373
 1738TIP3    H226630   6.625   6.352  13.038 -0.5553  0.0229 -0.3356
 1739TIP3   OH226631   6.484   2.429   1.154 -0.0755 -0.4055 -0.1409
 1739TIP3    H126632   6.421   2.415   1.084 -0.6991  0.5942  0.2047
 1739TIP3    H226633   6.433   2.466   1.226  1.0510  1.3220 -0.1817
 1740TIP3   OH226634   0.934   0.899   4.480  0.1870 -0.3717 -0.6089
 1740TIP3    H126635   0.961   0.888   4.572 -2.3885  1.0985  0.4161
 1740TIP3    H226636   0.875   0.826   4.464  0.0238 -0.1836 -0.8587
 1741TIP3   OH226637   0.982   5.883  10.986 -0.1708  0.1458 -0.5098
 1741TIP3    H126638   0.997   5.967  11.030 -0.9601 -0.1607  0.3757
 1741TIP3    H226639   1.000   5.817  11.053 -2.4699 -0.3025 -0.2514
 1742TIP3   OH226640   0.881   3.773  14.324  0.0075  0.1826  0.4090
 1742TIP3    H126641   0.923   3.729  14.250  1.4810 -0.7273  1.7205
 1742TIP3    H226642   0.933   3.747  14.400 -0.9389  1.7701  1.6683
 1743TIP3   OH226643   3.828   1.825  14.538 -0.0234 -0.3419  0.2423
 1743TIP3    H126644   3.903   1.851  14.484 -1.8269 -0.0342 -2.2679
 1743TIP3    H226645   3.836   1.879  14.617  1.2229  1.2874 -0.9146
 1744TIP3   OH226646   1.699   4.713  15.929 -0.3693 -0.3697 -0.2482
 1744TIP3    H126647   1.673   4.712  15.837  0.5340 -0.0461 -0.5180
 1744TIP3    H226648   1.762   4.785  15.936  1.1149 -1.6547  0.1724
 1745TIP3   OH226649   5.360   3.511   3.210  0.4598  0.7018  0.1047
 1745TIP3    H126650   5.283   3.454   3.216  2.1539 -1.6258  1.8717
 1745TIP3    H226651   5.376   3.520   3.116 -0.7402 -0.5349 -0.2519
 1746TIP3   OH226652   3.238   1.038  14.506  0.3155 -0.4401  0.0077
 1746TIP3    H126653   3.200   1.001  14.427  0.9996  0.4287 -0.7601
 1746TIP3    H226654   3.329   1.006  14.506  0.5289  0.1471  0.0385
 1747TIP3   OH226655   5.748   4.219   3.572  0.1029 -0.1382  0.0920
 1747TIP3    H126656   5.689   4.159   3.617  0.3194 -1.0899 -0.8446
 1747TIP3    H226657   5.719   4.218   3.481  0.9421  0.1475 -0.1941
 1748TIP3   OH226658   4.363   3.245  14.632  0.5718  0.5972 -0.6288
 1748TIP3    H126659   4.366   3.341  14.638  0.1099  0.5161  2.5385
 1748TIP3    H226660   4.425   3.215  14.698 -1.3671 -1.2185  0.5006
 1749TIP3   OH226661   0.034   0.404   4.392 -0.0750  0.1106  0.1752
 1749TIP3    H126662   0.003   0.473   4.450  2.5957  0.9288  0.7247
 1749TIP3    H226663   0.033   0.325   4.447 -1.1368  0.0942  0.1598
 1750TIP3   OH226664   3.881   2.325  11.445 -0.2841  0.5641 -0.0246
 1750TIP3    H126665   3.839   2.310  11.360  0.1808  0.5948 -0.2603
 1750TIP3    H226666   3.956   2.381  11.425  0.0988  0.1858  0.3373
 1751TIP3   OH226667   4.054   0.153   0.592 -0.1974  0.6120 -0.0887
 1751TIP3    H126668   4.093   0.078   0.547  0.0393 -0.6094  2.0156
 1751TIP3    H226669   4.101   0.228   0.557  0.5460 -0.3480 -1.2483
 1752TIP3   OH226670   5.949   0.022  11.010  0.0873  0.4786 -0.2430
 1752TIP3    H126671   6.005   0.063  10.944 -0.0124  1.1244  0.0743
 1752TIP3    H226672   5.954  -0.072  10.989 -0.5010  0.7259 -1.6145
 1753TIP3   OH226673   0.949   4.485  15.362 -0.0080 -0.3054 -0.7365
 1753TIP3    H126674   0.912   4.561  15.318 -1.8320 -1.3509 -1.1305
 1753TIP3    H226675   1.004   4.443  15.295  1.0393  0.6536 -0.5034
 1754TIP3   OH226676   3.450   5.973  11.442 -0.0368  0.0961  0.0960
 1754TIP3    H126677   3.496   6.040  11.492 -0.1751 -0.7635  1.4066
 1754TIP3    H226678   3.464   5.892  11.491 -1.6776 -0.4594 -0.2914
 1755TIP3   OH226679   4.171   5.981  13.662  0.2288  0.2356  0.4391
 1755TIP3    H126680   4.224   5.989  13.741  0.1606 -2.5552  0.8704
 1755TIP3    H226681   4.127   5.896  13.671 -1.6975  0.9398 -1.4741
 1756TIP3   OH226682   3.081   0.980  15.493  0.0858 -0.0811  0.0309
 1756TIP3    H126683   3.090   1.063  15.539  0.4362  0.5229 -1.1013
 1756TIP3    H226684   3.170   0.946  15.486 -0.0422 -0.4889  0.3841
 1757TIP3   OH226685   2.140   4.501   2.780  0.0331 -0.0269 -0.2182
 1757TIP3    H126686   2.112   4.411   2.795  0.5669 -0.0629  0.6591
 1757TIP3    H226687   2.135   4.542   2.866  0.9607  0.4377 -0.3705
 1758TIP3   OH226688   1.126   3.602  15.474  0.0315  0.1592  0.0846
 1758TIP3    H126689   1.168   3.518  15.454 -0.2608 -0.4534  1.8395
 1758TIP3    H226690   1.198   3.665  15.472  0.4014 -0.2712 -0.4594
 1759TIP3   OH226691   5.066   6.579  14.988  0.7673  0.3637  0.0799
 1759TIP3    H126692   4.973   6.599  14.997  0.2512 -0.1989 -2.9244
 1759TIP3    H226693   5.070   6.483  14.987  1.1651  0.3795 -1.2660
 1760TIP3   OH226694   6.407   1.650   2.775 -0.0217  0.2896  0.3077
 1760TIP3    H126695   6.461   1.729   2.782  1.5903 -0.6165 -1.0383
 1760TIP3    H226696   6.422   1.603   2.857 -0.5889  1.1058  0.8976
 1761TIP3   OH226697   2.374   3.544  16.295 -0.4298 -0.0160 -0.2465
 1761TIP3    H126698   2.403   3.555  16.385  0.0749 -1.3124 -0.2258
 1761TIP3    H226699   2.279   3.540  16.301 -0.4908  1.3312  0.0361
 1762TIP3   OH226700   0.508   6.101   1.598 -0.2713  0.2448  0.8868
 1762TIP3    H126701   0.414   6.083   1.608 -0.4536  1.3654  1.3452
 1762TIP3    H226702   0.548   6.063   1.676 -0.4977  0.7906  1.2709
 1763TIP3   OH226703   4.927   5.039   0.668  0.3435  0.0138 -0.5009
 1763TIP3    H126704   4.912   4.970   0.604  1.6604  0.6630 -1.5457
 1763TIP3    H226705   5.010   5.015   0.710 -0.6490 -0.5781  1.2448
 1764TIP3   OH226706   3.841   4.245  13.864 -0.7344  0.0343 -0.1881
 1764TIP3    H126707   3.837   4.335  13.893  0.5155  0.3462 -0.8806
 1764TIP3    H226708   3.904   4.203  13.922 -0.4358 -0.0850 -0.5877
 1765TIP3   OH226709   5.518   2.580  16.509 -0.0745  0.4109  0.4736
 1765TIP3    H126710   5.496   2.567  16.417 -0.9135 -0.0240  0.7197
 1765TIP3    H226711   5.474   2.662  16.533  1.7115  1.5653  0.0219
 1766TIP3   OH226712   2.426   1.285  13.822 -0.5438 -0.0093  0.6183
 1766TIP3    H126713   2.499   1.271  13.761 -1.5509  0.2700 -0.6930
 1766TIP3    H226714   2.458   1.249  13.905  0.9245 -0.2846 -0.0212
 1767TIP3   OH226715   4.485   2.008  12.120  0.2261  0.1269  0.0640
 1767TIP3    H126716   4.402   1.960  12.114 -1.0193  2.0440  0.9734
 1767TIP3    H226717   4.552   1.941  12.108 -1.3949 -1.8352  1.2908
 1768TIP3   OH226718   4.928   4.511   4.618  0.3287 -0.3650  0.3870
 1768TIP3    H126719   4.999   4.458   4.581  0.8812 -0.5488  1.6518
 1768TIP3    H226720   4.852   4.492   4.563  0.5428 -2.3865  0.7248
 1769TIP3   OH226721   5.147   2.801  16.928  0.4251  0.3601 -0.1941
 1769TIP3    H126722   5.112   2.886  16.901 -0.2966  0.2243  0.2878
 1769TIP3    H226723   5.190   2.818  17.011  2.8961  0.8327 -1.4757
 1770TIP3   OH226724   1.259   4.536   6.884 -0.2689  0.2711  0.0021
 1770TIP3    H126725   1.197   4.584   6.939 -0.0618  0.7895 -0.2102
 1770TIP3    H226726   1.300   4.473   6.943 -3.6098 -2.7583 -0.5267
 1771TIP3   OH226727   6.519   3.964   6.356  0.1345  0.1383  0.4998
 1771TIP3    H126728   6.534   3.874   6.386 -1.5201 -0.7686 -1.1479
 1771TIP3    H226729   6.509   4.015   6.437 -1.5677 -1.7043  1.5511
 1772TIP3   OH226730   0.196   1.273   5.716  0.0120 -0.5400  0.2247
 1772TIP3    H126731   0.119   1.240   5.670  0.0616  0.4277 -0.5840
 1772TIP3    H226732   0.212   1.208   5.785 -2.9182  0.3977  1.9502
 1773TIP3   OH226733   4.860   1.966   0.198 -0.1021 -0.2808 -0.6138
 1773TIP3    H126734   4.933   2.014   0.158  0.3105  0.3127  0.7948
 1773TIP3    H226735   4.788   2.029   0.201 -0.0254 -0.2109 -0.1308
 1774TIP3   OH226736   1.777   2.043   2.053 -0.3523  0.6575 -0.1294
 1774TIP3    H126737   1.846   1.977   2.058  0.7783  1.8693  3.2677
 1774TIP3    H226738   1.819   2.119   2.015 -0.2852  0.8620  0.3455
 1775TIP3   OH226739   2.257   5.488   0.877  0.3719 -0.8286  0.1867
 1775TIP3    H126740   2.233   5.580   0.862  0.1549 -0.7017  1.1774
 1775TIP3    H226741   2.344   5.479   0.838 -0.5885 -0.8712 -2.0841
 1776TIP3   OH226742   1.630   5.621   0.579 -0.1239 -0.3295 -0.3158
 1776TIP3    H126743   1.630   5.677   0.656  0.7588  0.1887 -0.6748
 1776TIP3    H226744   1.543   5.581   0.578 -1.3582  2.2136 -0.8899
 1777TIP3   OH226745   2.381   2.696  11.835 -0.2360  0.5084  0.2473
 1777TIP3    H126746   2.441   2.640  11.884  1.0672  2.6591  1.2553
 1777TIP3    H226747   2.376   2.777  11.886 -2.5450  1.1168 -0.8097
 1778TIP3   OH226748   5.686   4.356   4.865 -0.2339 -0.4774  0.4486
 1778TIP3    H126749   5.667   4.272   4.908 -1.0424 -0.3013  0.4572
 1778TIP3    H226750   5.675   4.338   4.772  0.4675 -0.5937  0.3837
 1779TIP3   OH226751   5.535   1.699  12.224 -0.0443 -0.2794 -0.0629
 1779TIP3    H126752   5.569   1.643  12.294 -2.2775 -1.2617  0.3240
 1779TIP3    H226753   5.562   1.788  12.250 -1.0838 -0.5705  2.2840
 1780TIP3   OH226754   3.090   0.064  16.686 -0.4368  0.3203 -0.4080
 1780TIP3    H126755   3.135   0.079  16.769  1.9240 -0.3685 -1.4711
 1780TIP3    H226756   3.148   0.103  16.620 -1.0128 -1.2912 -1.9391
 1781TIP3   OH226757   2.243   4.573  11.377 -0.1667  0.3546  0.1674
 1781TIP3    H126758   2.193   4.641  11.332 -0.9406  0.4590  1.1553
 1781TIP3    H226759   2.301   4.621  11.435 -0.0975  0.1874  0.2362
 1782TIP3   OH226760   5.019   3.347   4.728  0.2722 -0.0645 -0.4734
 1782TIP3    H126761   5.082   3.307   4.788  1.9407  0.0405 -2.0398
 1782TIP3    H226762   5.022   3.291   4.650  0.1610  1.2283 -1.4407
 1783TIP3   OH226763   0.648   0.299  10.511  0.1284  0.0908  0.6323
 1783TIP3    H126764   0.743   0.306  10.512  0.1484 -0.1286  0.4093
 1783TIP3    H226765   0.617   0.386  10.487  0.2413  0.4236  1.6619
 1784TIP3   OH226766   1.174   2.185   1.801 -0.8916  0.0626  0.3816
 1784TIP3    H126767   1.242   2.244   1.834  2.0300 -2.2480 -1.0655
 1784TIP3    H226768   1.189   2.103   1.848 -1.0213 -1.2411 -1.7405
 1785TIP3   OH226769   6.674   0.449  13.175 -0.0920 -0.1418 -0.0105
 1785TIP3    H126770   6.720   0.367  13.159 -1.0222 -0.8523  0.8473
 1785TIP3    H226771   6.652   0.447  13.268  0.5467  1.4484  0.2110
 1786TIP3   OH226772   1.924   6.394  12.862 -0.2439  0.5711  0.2566
 1786TIP3    H126773   1.902   6.473  12.814 -2.2067 -0.9860 -1.5925
 1786TIP3    H226774   1.841   6.363  12.898  0.5944 -0.2858  1.5877
 1787TIP3   OH226775   5.332   0.445   2.456  0.2552 -0.4149  1.1509
 1787TIP3    H126776   5.322   0.530   2.413  1.4415 -1.4204 -1.3388
 1787TIP3    H226777   5.408   0.456   2.513  1.9118 -0.3433 -0.9291
 1788TIP3   OH226778   3.314   6.652   4.631  0.2692  0.1980 -0.3181
 1788TIP3    H126779   3.231   6.615   4.599  1.6018 -1.2419 -2.3396
 1788TIP3    H226780   3.305   6.746   4.616 -1.3163  0.1834  0.3126
 1789TIP3   OH226781   1.441   5.091  17.018 -0.2265 -0.3157  0.3403
 1789TIP3    H126782   1.386   5.028  16.972 -1.0765 -1.0497  2.2588
 1789TIP3    H226783   1.386   5.168  17.028 -0.7963 -0.8825  1.8472
 1790TIP3   OH226784   3.356   4.587  14.026 -0.5575 -0.4428  0.5398
 1790TIP3    H126785   3.346   4.682  14.032  0.1836 -0.4548  3.4016
 1790TIP3    H226786   3.416   4.565  14.097 -0.0688 -2.9911 -0.5689
 1791TIP3   OH226787   4.328   0.437   0.240 -0.2405  0.1229 -0.3672
 1791TIP3    H126788   4.238   0.467   0.230 -0.7165 -0.7598  0.9669
 1791TIP3    H226789   4.372   0.507   0.290 -1.8530 -1.8983  4.5562
 1792TIP3   OH226790   2.717   6.307  13.259  0.3714 -0.4419 -0.2570
 1792TIP3    H126791   2.757   6.222  13.239  1.5304  0.3796 -1.6678
 1792TIP3    H226792   2.648   6.316  13.193  1.1283  0.2572 -0.9785
 1793TIP3   OH226793   4.746   1.735   3.872 -0.2918  0.1372 -0.3057
 1793TIP3    H126794   4.793   1.670   3.819 -2.1897 -2.3669  0.8456
 1793TIP3    H226795   4.805   1.754   3.945 -0.7408 -2.7464  0.9738
 1794TIP3   OH226796   3.600   6.621   2.415  0.0652  0.3915  0.0855
 1794TIP3    H126797   3.573   6.655   2.329 -0.0475 -0.8736 -0.3987
 1794TIP3    H226798   3.530   6.561   2.440  0.8721 -0.4785  0.3086
 1795TIP3   OH226799   3.454   3.805   6.160  0.2781  0.1787  0.5209
 1795TIP3    H126800   3.490   3.744   6.224  0.6926  0.0819  0.1980
 1795TIP3    H226801   3.516   3.878   6.159  0.2944  0.1615  0.2031
 1796TIP3   OH226802   0.869   4.839   5.746  0.3176  0.1458 -0.0637
 1796TIP3    H126803   0.802   4.779   5.713  1.0857  0.5300 -2.4553
 1796TIP3    H226804   0.823   4.922   5.755 -0.0275 -0.0864  0.4274
 1797TIP3   OH226805   2.631   1.414  12.136 -0.0997 -0.2096 -0.7575
 1797TIP3    H126806   2.699   1.481  12.144  0.4698 -0.6482 -1.7300
 1797TIP3    H226807   2.638   1.384  12.045 -0.7149 -1.2064 -0.4891
 1798TIP3   OH226808   2.861   3.525  13.993 -0.9649  0.2293  0.0629
 1798TIP3    H126809   2.831   3.496  14.079 -2.8237 -0.2357 -0.6825
 1798TIP3    H226810   2.781   3.533  13.942  0.2240 -1.7755 -2.3341
 1799TIP3   OH226811   2.473   2.904  13.100 -0.0365  0.1102 -0.0340
 1799TIP3    H126812   2.416   2.940  13.168  0.4724  0.0105  0.4565
 1799TIP3    H226813   2.552   2.877  13.147 -0.5087 -1.9528 -0.3052
 1800TIP3   OH226814   3.596   2.764   2.364  0.0411  0.1288  0.2075
 1800TIP3    H126815   3.522   2.709   2.339  0.2603  0.2633 -0.7473
 1800TIP3    H226816   3.634   2.719   2.440 -1.0786  0.1249  0.7950
 1801TIP3   OH226817   0.729   5.681  12.923 -0.3664 -0.6352  0.1913
 1801TIP3    H126818   0.791   5.634  12.979  0.1629 -0.6653 -0.4113
 1801TIP3    H226819   0.755   5.773  12.931  2.2920 -0.9459 -3.0275
 1802TIP3   OH226820   4.659   6.240  15.621  0.0440  0.6089  0.1563
 1802TIP3    H126821   4.654   6.184  15.699 -0.7443  0.1612 -0.2007
 1802TIP3    H226822   4.659   6.329  15.655  0.6438  0.4163  0.7051
 1803TIP3   OH226823   2.849   5.324   3.593 -0.6926 -0.9223  0.2242
 1803TIP3    H126824   2.873   5.360   3.679  1.9981  0.1556 -0.8966
 1803TIP3    H226825   2.926   5.276   3.564 -1.1755 -0.4524 -2.0076
 1804TIP3   OH226826   0.996   5.548  14.366  0.7964 -0.5804 -0.1567
 1804TIP3    H126827   0.971   5.638  14.344  0.7908 -0.5970 -0.2195
 1804TIP3    H226828   1.038   5.515  14.286  0.9608 -0.5731 -0.0751
 1805TIP3   OH226829   0.557   5.543   5.911 -0.2400  0.4080  0.1550
 1805TIP3    H126830   0.644   5.565   5.945  0.1796 -1.4671  0.4016
 1805TIP3    H226831   0.575   5.490   5.833 -1.1677  0.3343 -0.0165
 1806TIP3   OH226832   4.845   4.367  12.627 -0.5390  0.2358 -0.8231
 1806TIP3    H126833   4.825   4.291  12.681 -0.2659 -0.6424 -1.8990
 1806TIP3    H226834   4.941   4.372  12.627 -0.5454  0.3724 -1.0163
 1807TIP3   OH226835   1.501   1.442   2.681 -0.4152  0.0508  0.4997
 1807TIP3    H126836   1.577   1.441   2.740 -0.4583  0.4919  0.5679
 1807TIP3    H226837   1.522   1.377   2.614  0.6282  1.0900 -0.2193
 1808TIP3   OH226838   6.352   1.380  16.452  0.6595 -0.3836  0.1335
 1808TIP3    H126839   6.257   1.386  16.466  0.7723 -0.4895  1.0275
 1808TIP3    H226840   6.362   1.313  16.384 -0.0319  1.6178 -2.0682
 1809TIP3   OH226841   5.148   3.804  13.172 -0.4536  0.3532 -0.2219
 1809TIP3    H126842   5.125   3.714  13.148 -0.1920  0.0667  0.5529
 1809TIP3    H226843   5.147   3.804  13.268  2.7013  0.3046 -0.0727
 1810TIP3   OH226844   6.301   4.871  14.481  0.2500  0.3322  0.7930
 1810TIP3    H126845   6.373   4.855  14.543  1.2990 -0.4220 -0.5562
 1810TIP3    H226846   6.222   4.871  14.536  1.0423 -1.2224  2.0405
 1811TIP3   OH226847   2.761   1.309  13.705 -0.2529 -0.2565 -0.0738
 1811TIP3    H126848   2.709   1.234  13.675  3.0519 -2.1147 -1.7175
 1811TIP3    H226849   2.734   1.382  13.650 -1.2313 -1.1056 -0.7404
 1812TIP3   OH226850   2.527   4.696  13.909 -0.4313 -0.2410  0.1389
 1812TIP3    H126851   2.499   4.788  13.907  0.5077  0.0485 -0.8623
 1812TIP3    H226852   2.546   4.676  13.817  1.8866 -0.6309  0.6519
 1813TIP3   OH226853   2.231   2.498   1.034  0.0505  0.6363 -0.1516
 1813TIP3    H126854   2.173   2.521   1.106 -1.3242 -0.1140 -0.9692
 1813TIP3    H226855   2.235   2.402   1.035  1.4049  0.6722 -0.0348
 1814TIP3   OH226856   4.692   0.387   4.363 -0.4567  0.0168  0.0265
 1814TIP3    H126857   4.678   0.432   4.446 -0.0611 -0.7420  0.5173
 1814TIP3    H226858   4.781   0.353   4.369  0.1120  1.1852 -1.3139
 1815TIP3   OH226859   6.300   6.399   0.021 -0.1616 -0.2395 -0.5729
 1815TIP3    H126860   6.231   6.333   0.008 -0.8691  0.7893 -2.6101
 1815TIP3    H226861   6.256   6.472   0.065  0.1651 -0.4096  0.0427
 1816TIP3   OH226862   3.340   3.655  13.109 -0.1367  0.0134  0.5186
 1816TIP3    H126863   3.311   3.706  13.033  2.1763  0.5067 -0.1184
 1816TIP3    H226864   3.385   3.580  13.071  0.1555 -0.2733  1.4105
 1817TIP3   OH226865   6.212   5.466  11.992  0.6263 -0.0102  0.3139
 1817TIP3    H126866   6.198   5.380  11.953  0.9312  0.0394  0.0946
 1817TIP3    H226867   6.274   5.450  12.063  0.0170 -0.1130  0.8320
 1818TIP3   OH226868   2.161   3.715   5.457 -0.9413  0.3104 -0.0658
 1818TIP3    H126869   2.182   3.808   5.444  1.0506  0.2691  2.1421
 1818TIP3    H226870   2.156   3.704   5.552  1.8167 -2.3416 -0.0679
 1819TIP3   OH226871   5.221   3.185  17.031  0.3470  0.0345  0.2061
 1819TIP3    H126872   5.293   3.204  17.091 -0.2473  1.4020  0.5310
 1819TIP3    H226873   5.162   3.128  17.080  0.3826  0.2954  0.5564
 1820TIP3   OH226874   6.422   4.900  17.104  0.5546 -0.1862  0.5031
 1820TIP3    H126875   6.439   4.976  17.160 -0.4780  2.1849 -2.1726
 1820TIP3    H226876   6.348   4.855  17.147 -0.4275  1.7344  0.9296
 1821TIP3   OH226877   4.562   4.788   3.389 -0.1735  0.6116  0.5020
 1821TIP3    H126878   4.586   4.858   3.450  0.9160  1.5555 -0.9597
 1821TIP3    H226879   4.471   4.808   3.365  0.4694  2.2151 -0.7516
 1822TIP3   OH226880   5.479   1.720   5.164 -0.6800 -0.1603 -0.1861
 1822TIP3    H126881   5.517   1.646   5.211 -0.6010  1.2408  2.0986
 1822TIP3    H226882   5.384   1.707   5.171 -0.7321  0.9010  2.0154
 1823TIP3   OH226883   6.713   2.492  16.047  0.3856  0.0795 -0.4917
 1823TIP3    H126884   6.685   2.557  16.111 -1.4644 -1.7082  0.6691
 1823TIP3    H226885   6.797   2.524  16.014  0.7885  1.7117  1.8982
 1824TIP3   OH226886   3.100   6.225  12.275 -0.6772 -0.2078  0.6480
 1824TIP3    H126887   3.092   6.307  12.325 -3.8847  0.0843 -0.0735
 1824TIP3    H226888   3.017   6.180  12.292 -0.2951 -1.8310 -1.4686
 1825TIP3   OH226889   2.167   2.627  16.795 -0.3712  0.2022 -0.1835
 1825TIP3    H126890   2.071   2.622  16.795 -0.3212 -0.9767 -0.3547
 1825TIP3    H226891   2.189   2.659  16.883 -0.9220  0.5999 -0.1860
 1826TIP3   OH226892   2.064   4.332   6.042  0.4381  0.1193  0.6176
 1826TIP3    H126893   2.034   4.407   5.991  1.6609  1.0614  1.2254
 1826TIP3    H226894   1.984   4.284   6.063 -0.1783  0.1282 -1.4601
 1827TIP3   OH226895   1.890   5.865  11.645 -0.5656  0.4156 -0.2214
 1827TIP3    H126896   1.821   5.927  11.668 -0.3561  0.5034  0.1718
 1827TIP3    H226897   1.876   5.791  11.704 -0.9374  0.0029 -0.8236
 1828TIP3   OH226898   5.465   6.174   0.383 -0.1315  0.1940 -1.0012
 1828TIP3    H126899   5.536   6.235   0.403 -0.2304 -0.0016  0.0101
 1828TIP3    H226900   5.408   6.222   0.323 -1.0214  1.7211  0.9338
 1829TIP3   OH226901   5.064   1.418   3.846  0.0009  0.0312  0.4326
 1829TIP3    H126902   5.081   1.391   3.936  0.0600  0.1111  0.4459
 1829TIP3    H226903   5.033   1.339   3.802  0.9349 -0.2586  0.2693
 1830TIP3   OH226904   0.621   6.271  14.336 -0.3186  0.3428 -0.3794
 1830TIP3    H126905   0.528   6.279  14.313 -0.2607 -0.4464 -0.9573
 1830TIP3    H226906   0.660   6.354  14.311 -0.2468 -0.4625 -3.3407
 1831TIP3   OH226907   4.277   4.259  16.547  0.5631 -0.4130 -0.3317
 1831TIP3    H126908   4.188   4.235  16.572 -0.3759  2.6892 -0.2709
 1831TIP3    H226909   4.323   4.274  16.630  0.1089  1.2110 -0.3486
 1832TIP3   OH226910   0.272   4.613   1.225  0.1782 -0.4472 -0.5502
 1832TIP3    H126911   0.279   4.623   1.320 -3.4492 -0.1276 -0.1879
 1832TIP3    H226912   0.236   4.525   1.213  0.6804 -0.5168 -1.6619
 1833TIP3   OH226913   4.561   5.060   0.981 -0.0174 -0.2372  0.1933
 1833TIP3    H126914   4.653   5.083   0.970 -0.1070 -0.0186 -0.1258
 1833TIP3    H226915   4.561   4.985   1.040  0.4727 -1.3194 -1.1351
 1834TIP3   OH226916   0.176   5.596   6.731 -0.1310  0.0294  0.2689
 1834TIP3    H126917   0.261   5.638   6.741  0.6105 -1.9666  3.5134
 1834TIP3    H226918   0.195   5.512   6.688 -0.6908  0.1608 -0.2575
 1835TIP3   OH226919   3.149   2.182   2.758  0.4929  0.9635  0.4033
 1835TIP3    H126920   3.129   2.245   2.827  1.2394  0.1534  1.3828
 1835TIP3    H226921   3.081   2.198   2.691  0.6792  2.7893  0.6008
 1836TIP3   OH226922   0.857   3.347   0.876 -0.1496  0.3085 -0.4776
 1836TIP3    H126923   0.793   3.413   0.903  1.7594  1.3054  2.0342
 1836TIP3    H226924   0.827   3.318   0.790 -3.3936  1.3820  0.1513
 1837TIP3   OH226925   0.938   1.235   3.810  0.1694 -0.6177  0.1497
 1837TIP3    H126926   0.879   1.289   3.862  0.1760  0.8055 -1.2472
 1837TIP3    H226927   0.956   1.287   3.732  1.0627 -2.1977 -0.7529
 1838TIP3   OH226928   1.038   4.380  15.148  0.1218 -0.3353  0.9019
 1838TIP3    H126929   0.979   4.317  15.109 -1.0019 -0.0015  1.9816
 1838TIP3    H226930   1.102   4.400  15.079 -1.0223 -0.6978 -0.3014
 1839TIP3   OH226931   3.917   1.101  14.030 -0.5669  0.7221 -0.0201
 1839TIP3    H126932   3.945   1.063  14.113  0.0481  1.8792  0.3207
 1839TIP3    H226933   3.905   1.194  14.049  0.3841  1.1627 -1.4149
 1840TIP3   OH226934   5.367   0.613  12.996 -0.0377  0.0331  0.0836
 1840TIP3    H126935   5.449   0.567  12.976  0.2192 -0.0200  1.1813
 1840TIP3    H226936   5.306   0.544  13.022  0.0953  0.2104  0.9159
 1841TIP3   OH226937   4.718   4.533  15.367 -0.4761  0.1054 -0.5350
 1841TIP3    H126938   4.789   4.595  15.378  1.8390 -2.1000 -1.8841
 1841TIP3    H226939   4.746   4.455  15.415 -1.8004 -0.9545 -1.3848
 1842TIP3   OH226940   1.273   5.831   6.398 -0.2303 -0.6928  0.1570
 1842TIP3    H126941   1.282   5.753   6.452 -2.6318  0.3636  2.3166
 1842TIP3    H226942   1.179   5.846   6.392  0.0532  0.6853 -2.3044
 1843TIP3   OH226943   1.475   5.421  17.191 -0.1933  0.5382  0.2563
 1843TIP3    H126944   1.461   5.499  17.137  0.7064 -0.3852 -1.3667
 1843TIP3    H226945   1.568   5.402  17.181 -0.3399 -0.5696  0.8849
 1844TIP3   OH226946   1.964   4.662   4.922  0.0802  0.8676 -0.5984
 1844TIP3    H126947   1.898   4.731   4.928  2.1143  2.8743  0.2845
 1844TIP3    H226948   2.047   4.710   4.914  1.3762 -1.5167 -2.7778
 1845TIP3   OH226949   0.337   3.944  14.636  0.1088  0.7256 -0.1062
 1845TIP3    H126950   0.268   4.001  14.603 -0.0331 -0.1644 -1.4051
 1845TIP3    H226951   0.291   3.871  14.677  0.2760  0.3502 -0.5822
 1846TIP3   OH226952   1.212   2.499   4.398 -0.2076 -0.2604  0.8235
 1846TIP3    H126953   1.189   2.584   4.362 -1.0111  0.2115  2.3573
 1846TIP3    H226954   1.294   2.513   4.446  0.6476 -0.7945 -0.4246
 1847TIP3   OH226955   2.010   4.488  13.023 -0.4944 -0.2613  0.5527
 1847TIP3    H126956   2.087   4.510  13.075 -0.6417  0.2319  0.5670
 1847TIP3    H226957   2.011   4.392  13.017  0.6378 -0.2135 -0.2380
 1848TIP3   OH226958   4.084   1.906  11.577 -0.3117  0.2514  0.7804
 1848TIP3    H126959   3.998   1.947  11.567 -0.4824  0.4391  2.6998
 1848TIP3    H226960   4.079   1.828  11.523  0.9101  3.7156 -5.2356
 1849TIP3   OH226961   6.408   3.608  15.433 -0.6469  0.6355  0.6809
 1849TIP3    H126962   6.440   3.524  15.468  0.9574  0.8334 -0.2344
 1849TIP3    H226963   6.342   3.636  15.497 -0.4971 -0.8224  1.5383
 1850TIP3   OH226964   5.477   1.055  13.403 -0.3940 -0.1205 -0.2420
 1850TIP3    H126965   5.443   0.968  13.381 -1.1135 -0.3677  1.7029
 1850TIP3    H226966   5.404   1.114  13.385 -1.3944 -0.4546  2.3182
 1851TIP3   OH226967   3.618   5.870  14.648  0.3718  0.2312  0.1456
 1851TIP3    H126968   3.671   5.792  14.631  1.8942  1.1990  0.2376
 1851TIP3    H226969   3.675   5.943  14.625 -1.8736  1.3415 -2.4673
 1852TIP3   OH226970   3.668   0.274  10.873  0.2332 -0.3214 -0.4360
 1852TIP3    H126971   3.634   0.194  10.915 -1.5233  0.9397  0.6654
 1852TIP3    H226972   3.639   0.267  10.782 -1.7740 -0.0183  0.1280
 1853TIP3   OH226973   2.779   2.601  16.866 -0.2923  0.0171  0.9541
 1853TIP3    H126974   2.842   2.553  16.812 -0.4120 -0.0506  0.8743
 1853TIP3    H226975   2.705   2.619  16.807  0.0323  0.8827  0.7972
 1854TIP3   OH226976   6.629   0.598   0.289 -0.0514  0.2310 -0.4951
 1854TIP3    H126977   6.634   0.509   0.324 -0.1248  0.6030  0.4988
 1854TIP3    H226978   6.576   0.590   0.210 -0.2560 -0.5678 -0.2826
 1855TIP3   OH226979   3.540   2.431  15.122  0.4474 -0.2237  0.2649
 1855TIP3    H126980   3.504   2.364  15.180  1.9700 -2.2379 -0.9938
 1855TIP3    H226981   3.621   2.393  15.089  2.1527  2.8475  0.5656
 1856TIP3   OH226982   0.579   1.523   5.370 -0.3736  0.1872 -0.1733
 1856TIP3    H126983   0.531   1.440   5.377  1.9668 -1.3194 -0.6866
 1856TIP3    H226984   0.538   1.569   5.297 -0.4941 -1.4402 -1.1795
 1857TIP3   OH226985   3.746   3.077  12.555 -0.2122  0.3399  0.5691
 1857TIP3    H126986   3.664   3.098  12.511  0.5193  1.0926 -0.4863
 1857TIP3    H226987   3.779   3.162  12.584 -0.2076 -0.0481  1.7359
 1858TIP3   OH226988   4.504   4.915  11.566 -0.4516  0.1445  0.8341
 1858TIP3    H126989   4.594   4.907  11.598 -0.6086  2.4329  2.0356
 1858TIP3    H226990   4.496   5.007  11.539 -2.1596 -0.2437 -0.1732
 1859TIP3   OH226991   0.215   4.048  13.002 -0.0897  0.2611 -0.0292
 1859TIP3    H126992   0.132   4.033  13.047  1.6226 -1.1586  2.9966
 1859TIP3    H226993   0.264   4.106  13.060  1.2885  0.5206 -1.3800
 1860TIP3   OH226994   6.040   2.887  11.089  0.4368 -0.6478 -0.1444
 1860TIP3    H126995   6.052   2.882  11.184  0.7294 -1.2536 -0.2107
 1860TIP3    H226996   6.127   2.872  11.053  0.4026 -0.0072 -0.5042
 1861TIP3   OH226997   3.177   2.048   3.635  0.2099 -0.8157 -0.2249
 1861TIP3    H126998   3.113   2.119   3.642  0.4731 -0.6002 -0.0082
 1861TIP3    H226999   3.249   2.086   3.585  0.9262 -0.5189  0.9965
 1862TIP3   OH227000   5.283   2.266  13.917  0.5777  0.5293 -0.9448
 1862TIP3    H127001   5.218   2.329  13.948 -1.2215 -1.3461 -0.6908
 1862TIP3    H227002   5.300   2.210  13.992 -2.3472 -2.8437 -2.5179
 1863TIP3   OH227003   0.910   1.539  11.795  0.2851  0.1699  0.0164
 1863TIP3    H127004   0.979   1.601  11.818 -0.8738  2.0436 -1.3026
 1863TIP3    H227005   0.853   1.587  11.737 -0.0123 -2.5427 -2.1543
 1864TIP3   OH227006   6.425   4.981  15.516  0.6445  0.2130 -0.5061
 1864TIP3    H127007   6.350   5.002  15.460 -0.4525  0.6653  1.0599
 1864TIP3    H227008   6.404   4.896  15.554  0.4035  0.7965  0.7225
 1865TIP3   OH227009   4.477   1.387   0.758 -0.2259 -0.1479 -0.1064
 1865TIP3    H127010   4.434   1.309   0.793 -0.7066 -0.5506 -1.5250
 1865TIP3    H227011   4.565   1.383   0.794 -0.6142 -0.6632  0.8442
 1866TIP3   OH227012   4.233   5.785  11.682  0.5696  0.5253  0.2822
 1866TIP3    H127013   4.260   5.709  11.732  0.6940 -0.7638 -1.6157
 1866TIP3    H227014   4.248   5.860  11.740  0.1587 -0.8952  2.3189
 1867TIP3   OH227015   4.743   0.863  16.613 -0.2539  0.0573 -0.3269
 1867TIP3    H127016   4.736   0.790  16.553  1.5314  0.4347 -1.0605
 1867TIP3    H227017   4.685   0.840  16.686 -0.1949 -1.7826 -0.8115
 1868TIP3   OH227018   4.501   0.160  14.801 -0.0623  0.6516  0.0702
 1868TIP3    H127019   4.497   0.221  14.727  2.3667 -0.4271 -1.0402
 1868TIP3    H227020   4.453   0.083  14.772  1.9778 -0.2881 -0.9935
 1869TIP3   OH227021   2.395   1.226  12.901 -0.8210  0.1373 -0.0212
 1869TIP3    H127022   2.379   1.173  12.979  1.1931 -0.7418 -0.1439
 1869TIP3    H227023   2.375   1.316  12.927  0.5327 -0.0427  1.7578
 1870TIP3   OH227024   0.310   4.752   6.069 -0.4210 -0.6375  0.7467
 1870TIP3    H127025   0.395   4.722   6.038 -0.3292  0.4515 -0.1055
 1870TIP3    H227026   0.260   4.769   5.989 -0.0811  2.5402  1.0861
 1871TIP3   OH227027   5.363   2.160  11.113  0.2588 -0.0308 -0.2547
 1871TIP3    H127028   5.395   2.132  11.198 -0.3322 -0.6578 -0.2197
 1871TIP3    H227029   5.393   2.091  11.053 -1.5619 -1.0156 -0.1045
 1872TIP3   OH227030   0.241   6.215  13.042 -0.1839  0.3994  0.1466
 1872TIP3    H127031   0.288   6.278  12.986 -0.7557  0.9910  0.3214
 1872TIP3    H227032   0.265   6.241  13.131 -0.2000  0.1920  0.2112
 1873TIP3   OH227033   4.997   5.030  16.088 -0.4206  0.1237 -0.5601
 1873TIP3    H127034   5.092   5.040  16.083 -0.4047 -0.0648 -0.6243
 1873TIP3    H227035   4.966   5.116  16.117 -0.1273 -0.1479  0.6193
 1874TIP3   OH227036   4.000   3.392   4.310 -0.1217  0.0816 -0.1223
 1874TIP3    H127037   3.952   3.392   4.228 -2.1305  2.5447  0.9119
 1874TIP3    H227038   3.985   3.480   4.347 -1.1611 -1.5358  3.8579
 1875TIP3   OH227039   2.147   4.009  12.198 -0.2633 -0.1772 -0.1322
 1875TIP3    H127040   2.098   4.012  12.116  0.1228  0.1850 -0.3555
 1875TIP3    H227041   2.239   4.016  12.171 -0.2092  2.6440  0.4356
 1876TIP3   OH227042   0.466   1.746  16.320  0.0523 -0.4601 -0.1119
 1876TIP3    H127043   0.413   1.682  16.274  0.9576 -0.2448 -1.4856
 1876TIP3    H227044   0.405   1.817  16.341 -0.7720 -1.3952  0.7168
 1877TIP3   OH227045   5.059   5.880   6.369 -0.0616  0.0733  0.0085
 1877TIP3    H127046   4.987   5.899   6.428 -0.2029  0.4788 -0.2954
 1877TIP3    H227047   5.100   5.802   6.406 -1.5169 -1.0282 -0.5924
 1878TIP3   OH227048   4.960   5.084  10.978 -0.0027 -0.1411  0.0885
 1878TIP3    H127049   5.002   4.998  10.967  0.4007  0.1414 -0.7020
 1878TIP3    H227050   4.934   5.087  11.070 -1.6095 -1.8112 -0.2771
 1879TIP3   OH227051   6.324   1.218   0.091 -0.8365 -0.9517  0.2093
 1879TIP3    H127052   6.380   1.296   0.089 -0.4083 -1.2061  1.4195
 1879TIP3    H227053   6.240   1.247   0.056 -0.0502 -0.4953 -1.4251
 1880TIP3   OH227054   0.550   4.388   5.140  0.3147  0.2962 -0.1913
 1880TIP3    H127055   0.584   4.300   5.157 -0.9734 -0.0983  0.5438
 1880TIP3    H227056   0.517   4.384   5.050  0.4109  0.0769 -0.2179
 1881TIP3   OH227057   5.723   0.281  12.807  0.1267  0.0017  0.6861
 1881TIP3    H127058   5.660   0.285  12.879 -1.0276 -3.5940  0.0406
 1881TIP3    H227059   5.754   0.191  12.806  1.7759  0.4847 -1.9492
 1882TIP3   OH227060   3.361   1.054  14.210  0.3878  0.0104 -0.3199
 1882TIP3    H127061   3.293   0.995  14.177  0.7956 -0.6717  0.0245
 1882TIP3    H227062   3.427   0.995  14.247 -0.0660  0.7264  1.7553
 1883TIP3   OH227063   4.399   0.895  12.300  0.3235 -0.4411 -0.0758
 1883TIP3    H127064   4.354   0.974  12.331 -1.5887 -0.7789 -1.7242
 1883TIP3    H227065   4.432   0.853  12.379 -2.9832 -0.5517  1.4191
 1884TIP3   OH227066   0.219   2.751   1.151 -0.3947 -0.0436  0.3075
 1884TIP3    H127067   0.131   2.748   1.191 -0.0087  1.3584  1.3180
 1884TIP3    H227068   0.238   2.844   1.142  0.5628 -0.3405 -0.9266
 1885TIP3   OH227069   1.803   0.180   0.015 -0.2058 -0.3767 -0.6439
 1885TIP3    H127070   1.877   0.189  -0.045 -1.0456  2.1435 -1.4599
 1885TIP3    H227071   1.842   0.152   0.098  1.4890 -0.3578 -1.3967
 1886TIP3   OH227072   1.173   3.102   4.443  0.4425 -0.0165 -0.4161
 1886TIP3    H127073   1.239   3.141   4.386  0.9861  3.9521  2.5025
 1886TIP3    H227074   1.223   3.067   4.517 -0.5159  0.1829  0.3445
 1887TIP3   OH227075   2.635   6.346   4.933  0.0570 -0.2141  0.3689
 1887TIP3    H127076   2.634   6.442   4.930 -0.8196 -0.1469  1.7767
 1887TIP3    H227077   2.665   6.320   4.846  2.7138  1.3455  0.7165
 1888TIP3   OH227078   6.085   4.913  16.760 -0.5097  0.2990  0.2683
 1888TIP3    H127079   6.067   4.988  16.816  1.5511  2.0373 -1.2319
 1888TIP3    H227080   6.176   4.889  16.780 -1.3992 -2.5482  1.4430
 1889TIP3   OH227081   5.262   2.534  15.811 -0.3699  0.2984 -0.0697
 1889TIP3    H127082   5.260   2.510  15.718 -0.4041 -0.0946  0.0302
 1889TIP3    H227083   5.346   2.499  15.843 -0.5057  0.1456  0.1210
 1890TIP3   OH227084   1.951   1.971   5.339 -0.2490  0.3050 -0.7736
 1890TIP3    H127085   1.884   1.906   5.363  1.0425 -1.1931 -1.0511
 1890TIP3    H227086   2.005   1.979   5.417  0.2118  0.2485 -1.0850
 1891TIP3   OH227087   1.299   6.290   1.960 -0.1118  0.4829 -0.0969
 1891TIP3    H127088   1.207   6.313   1.970 -0.4011  0.2898 -2.0137
 1891TIP3    H227089   1.301   6.196   1.980 -0.6325  0.1393 -1.5571
 1892TIP3   OH227090   4.309   5.100  13.749 -0.2661  0.2021 -0.3148
 1892TIP3    H127091   4.219   5.118  13.722 -0.6277 -0.1450  0.6382
 1892TIP3    H227092   4.352   5.069  13.669 -0.7575  1.1611 -0.9743
 1893TIP3   OH227093   6.203   6.059   5.119  0.1198 -0.8172  0.0506
 1893TIP3    H127094   6.177   6.055   5.027  2.7196 -0.7995 -0.7822
 1893TIP3    H227095   6.255   5.980   5.132 -0.0789 -0.7378  1.4794
 1894TIP3   OH227096   5.301   0.807  13.661 -0.0426  0.0752 -0.1650
 1894TIP3    H127097   5.231   0.805  13.726  0.1526 -2.1828  0.0485
 1894TIP3    H227098   5.256   0.811  13.577 -0.4801 -1.4534 -0.0325
 1895TIP3   OH227099   2.149   5.897   2.446 -0.5086  0.1670 -0.2384
 1895TIP3    H127100   2.110   5.810   2.449  0.7326 -0.4486 -1.1449
 1895TIP3    H227101   2.243   5.881   2.442 -0.2598  1.5596 -0.4064
 1896TIP3   OH227102   6.411   6.508  16.070 -0.5011 -0.0719  0.3239
 1896TIP3    H127103   6.416   6.601  16.091  0.2663 -0.3552  1.4984
 1896TIP3    H227104   6.336   6.476  16.119 -0.5560 -0.1330  0.1998
 1897TIP3   OH227105   4.075   5.660   0.460 -0.8743  0.3510  0.0924
 1897TIP3    H127106   4.023   5.607   0.521 -0.9792  0.6239  0.2385
 1897TIP3    H227107   4.021   5.666   0.382 -0.9021  0.3218  0.1091
 1898TIP3   OH227108   2.829   5.676   3.431 -0.4918 -0.3009  0.3117
 1898TIP3    H127109   2.769   5.636   3.494 -1.6492  0.4076 -0.2939
 1898TIP3    H227110   2.780   5.674   3.348  0.2744  0.4167 -0.1677
 1899TIP3   OH227111   1.363   3.125  13.531 -0.7001 -0.7192 -0.1027
 1899TIP3    H127112   1.448   3.159  13.502 -0.5260 -0.5526  0.5770
 1899TIP3    H227113   1.364   3.033  13.506 -0.3996 -0.6728 -0.2676
 1900TIP3   OH227114   1.132   6.259  12.705 -0.2469  0.2338 -0.1663
 1900TIP3    H127115   1.128   6.215  12.620  1.5693  0.9026 -0.6409
 1900TIP3    H227116   1.088   6.342  12.691 -0.3375  0.1607 -0.3212
 1901TIP3   OH227117   6.384   0.952   3.003  0.4859 -0.3519  0.2052
 1901TIP3    H127118   6.403   1.046   3.014  0.5448 -0.4724  1.2959
 1901TIP3    H227119   6.306   0.938   3.056  0.6403 -0.9715  0.2709
 1902TIP3   OH227120   5.455   4.599  14.041  0.6743 -0.3027 -0.1464
 1902TIP3    H127121   5.435   4.657  13.968 -0.2747 -0.0689  0.2819
 1902TIP3    H227122   5.532   4.549  14.012  0.3674 -0.1549 -1.2543
 1903TIP3   OH227123   4.026   3.155  11.499  0.1309 -0.2466  0.1085
 1903TIP3    H127124   4.016   3.224  11.433 -0.2136  1.0037  1.4267
 1903TIP3    H227125   4.017   3.073  11.449 -1.2958  0.6620 -1.2110
 1904TIP3   OH227126   4.098   3.355  13.568 -0.2647 -0.4443  0.3625
 1904TIP3    H127127   4.121   3.341  13.476  1.9964  0.7882  0.6787
 1904TIP3    H227128   4.002   3.357  13.569 -0.3376  0.5734 -2.1298
 1905TIP3   OH227129   4.610   6.453  11.402 -0.4380  0.1933  0.2726
 1905TIP3    H127130   4.695   6.487  11.430 -0.0308 -0.2851 -0.3546
 1905TIP3    H227131   4.597   6.375  11.456 -0.4832  0.2746  0.3780
 1906TIP3   OH227132   3.446   0.154   5.279 -0.1671 -0.3340  0.4817
 1906TIP3    H127133   3.362   0.109   5.274 -0.2908 -0.0483 -0.0587
 1906TIP3    H227134   3.503   0.104   5.221  0.5969 -1.6898  2.3038
 1907TIP3   OH227135   2.030   6.483  12.512  0.0062  0.2906  0.2685
 1907TIP3    H127136   1.959   6.545  12.529  0.0992  1.1635 -2.1351
 1907TIP3    H227137   1.985   6.401  12.491 -0.1269 -0.3733  2.7675
 1908TIP3   OH227138   5.898   6.228  11.245  0.2837  0.3887  0.4620
 1908TIP3    H127139   5.810   6.260  11.266  0.3843 -0.1174  1.7374
 1908TIP3    H227140   5.884   6.166  11.173 -0.3107  0.7963  0.2128
 1909TIP3   OH227141   5.305   6.568   5.283 -1.1704 -0.4352  0.2316
 1909TIP3    H127142   5.262   6.617   5.213 -0.8321  1.1613  1.0949
 1909TIP3    H227143   5.332   6.635   5.346  1.6272 -1.4504  0.2428
 1910TIP3   OH227144   4.154   2.226  12.361 -0.5952 -0.3228  0.3453
 1910TIP3    H127145   4.247   2.247  12.360 -0.6964  0.1328  0.4385
 1910TIP3    H227146   4.128   2.229  12.269 -0.4562 -0.7439  0.2881
 1911TIP3   OH227147   5.728   2.651   0.116  0.2797 -0.0207 -0.1389
 1911TIP3    H127148   5.646   2.696   0.140  0.5631  0.0980  0.6431
 1911TIP3    H227149   5.736   2.665   0.022 -0.5717  0.0190 -0.2174
 1912TIP3   OH227150   3.352   1.771   3.330  0.4938 -0.0557 -0.4438
 1912TIP3    H127151   3.314   1.841   3.383  1.4150  0.6266 -0.6494
 1912TIP3    H227152   3.418   1.731   3.387  1.8887  1.0494 -1.2283
 1913TIP3   OH227153   1.707   0.074   4.908  0.0126  0.4977  0.1297
 1913TIP3    H127154   1.777   0.022   4.949 -0.6016 -0.7535 -0.3579
 1913TIP3    H227155   1.736   0.088   4.819 -0.1746  0.3040  0.0363
 1914TIP3   OH227156   0.956   1.806  13.036 -0.2967 -0.0812  0.0149
 1914TIP3    H127157   0.932   1.715  13.056 -1.3993  0.1975  0.0458
 1914TIP3    H227158   0.896   1.832  12.966 -0.3558  0.7773  0.3622
 1915TIP3   OH227159   3.787   0.381   6.528 -0.0713  0.2334  0.3300
 1915TIP3    H127160   3.726   0.342   6.591  3.6802 -2.4727  2.6935
 1915TIP3    H227161   3.815   0.463   6.568  0.9116 -0.5937  1.4289
 1916TIP3   OH227162   1.466   2.731   2.589  0.4678 -0.4151 -0.4050
 1916TIP3    H127163   1.525   2.797   2.552  0.3417  0.7338  1.3354
 1916TIP3    H227164   1.388   2.780   2.613 -0.8360 -1.7458 -1.7134
 1917TIP3   OH227165   0.684   3.879   5.273  0.4154  0.5070 -0.0934
 1917TIP3    H127166   0.591   3.857   5.283 -0.0446  1.1262 -2.4145
 1917TIP3    H227167   0.729   3.795   5.284 -0.8184 -0.6814 -2.9866
 1918TIP3   OH227168   1.297   0.231   1.198 -0.2849 -0.0791  0.7088
 1918TIP3    H127169   1.203   0.225   1.216 -0.6665  1.9402 -0.2948
 1918TIP3    H227170   1.315   0.157   1.140 -1.3265 -0.2658  0.5981
 1919TIP3   OH227171   5.148   1.558   6.047  0.0848 -0.2503  0.4530
 1919TIP3    H127172   5.216   1.494   6.070  1.4754  0.6861 -0.8412
 1919TIP3    H227173   5.132   1.606   6.127  0.1082 -1.2334  1.0672
 1920TIP3   OH227174   0.371   2.176  17.382  0.2783 -0.3595 -0.4092
 1920TIP3    H127175   0.363   2.095  17.331 -1.5350 -0.2002 -0.4524
 1920TIP3    H227176   0.311   2.164  17.455 -1.3460  1.5928 -1.3280
 1921TIP3   OH227177   5.070   4.429  13.410 -0.4376 -0.0277 -0.4270
 1921TIP3    H127178   5.068   4.448  13.504  0.6540 -1.4686 -0.0688
 1921TIP3    H227179   5.133   4.357  13.402 -0.1199  0.4138 -2.3312
 1922TIP3   OH227180   2.639   1.670  14.435  0.5003 -0.8387 -0.7446
 1922TIP3    H127181   2.653   1.603  14.368  0.7195 -1.4261 -0.1237
 1922TIP3    H227182   2.694   1.642  14.508 -0.7608 -0.9412  0.1925
 1923TIP3   OH227183   3.666   5.613   2.655  0.1576 -0.2127  0.1453
 1923TIP3    H127184   3.606   5.680   2.623  1.4420  1.0274  0.2414
 1923TIP3    H227185   3.752   5.641   2.624  0.9576 -0.8730  1.6799
 1924TIP3   OH227186   5.915   5.643   3.431 -0.2190  0.7446 -0.7505
 1924TIP3    H127187   5.823   5.628   3.451  0.7774 -2.7373  2.5196
 1924TIP3    H227188   5.931   5.592   3.351 -0.7272 -0.7833  0.0732
 1925TIP3   OH227189   2.245   2.950   4.500 -0.3263  0.1207  0.0661
 1925TIP3    H127190   2.300   2.872   4.489  1.5669  1.5475 -1.2819
 1925TIP3    H227191   2.174   2.938   4.437  0.3692 -0.1937 -0.6828
 1926TIP3   OH227192   4.502   6.034  16.104 -0.2696  0.7555  0.0644
 1926TIP3    H127193   4.539   6.093  16.170 -1.4744  0.7276  0.8046
 1926TIP3    H227194   4.489   5.952  16.150 -1.8241  0.9525  0.0366
 1927TIP3   OH227195   3.353   1.743   2.122 -0.3092  0.1098  0.1377
 1927TIP3    H127196   3.379   1.835   2.119 -0.0236  0.0196 -1.2214
 1927TIP3    H227197   3.388   1.710   2.204  3.3604  0.1784 -1.2108
 1928TIP3   OH227198   4.764   2.583  14.312 -0.1759  0.3082 -0.1111
 1928TIP3    H127199   4.673   2.563  14.290 -0.0753 -1.2614  0.6973
 1928TIP3    H227200   4.780   2.534  14.393  1.7102 -0.4122 -0.8531
 1929TIP3   OH227201   0.088   0.499   5.284  0.1830  0.4430  0.7938
 1929TIP3    H127202   0.173   0.494   5.327  1.3333  1.0458 -1.2844
 1929TIP3    H227203   0.071   0.593   5.274  0.3997  0.3361 -0.8454
 1930TIP3   OH227204   2.244   5.685   5.779  0.2552 -0.4260 -0.8483
 1930TIP3    H127205   2.252   5.594   5.810  0.0927 -0.3486 -0.5789
 1930TIP3    H227206   2.334   5.718   5.777  0.1230  0.2758  1.6568
 1931TIP3   OH227207   0.628   3.118  12.116 -0.3324 -0.3030 -0.2577
 1931TIP3    H127208   0.715   3.081  12.128 -0.6183 -0.3953  1.9322
 1931TIP3    H227209   0.570   3.042  12.110 -0.7343 -0.3596  2.7454
 1932TIP3   OH227210   1.435   1.927  17.199 -0.2262 -0.0295 -0.5502
 1932TIP3    H127211   1.355   1.945  17.248  0.4139  0.4111  0.3650
 1932TIP3    H227212   1.475   1.853  17.245  0.3496  0.3466 -0.4349
 1933TIP3   OH227213   5.111   3.146   3.873 -0.0981 -0.0986 -0.3991
 1933TIP3    H127214   5.063   3.128   3.792 -0.9918  0.0589  0.0956
 1933TIP3    H227215   5.149   3.062   3.897 -1.2452 -0.5336 -0.0671
 1934TIP3   OH227216   0.537   2.287   2.371 -0.2778  0.1323  0.2963
 1934TIP3    H127217   0.452   2.297   2.329 -1.6116 -1.0694  2.5685
 1934TIP3    H227218   0.568   2.201   2.342  0.3830  0.7314 -0.8351
 1935TIP3   OH227219   6.727   3.606  15.630 -0.6804 -0.3392 -0.4099
 1935TIP3    H127220   6.758   3.687  15.589  3.7456 -1.2777  0.5619
 1935TIP3    H227221   6.687   3.634  15.712  0.8377  0.9168 -0.0542
 1936TIP3   OH227222   0.594   0.676  11.740 -0.2488 -0.6644  0.0684
 1936TIP3    H127223   0.517   0.643  11.693 -0.5082  0.0328 -0.0061
 1936TIP3    H227224   0.660   0.689  11.672  0.8602 -3.6914  0.4093
 1937TIP3   OH227225   1.326   0.311   2.707 -0.0283 -0.1007  0.3930
 1937TIP3    H127226   1.264   0.268   2.766  1.3960 -0.8068  1.4293
 1937TIP3    H227227   1.353   0.390   2.753  0.3866 -0.1744  0.2847
 1938TIP3   OH227228   0.495   4.249   4.216  0.0882  0.2667 -0.0430
 1938TIP3    H127229   0.399   4.254   4.217  0.1288  1.4574 -0.4934
 1938TIP3    H227230   0.524   4.340   4.208  1.2430 -0.1354 -0.6746
 1939TIP3   OH227231   5.779   1.993   2.739 -0.6282 -0.1958  0.1929
 1939TIP3    H127232   5.855   2.027   2.787 -1.4116  2.6239 -0.4071
 1939TIP3    H227233   5.716   1.970   2.808 -0.2051 -0.0919  0.6210
 1940TIP3   OH227234   4.238   6.301   0.266  0.9059  0.4826  0.0741
 1940TIP3    H127235   4.168   6.267   0.321  0.6271  0.7986 -0.0842
 1940TIP3    H227236   4.232   6.396   0.274  0.1390  0.5901 -1.3641
 1941TIP3   OH227237   6.343   6.007  14.900 -0.0254  0.3545  0.2703
 1941TIP3    H127238   6.388   6.031  14.981  0.0291  0.0945  0.3192
 1941TIP3    H227239   6.413   5.998  14.836  0.0188 -0.2247  0.3887
 1942TIP3   OH227240   2.197   1.043   3.201 -0.4417  0.1741  0.2552
 1942TIP3    H127241   2.178   1.115   3.260  0.8767 -0.2640  1.2490
 1942TIP3    H227242   2.290   1.024   3.215 -0.1896 -0.2219 -1.6549
 1943TIP3   OH227243   2.306   5.290   3.474 -0.0925 -0.7093  0.0883
 1943TIP3    H127244   2.400   5.304   3.478 -0.5433  3.2316  1.7427
 1943TIP3    H227245   2.270   5.375   3.447 -3.2502 -1.2660  1.9546
 1944TIP3   OH227246   0.311   1.409   1.487  0.1421 -0.3263 -0.2502
 1944TIP3    H127247   0.327   1.463   1.409  0.2173  0.6949  0.4520
 1944TIP3    H227248   0.291   1.472   1.556  0.3204 -1.2068  0.6277
 1945TIP3   OH227249   5.883   5.157   5.285  0.1471  0.0188 -0.4018
 1945TIP3    H127250   5.924   5.087   5.336  2.8212  0.9965 -1.0375
 1945TIP3    H227251   5.802   5.118   5.252  0.1838 -1.8471  1.4784
 1946TIP3   OH227252   2.402   0.730   4.966 -0.1645 -0.2418 -0.6785
 1946TIP3    H127253   2.368   0.646   4.938 -1.5637  0.5119 -1.3211
 1946TIP3    H227254   2.413   0.780   4.885 -1.8722  1.0853 -0.1556
 1947TIP3   OH227255   6.014   6.639  12.123  0.1340 -0.2013  0.2883
 1947TIP3    H127256   6.058   6.599  12.048  1.0001  0.5931  0.3516
 1947TIP3    H227257   6.074   6.624  12.197 -0.2419 -0.1022  0.6153
 1948TIP3   OH227258   5.958   6.380   5.434  0.1217 -0.0549  0.7456
 1948TIP3    H127259   5.976   6.435   5.510  1.7519 -0.3401  0.5988
 1948TIP3    H227260   6.041   6.335   5.416 -0.1389  0.1871 -1.3360
 1949TIP3   OH227261   6.201   0.602  14.657 -0.4524 -0.7767 -0.2064
 1949TIP3    H127262   6.202   0.673  14.722  0.6771  0.4924 -1.5049
 1949TIP3    H227263   6.121   0.554  14.674 -0.3018 -0.3699  1.9697
 1950TIP3   OH227264   4.093   4.977  11.255  0.0065 -0.9603  0.1709
 1950TIP3    H127265   4.012   5.016  11.288 -0.1648 -0.7103 -0.5317
 1950TIP3    H227266   4.112   5.026  11.175  1.0027 -0.8354  0.4714
 1951TIP3   OH227267   6.376   4.014   3.254  1.0312 -0.7007  0.4917
 1951TIP3    H127268   6.295   3.966   3.265 -0.4335  1.0007 -1.8140
 1951TIP3    H227269   6.421   3.970   3.181 -0.2590  1.1216 -1.5454
 1952TIP3   OH227270   0.861   1.202  16.958 -0.1632  0.1621 -0.0153
 1952TIP3    H127271   0.896   1.257  16.888  0.2257 -0.5246 -0.3685
 1952TIP3    H227272   0.934   1.144  16.982 -0.5728 -0.2237  0.3221
 1953TIP3   OH227273   3.048   6.010   0.177  0.7628 -0.1006 -0.0556
 1953TIP3    H127274   3.054   5.948   0.104  1.0623 -2.3987  1.7954
 1953TIP3    H227275   3.134   6.051   0.182  0.5255  0.6088 -1.3764
 1954TIP3   OH227276   3.922   2.657   3.639  0.6961 -0.8806 -0.1964
 1954TIP3    H127277   3.979   2.608   3.579  1.1647 -0.1852 -0.3329
 1954TIP3    H227278   3.887   2.728   3.586  1.0100 -0.3384  0.3223
 1955TIP3   OH227279   6.747   1.072  15.546 -0.1397 -0.1183 -0.2802
 1955TIP3    H127280   6.785   1.054  15.632  0.4928  1.3687 -0.2263
 1955TIP3    H227281   6.655   1.046  15.555  0.3621 -1.9212  0.1845
 1956TIP3   OH227282   3.183   2.803   2.690 -0.0506  0.0388 -0.2157
 1956TIP3    H127283   3.161   2.712   2.670  0.0333  0.2688 -1.4497
 1956TIP3    H227284   3.274   2.813   2.660 -0.3424  0.7493 -0.9099
 1957TIP3   OH227285   3.006   0.677  11.733  0.0811  0.1279  0.7514
 1957TIP3    H127286   3.076   0.651  11.793  1.6708  0.1837 -0.9807
 1957TIP3    H227287   2.997   0.771  11.745 -0.0987  0.0371  1.3661
 1958TIP3   OH227288   1.644   0.921   4.270 -0.0679  0.1701 -0.0043
 1958TIP3    H127289   1.598   0.916   4.186 -0.8454  1.5512  0.3164
 1958TIP3    H227290   1.575   0.932   4.335  0.5462 -0.6724  0.8018
 1959TIP3   OH227291   5.603   2.198   3.151 -0.0038  0.2569 -0.3535
 1959TIP3    H127292   5.538   2.137   3.116 -0.3029  1.0105 -1.1222
 1959TIP3    H227293   5.654   2.145   3.213 -1.7065 -0.2032  0.7109
 1960TIP3   OH227294   4.163   2.304   1.504  0.9512 -0.6707 -0.0203
 1960TIP3    H127295   4.097   2.373   1.509  0.4271 -0.9742 -2.0278
 1960TIP3    H227296   4.246   2.350   1.492  1.0361 -0.3225  1.6238
 1961TIP3   OH227297   4.097   0.067   5.428 -0.2062 -0.4691  0.1907
 1961TIP3    H127298   4.138   0.144   5.388 -0.6107 -0.6280 -0.5502
 1961TIP3    H227299   4.065   0.098   5.512 -1.3703  0.4827 -0.5681
 1962TIP3   OH227300   1.245   1.586  15.230  0.0965 -0.0124  0.4249
 1962TIP3    H127301   1.176   1.572  15.166  0.1029  0.2991  0.3466
 1962TIP3    H227302   1.315   1.527  15.204 -0.1825 -0.4118  0.5700
 1963TIP3   OH227303   5.912   1.546  15.272 -0.3607  0.5971  0.2615
 1963TIP3    H127304   5.998   1.521  15.306 -0.6427  1.1237  1.4321
 1963TIP3    H227305   5.902   1.638  15.299 -0.8070  0.8976 -0.8725
 1964TIP3   OH227306   2.033   1.559  14.267 -0.2567 -0.2605 -0.3937
 1964TIP3    H127307   2.041   1.652  14.247  1.3200 -0.2950 -0.1043
 1964TIP3    H227308   2.116   1.522  14.238 -0.7694 -1.5370 -0.2838
 1965TIP3   OH227309   5.382   5.943   5.053  0.3991 -0.2036 -0.0233
 1965TIP3    H127310   5.353   5.894   4.976  2.5550 -0.6211 -0.6306
 1965TIP3    H227311   5.362   5.886   5.127 -2.3796  0.5049 -0.1042
 1966TIP3   OH227312   0.727   2.247  14.681  0.2842  0.6915  0.2796
 1966TIP3    H127313   0.816   2.213  14.674  0.4231  0.9242  0.8875
 1966TIP3    H227314   0.671   2.172  14.661  0.6064  0.2769  0.8953
 1967TIP3   OH227315   1.121   0.261   2.884 -0.1680  0.2155 -0.6814
 1967TIP3    H127316   1.121   0.291   2.975  0.1311 -0.7524 -0.3519
 1967TIP3    H227317   1.120   0.165   2.889  1.3891  0.0993 -1.6679
 1968TIP3   OH227318   0.958   1.552   4.720  0.8545 -0.6976  0.1379
 1968TIP3    H127319   0.990   1.463   4.733  0.7312 -0.9724 -1.3380
 1968TIP3    H227320   0.966   1.593   4.807  1.3338 -1.9926  0.7294
 1969TIP3   OH227321   0.390   0.736   3.925  0.0284  0.0600  0.0181
 1969TIP3    H127322   0.346   0.816   3.953 -0.5491 -0.2125 -0.0772
 1969TIP3    H227323   0.396   0.744   3.830 -1.5788 -0.7442 -0.1903
 1970TIP3   OH227324   3.607   4.109   0.122  0.6791  0.0314  0.3388
 1970TIP3    H127325   3.700   4.132   0.134  0.1333  1.7353  1.7175
 1970TIP3    H227326   3.576   4.088   0.210 -0.1816 -0.8605 -0.1607
 1971TIP3   OH227327   4.755   2.913  15.325  0.0790 -0.1354 -0.1068
 1971TIP3    H127328   4.800   2.855  15.264  0.8273  2.0514 -1.7910
 1971TIP3    H227329   4.808   2.912  15.404  1.8218  0.5460 -1.2097
 1972TIP3   OH227330   3.836   1.356   5.872  0.3052 -0.4502  0.3931
 1972TIP3    H127331   3.869   1.266   5.863 -0.7315 -0.8673  0.6841
 1972TIP3    H227332   3.798   1.376   5.787  2.1015  0.3894 -0.2680
 1973TIP3   OH227333   0.114   3.248   5.604  0.3634  0.3179 -0.1997
 1973TIP3    H127334   0.079   3.165   5.638  0.1027  0.8227  0.7792
 1973TIP3    H227335   0.203   3.252   5.638  0.1842  0.7090  0.2213
 1974TIP3   OH227336   3.174   5.849  13.112 -0.3469 -0.3426 -0.2223
 1974TIP3    H127337   3.106   5.843  13.179 -1.2324 -0.5523 -1.1171
 1974TIP3    H227338   3.131   5.820  13.032  0.3459  1.0115 -1.1248
 1975TIP3   OH227339   0.861   3.611   5.714 -0.2339 -0.6182 -0.1060
 1975TIP3    H127340   0.805   3.609   5.792  1.1822 -1.6082  0.9398
 1975TIP3    H227341   0.890   3.702   5.708 -1.3622 -0.2521 -0.2544
 1976TIP3   OH227342   6.077   5.932  16.402 -0.0342 -0.3168  0.1597
 1976TIP3    H127343   6.094   5.967  16.314  1.5817 -1.0040  0.1600
 1976TIP3    H227344   6.041   6.006  16.451 -1.1691  0.0124 -1.1320
 1977TIP3   OH227345   3.834   5.332   1.621 -0.3210 -0.2834  0.1418
 1977TIP3    H127346   3.909   5.329   1.681 -0.0072  0.7358 -0.1776
 1977TIP3    H227347   3.825   5.243   1.589  0.2745 -0.5810  0.7765
 1978TIP3   OH227348   2.569   3.659   3.678  0.1829  0.0530  0.4236
 1978TIP3    H127349   2.627   3.587   3.703  1.0469  0.1340 -1.1761
 1978TIP3    H227350   2.549   3.642   3.586 -0.9170  0.9994  0.4618
 1979TIP3   OH227351   4.123   4.963  14.677  0.0405  0.2835 -0.4569
 1979TIP3    H127352   4.046   4.960  14.620 -0.6550 -0.2181  0.4782
 1979TIP3    H227353   4.177   5.034  14.641 -0.7545  0.4969 -1.2605
 1980TIP3   OH227354   6.224   6.034  11.131 -0.2509 -0.3496 -0.2488
 1980TIP3    H127355   6.254   6.015  11.042 -0.5737 -1.4039 -0.1413
 1980TIP3    H227356   6.129   6.043  11.123 -0.5997 -2.9121  0.3665
 1981TIP3   OH227357   4.404   3.017   1.958 -0.0341 -0.4635  0.4355
 1981TIP3    H127358   4.376   3.069   2.033 -1.7415 -0.7301  0.0300
 1981TIP3    H227359   4.325   2.970   1.931 -1.0185  3.0991 -4.3964
 1982TIP3   OH227360   6.058   3.510  13.331 -0.5889  0.1299  0.1220
 1982TIP3    H127361   5.970   3.543  13.313 -1.1066  0.0220  2.2530
 1982TIP3    H227362   6.104   3.585  13.371 -0.5973 -0.5726  1.5176
 1983TIP3   OH227363   4.657   1.787  12.784 -0.5539 -0.2493 -0.6548
 1983TIP3    H127364   4.563   1.794  12.769 -0.5845  1.1144 -0.0487
 1983TIP3    H227365   4.670   1.828  12.870  0.6384 -0.0089 -0.9288
 1984TIP3   OH227366   3.335   2.729  14.730 -0.2122  0.6971  0.5473
 1984TIP3    H127367   3.400   2.744  14.799  0.5262  0.1191 -0.0082
 1984TIP3    H227368   3.341   2.808  14.675  0.2219  0.5247  0.3423
 1985TIP3   OH227369   0.703   1.657  12.018  0.4458 -0.4812  0.3541
 1985TIP3    H127370   0.735   1.589  12.079 -0.7744 -0.2307  1.3164
 1985TIP3    H227371   0.608   1.658  12.032  0.3541  0.8291 -0.2872
 1986TIP3   OH227372   5.211   1.293  16.301 -0.7425  0.3994 -0.4757
 1986TIP3    H127373   5.192   1.342  16.221  1.6513  0.4350 -1.0981
 1986TIP3    H227374   5.149   1.220  16.300 -0.9318  0.5422 -2.2206
 1987TIP3   OH227375   6.149   4.073   1.905  0.0086  0.1287 -0.8417
 1987TIP3    H127376   6.072   4.120   1.938 -0.2721 -0.7975 -0.1266
 1987TIP3    H227377   6.174   4.015   1.977  1.1633  0.1522 -1.2035
 1988TIP3   OH227378   2.374   2.903   2.908  0.7058 -0.2671 -0.2819
 1988TIP3    H127379   2.432   2.961   2.958  1.7584 -1.1159 -0.4670
 1988TIP3    H227380   2.297   2.893   2.963  1.5490 -0.6356  0.8720
 1989TIP3   OH227381   6.461   3.132   1.547  0.0813 -0.0461  0.2224
 1989TIP3    H127382   6.548   3.116   1.510  0.5160  0.7239  0.8915
 1989TIP3    H227383   6.476   3.190   1.621 -1.1992  1.7656 -0.8439
 1990TIP3   OH227384   1.447   4.582   3.302  0.2898  0.6850 -0.4953
 1990TIP3    H127385   1.541   4.578   3.321  0.8147  1.4589 -2.6077
 1990TIP3    H227386   1.410   4.505   3.344  1.6165  1.0887  1.5582
 1991TIP3   OH227387   6.644   6.236   3.414 -0.0146 -0.7688  0.0333
 1991TIP3    H127388   6.597   6.319   3.425  0.5592 -0.5241  0.7417
 1991TIP3    H227389   6.579   6.175   3.380 -0.6112 -0.1995  0.1476
 1992TIP3   OH227390   3.240   1.464  13.137  0.2003 -0.0367 -0.0911
 1992TIP3    H127391   3.255   1.372  13.114  0.8374 -0.2045  0.9586
 1992TIP3    H227392   3.147   1.469  13.160 -0.0024 -0.2601 -0.8377
 1993TIP3   OH227393   5.652   2.936  13.344  0.2885 -0.4449 -0.6360
 1993TIP3    H127394   5.576   2.931  13.287 -1.3147  2.6814  0.9873
 1993TIP3    H227395   5.621   2.904  13.429  0.1955  2.1728  0.4233
 1994TIP3   OH227396   6.645   3.719   1.187 -0.0700  0.1983  0.1323
 1994TIP3    H127397   6.736   3.723   1.216 -0.1343  0.4665  0.3094
 1994TIP3    H227398   6.623   3.626   1.189  0.3888  0.0715 -0.5158
 1995TIP3   OH227399   3.819   0.432   4.740  0.2510 -0.3285  0.2662
 1995TIP3    H127400   3.906   0.398   4.764  0.1065  0.2748  1.7749
 1995TIP3    H227401   3.823   0.525   4.761 -0.1902  0.1010 -1.3970
 1996TIP3   OH227402   0.522   4.269   6.545 -0.2819  0.0298 -0.3636
 1996TIP3    H127403   0.495   4.350   6.589  0.0414  0.7179 -1.4148
 1996TIP3    H227404   0.499   4.200   6.607 -0.9986  0.8871  0.3496
 1997TIP3   OH227405   4.653   0.845   0.049 -0.0469  0.1740 -0.4484
 1997TIP3    H127406   4.604   0.850  -0.033  0.7263 -1.0957 -1.0250
 1997TIP3    H227407   4.623   0.763   0.089  0.7603 -0.0435 -0.2672
 1998TIP3   OH227408   4.873   4.409   2.304  0.2809  0.4466  0.1298
 1998TIP3    H127409   4.819   4.343   2.348  1.6605  0.1761  1.5104
 1998TIP3    H227410   4.814   4.452   2.243 -0.6233 -2.3017 -1.1090
 1999TIP3   OH227411   3.708   4.495   5.233  0.1329  0.3147 -0.2164
 1999TIP3    H127412   3.660   4.530   5.307 -1.6223  0.0095 -1.1714
 1999TIP3    H227413   3.690   4.402   5.234 -0.6349  0.4294 -1.5161
 2000TIP3   OH227414   5.113   6.253  15.532 -0.5300 -0.2281 -0.2248
 2000TIP3    H127415   5.206   6.236  15.521 -0.3911  0.7207 -0.5878
 2000TIP3    H227416   5.075   6.242  15.444 -0.7508 -0.5372 -0.0937
 2001TIP3   OH227417   5.279   1.852  14.151  0.0642 -0.3097 -0.3380
 2001TIP3    H127418   5.281   1.848  14.247 -2.0195 -1.2276 -0.2948
 2001TIP3    H227419   5.337   1.781  14.123 -0.5694 -1.0704  0.2549
 2002TIP3   OH227420   1.518   4.248   0.990  0.0147 -0.1770  0.0895
 2002TIP3    H127421   1.457   4.304   0.942  2.0318  0.9693 -1.2766
 2002TIP3    H227422   1.489   4.159   0.970 -0.6440  0.3293 -1.3521
 2003TIP3   OH227423   4.886   3.597   1.422  0.0397 -0.1423 -0.0740
 2003TIP3    H127424   4.979   3.609   1.404  0.0224  1.1345  0.5525
 2003TIP3    H227425   4.844   3.608   1.336  0.5569 -2.4809 -0.6961
 2004TIP3   OH227426   3.222   5.196  15.990 -0.1562 -0.2473 -0.3365
 2004TIP3    H127427   3.316   5.183  15.982  0.1572  1.8923 -0.6388
 2004TIP3    H227428   3.193   5.222  15.902 -0.5677  1.5149  0.2806
 2005TIP3   OH227429   5.610   2.119  14.454  0.0489 -0.0161 -0.4436
 2005TIP3    H127430   5.677   2.102  14.520  1.1159  1.5693 -1.0641
 2005TIP3    H227431   5.531   2.139  14.504  0.3527 -0.6896  0.3169
 2006TIP3   OH227432   0.814   4.578  14.258  0.3555 -0.5474  0.0075
 2006TIP3    H127433   0.727   4.568  14.219  0.4515  0.3702 -0.4677
 2006TIP3    H227434   0.852   4.490  14.254 -0.6685 -1.0328  0.5325
 2007TIP3   OH227435   0.293   0.893   3.246 -0.3636  0.4237 -0.1809
 2007TIP3    H127436   0.347   0.897   3.167 -0.7044 -0.5548 -0.4807
 2007TIP3    H227437   0.341   0.946   3.310 -0.7677  2.3771 -1.4136
 2008TIP3   OH227438   6.500   0.308  12.743  0.2534 -0.9874  0.2390
 2008TIP3    H127439   6.520   0.376  12.679  1.4051 -1.1638  0.3986
 2008TIP3    H227440   6.404   0.310  12.750  0.1048 -0.8541 -1.3582
 2009TIP3   OH227441   2.899   2.351  12.044  0.1793 -0.4308  0.4425
 2009TIP3    H127442   2.961   2.424  12.045 -0.4473  0.1491  2.7408
 2009TIP3    H227443   2.866   2.349  11.955  2.0323  0.4993 -0.3289
 2010TIP3   OH227444   1.091   5.795  16.220 -0.0395 -0.0678  0.3348
 2010TIP3    H127445   1.105   5.769  16.311  0.6199 -0.2948  0.1689
 2010TIP3    H227446   0.996   5.791  16.209 -0.0120 -1.8758  0.4776
 2011TIP3   OH227447   3.351   6.080   2.195  0.1259  0.2650  0.2329
 2011TIP3    H127448   3.340   6.059   2.103  2.2927 -1.0335  0.2252
 2011TIP3    H227449   3.263   6.071   2.232 -0.4190 -1.1900 -1.3054
 2012TIP3   OH227450   6.642   3.423   0.088  0.5168  0.2029 -0.3563
 2012TIP3    H127451   6.652   3.437   0.182  1.0134 -0.4719 -0.3069
 2012TIP3    H227452   6.713   3.364   0.065 -0.3273 -0.6038 -0.9422
 2013TIP3   OH227453   0.251   6.576  11.760 -0.2608 -0.2544  0.5586
 2013TIP3    H127454   0.332   6.553  11.714 -0.8627 -0.3291 -0.4813
 2013TIP3    H227455   0.276   6.650  11.815  0.3093  0.3284 -0.4460
 2014TIP3   OH227456   0.244   1.147   2.745  0.4102 -0.1240  0.4423
 2014TIP3    H127457   0.202   1.062   2.761  2.9603 -1.1205  2.8698
 2014TIP3    H227458   0.308   1.129   2.676  0.2165  0.0882  0.2098
 2015TIP3   OH227459   5.299   2.992  12.577 -0.4298  0.3893  0.7594
 2015TIP3    H127460   5.323   2.902  12.600 -0.0892  0.3559  0.2908
 2015TIP3    H227461   5.265   2.986  12.488  0.8895  0.9090  0.1878
 2016TIP3   OH227462   5.057   0.663   3.921 -0.1072  0.2703  0.6837
 2016TIP3    H127463   5.107   0.696   3.997 -1.9570  1.0830  1.6058
 2016TIP3    H227464   5.007   0.590   3.956 -0.7810  0.4886  0.1825
 2017TIP3   OH227465   0.879   0.570   4.697  0.3923 -0.1400 -0.0025
 2017TIP3    H127466   0.934   0.517   4.754  0.2134  0.9684  1.2351
 2017TIP3    H227467   0.808   0.601   4.753 -0.7056 -0.3584 -1.2221
 2018TIP3   OH227468   3.645   3.923   2.925 -0.4169 -0.1491  0.0393
 2018TIP3    H127469   3.622   3.979   2.851 -2.0572 -0.1947  0.4702
 2018TIP3    H227470   3.699   3.979   2.981  1.3757 -0.3064 -1.4342
 2019TIP3   OH227471   1.645   0.576   1.935 -0.0175 -0.2082  0.2968
 2019TIP3    H127472   1.649   0.505   1.871  1.8553  0.3828 -0.3116
 2019TIP3    H227473   1.736   0.606   1.944 -0.7766  2.4538  0.1189
 2020TIP3   OH227474   4.138   5.482   5.488  0.3024 -0.0220 -0.3542
 2020TIP3    H127475   4.088   5.546   5.539  0.3302  0.0111 -0.3687
 2020TIP3    H227476   4.223   5.477   5.531 -0.3231 -1.4243  0.7796
 2021TIP3   OH227477   3.400   2.251  13.392  0.0910 -0.0046  0.2220
 2021TIP3    H127478   3.411   2.247  13.486  0.3580  2.9383  0.4141
 2021TIP3    H227479   3.325   2.308  13.379  0.1811 -0.1880 -1.3566
 2022TIP3   OH227480   1.100   2.668  10.299  0.1928  0.1522 -0.3306
 2022TIP3    H127481   1.038   2.741  10.307  2.4387  2.2923 -0.9064
 2022TIP3    H227482   1.054   2.593  10.337 -2.7338  1.5365 -0.8249
 2023TIP3   OH227483   2.314   0.625  16.968 -0.2363  0.1056 -0.2614
 2023TIP3    H127484   2.373   0.563  16.925 -0.8209  0.4896 -1.6685
 2023TIP3    H227485   2.285   0.579  17.047  1.3439 -0.3757  0.0884
 2024TIP3   OH227486   5.671   6.251  13.207 -0.0382  0.0370 -0.0368
 2024TIP3    H127487   5.709   6.164  13.199  0.3793  0.3987 -3.4465
 2024TIP3    H227488   5.579   6.235  13.228 -0.0069 -1.2772 -0.7822
 2025TIP3   OH227489   2.198   2.578   4.751 -0.2845  0.1273 -0.3724
 2025TIP3    H127490   2.211   2.670   4.770 -1.4658  0.0781  0.7552
 2025TIP3    H227491   2.210   2.534   4.835  2.7387 -1.0775 -1.2794
 2026TIP3   OH227492   1.710   5.840   4.312  0.2418  0.0308  0.4160
 2026TIP3    H127493   1.714   5.812   4.221 -1.3896 -0.1097  0.3564
 2026TIP3    H227494   1.685   5.762   4.360 -1.0417  0.5724  0.6783
 2027TIP3   OH227495   5.576   3.693  12.765 -0.2517  0.1923  0.1439
 2027TIP3    H127496   5.658   3.654  12.797 -0.5107  0.5643  1.3003
 2027TIP3    H227497   5.603   3.772  12.718  0.1267 -0.3254 -0.5335
 2028TIP3   OH227498   3.017   3.566  12.464 -0.0635 -0.0358  0.3531
 2028TIP3    H127499   2.941   3.624  12.471  0.1298  0.5502 -1.7777
 2028TIP3    H227500   3.090   3.619  12.497 -0.3763 -0.2202  1.3842
 2029TIP3   OH227501   0.285   2.095  13.546 -0.8323 -0.0371 -0.4670
 2029TIP3    H127502   0.308   2.007  13.520 -0.8789  0.1166 -1.0382
 2029TIP3    H227503   0.195   2.106  13.516 -0.4646  0.5798 -1.3686
 2030TIP3   OH227504   2.239   1.647  12.622 -0.4279 -0.5195 -0.5045
 2030TIP3    H127505   2.242   1.594  12.701 -1.1876  0.5320  0.2499
 2030TIP3    H227506   2.227   1.736  12.653 -0.2561 -0.0245 -1.7903
 2031TIP3   OH227507   4.101   3.608   1.550 -0.4854  0.4005  0.5984
 2031TIP3    H127508   4.170   3.634   1.489 -2.2322  0.7042 -1.3649
 2031TIP3    H227509   4.104   3.512   1.551 -1.3843  0.2973 -1.2535
 2032TIP3   OH227510   2.166   3.152  16.950 -0.4843 -0.4976  0.2869
 2032TIP3    H127511   2.170   3.096  17.028 -0.6503 -1.3904 -0.3188
 2032TIP3    H227512   2.224   3.109  16.887  0.2082  0.6062  0.1524
 2033TIP3   OH227513   6.595   5.737   4.821 -0.1701  0.4429 -0.2415
 2033TIP3    H127514   6.524   5.687   4.781 -0.9615 -0.1214  1.7419
 2033TIP3    H227515   6.604   5.814   4.765 -2.3656  0.5392 -0.5703
 2034TIP3   OH227516   2.256   3.388   5.497 -0.2634  0.1335 -0.3532
 2034TIP3    H127517   2.241   3.350   5.584 -2.2531  2.4707  0.4306
 2034TIP3    H227518   2.349   3.413   5.497  0.0246 -0.8498  0.6694
 2035TIP3   OH227519   3.027   0.824  14.040 -0.1386  0.5364 -0.7212
 2035TIP3    H127520   2.986   0.800  13.957 -0.4705  0.6017 -0.5783
 2035TIP3    H227521   3.074   0.745  14.068  0.5991  0.7521 -1.3432
 2036TIP3   OH227522   2.855   1.235   1.093  0.1663 -0.4386  0.2175
 2036TIP3    H127523   2.873   1.329   1.085  1.1166 -0.6189  0.1092
 2036TIP3    H227524   2.916   1.194   1.032 -0.5517 -1.1093 -0.0759
 2037TIP3   OH227525   4.540   3.841   2.977 -0.4032  0.0677 -0.1814
 2037TIP3    H127526   4.624   3.794   2.985 -1.0447 -0.8489  1.9963
 2037TIP3    H227527   4.559   3.930   3.006 -0.2352 -0.2493  0.7249
 2038TIP3   OH227528   4.068   3.185   3.550 -0.0823  0.1543  0.4617
 2038TIP3    H127529   3.999   3.251   3.561 -1.1215 -1.0669  1.6429
 2038TIP3    H227530   4.054   3.150   3.462 -0.9331 -0.0243  0.6615
 2039TIP3   OH227531   4.150   1.647   5.265 -0.4255 -0.0470  0.0785
 2039TIP3    H127532   4.214   1.625   5.332 -1.8732 -0.7328  1.3010
 2039TIP3    H227533   4.114   1.731   5.294  0.0857  0.4740 -0.7529
 2040TIP3   OH227534   0.479   4.101  14.232 -0.1392 -0.2294 -0.1806
 2040TIP3    H127535   0.541   4.088  14.160 -1.1580 -1.8142 -0.8224
 2040TIP3    H227536   0.500   4.031  14.294 -0.8089 -0.3349 -0.0666
 2041TIP3   OH227537   0.114   2.271   5.092  0.2479 -0.3699  0.3391
 2041TIP3    H127538   0.062   2.351   5.095  0.2820 -0.3509  0.4199
 2041TIP3    H227539   0.084   2.225   5.013  0.3937 -0.1658  0.1653
 2042TIP3   OH227540   6.125   0.825   4.917  0.1308  0.0053  0.2152
 2042TIP3    H127541   6.185   0.894   4.945  0.2642 -0.9059  2.3585
 2042TIP3    H227542   6.038   0.860   4.935  0.1496  0.0568  0.2052
 2043TIP3   OH227543   5.604   0.517  16.900  0.2846  0.5853 -0.5166
 2043TIP3    H127544   5.626   0.512  16.993  0.9427  0.9682 -0.6471
 2043TIP3    H227545   5.508   0.508  16.898  0.2973  0.1741  0.1596
 2044TIP3   OH227546   0.990   3.279   5.072  0.6661 -0.3670  0.1385
 2044TIP3    H127547   1.060   3.215   5.074  1.7821  0.7496 -0.9579
 2044TIP3    H227548   0.910   3.228   5.084  1.5733 -1.8120  0.2840
 2045TIP3   OH227549   1.225   1.410  16.167  1.0883 -0.3500  0.4720
 2045TIP3    H127550   1.256   1.380  16.252 -0.7183  0.5419  1.5206
 2045TIP3    H227551   1.147   1.357  16.149 -0.4665  1.5926  1.0027
 2046TIP3   OH227552   0.793   2.377  13.328 -0.5523  0.1318  0.1276
 2046TIP3    H127553   0.860   2.327  13.281 -0.5030  1.1825 -0.9592
 2046TIP3    H227554   0.831   2.390  13.415  0.6854  0.6868 -0.4549
 2047TIP3   OH227555   4.640   2.216  14.831  0.5521 -0.2380  0.2750
 2047TIP3    H127556   4.613   2.268  14.756 -1.0743 -0.7119  0.4885
 2047TIP3    H227557   4.709   2.159  14.797 -0.2091 -0.5022 -0.8957
 2048TIP3   OH227558   0.201   3.090   5.278  0.7494  0.2067  0.4772
 2048TIP3    H127559   0.280   3.096   5.332  1.4532 -2.0856 -0.2140
 2048TIP3    H227560   0.155   3.013   5.312  1.7195 -1.9746 -2.6972
 2049TIP3   OH227561   0.691   1.989  14.550  0.2672  0.0614 -0.4065
 2049TIP3    H127562   0.724   2.003  14.461  0.8931 -3.5980 -0.8878
 2049TIP3    H227563   0.760   1.940  14.594 -1.0049 -0.2328  1.3558
 2050TIP3   OH227564   2.355   6.211  16.967  0.2989  0.8698 -0.8960
 2050TIP3    H127565   2.325   6.131  16.925  0.5890  1.0481 -1.4529
 2050TIP3    H227566   2.297   6.222  17.042  0.5608 -0.1117 -0.5409
 2051TIP3   OH227567   5.065   0.385  11.491  0.2869  0.2191  1.0169
 2051TIP3    H127568   5.110   0.470  11.491  1.2212 -0.2059 -0.9623
 2051TIP3    H227569   5.129   0.325  11.454 -1.9086 -0.3778 -2.2085
 2052TIP3   OH227570   5.175   2.153  15.974 -0.4768 -0.2798 -0.1966
 2052TIP3    H127571   5.209   2.063  15.975 -0.4128 -0.2629 -0.8026
 2052TIP3    H227572   5.246   2.206  16.010 -0.1734 -0.3565 -0.6747
 2053TIP3   OH227573   6.545   5.427  14.653  0.1689  0.3635 -0.0422
 2053TIP3    H127574   6.465   5.458  14.611 -0.9979  0.8292  2.3145
 2053TIP3    H227575   6.540   5.331  14.648 -2.1131  0.2188  2.5312
 2054TIP3   OH227576   6.029   1.796  13.484 -0.3133  0.2242 -0.1622
 2054TIP3    H127577   6.003   1.885  13.509 -0.1111  0.9770 -2.3662
 2054TIP3    H227578   6.107   1.808  13.430  2.2962 -1.6663  2.8190
 2055TIP3   OH227579   5.772   1.397   1.433  0.0318  0.2075 -0.1835
 2055TIP3    H127580   5.699   1.438   1.478  0.6163  0.6005  0.4323
 2055TIP3    H227581   5.789   1.317   1.482  0.3538  0.3901  0.0130
 2056TIP3   OH227582   2.191   0.853  16.347 -0.1931 -0.3438  0.1228
 2056TIP3    H127583   2.182   0.760  16.326  0.7212 -0.1361 -1.3093
 2056TIP3    H227584   2.244   0.855  16.426  2.1056 -1.0095 -1.3133
 2057TIP3   OH227585   4.432   0.390  16.346  0.2491  0.6826 -0.4103
 2057TIP3    H127586   4.391   0.476  16.329 -0.1354  0.4730 -0.5660
 2057TIP3    H227587   4.402   0.335  16.273  1.1886  0.6452 -0.7871
 2058TIP3   OH227588   1.319   2.474  14.272  0.4127  0.1958  0.2758
 2058TIP3    H127589   1.318   2.383  14.242  0.9276 -0.2479  1.5212
 2058TIP3    H227590   1.352   2.469  14.362 -0.2736  1.5371  0.6298
 2059TIP3   OH227591   6.132   6.318   3.613 -0.4230 -0.4579  0.0912
 2059TIP3    H127592   6.056   6.356   3.569 -0.6914 -0.1996  0.7563
 2059TIP3    H227593   6.194   6.300   3.543 -0.2659  1.2611 -0.2595
 2060TIP3   OH227594   0.989   0.744  16.086 -0.8632 -0.0061 -0.3738
 2060TIP3    H127595   0.954   0.657  16.066 -0.2190 -0.1710 -0.8209
 2060TIP3    H227596   1.072   0.727  16.130 -1.6653  0.3705  1.3429
 2061TIP3   OH227597   1.156   4.038  11.416 -0.1204  0.0579 -0.1392
 2061TIP3    H127598   1.215   3.963  11.418 -0.1116  0.0193 -1.1446
 2061TIP3    H227599   1.201   4.102  11.362 -1.4605 -0.3960 -1.8981
 2062TIP3   OH227600   2.835   0.764  14.614  0.2958  0.1009 -0.3463
 2062TIP3    H127601   2.819   0.858  14.623  0.6646  0.5732 -3.5687
 2062TIP3    H227602   2.772   0.735  14.547  0.0936 -2.0231  0.6588
 2063TIP3   OH227603   1.291   4.020   0.205  0.3348  0.2684 -0.5520
 2063TIP3    H127604   1.343   4.022   0.285 -0.8326  1.3161  0.2264
 2063TIP3    H227605   1.224   3.953   0.222  0.5001  0.0083 -0.9252
 2064TIP3   OH227606   6.732   2.790   3.898  0.0531  0.1832  0.1542
 2064TIP3    H127607   6.820   2.773   3.864  0.2233 -1.9334  1.4296
 2064TIP3    H227608   6.679   2.806   3.820  1.3960  0.6033 -0.7087
 2065TIP3   OH227609   2.489   5.007   4.171  0.1977 -0.4839  0.0591
 2065TIP3    H127610   2.564   5.040   4.121 -0.5717  1.8256  0.2839
 2065TIP3    H227611   2.492   4.912   4.160  1.6297 -0.2547 -2.1055
 2066TIP3   OH227612   2.339   2.854   2.078  0.0946  0.0535 -0.5616
 2066TIP3    H127613   2.308   2.944   2.076 -0.1281 -0.0272 -0.9254
 2066TIP3    H227614   2.398   2.847   2.003  0.1805 -0.0738 -0.4810
 2067TIP3   OH227615   5.832   2.990  14.000 -0.0623  0.9095  0.4100
 2067TIP3    H127616   5.796   2.938  13.929 -0.3532 -0.7179  1.7052
 2067TIP3    H227617   5.911   3.030  13.962  1.5128 -2.3124 -0.0374
 2068TIP3   OH227618   3.342   6.283  13.759 -0.4355 -0.1259  0.3316
 2068TIP3    H127619   3.360   6.341  13.684 -0.2314  1.4042  1.5071
 2068TIP3    H227620   3.408   6.307  13.824 -1.7373 -0.0925  1.6990
 2069TIP3   OH227621   6.585   6.238   0.676  0.4722  0.0962 -0.1108
 2069TIP3    H127622   6.630   6.179   0.736  3.4202 -1.3782 -3.4270
 2069TIP3    H227623   6.492   6.230   0.698  1.1890 -2.1984  2.5429
 2070TIP3   OH227624   2.712   1.133  15.994 -0.5443 -0.2671 -0.1674
 2070TIP3    H127625   2.776   1.195  16.029 -1.6005  1.4426 -1.1072
 2070TIP3    H227626   2.760   1.085  15.926 -0.1912  0.9192 -0.7952
 2071TIP3   OH227627   5.893   4.223   1.977  0.1096 -0.6795 -0.1662
 2071TIP3    H127628   5.876   4.267   2.060  1.8335 -0.9892  0.3803
 2071TIP3    H227629   5.853   4.281   1.911 -1.2838 -0.4411  0.8401
 2072TIP3   OH227630   6.663   4.043   0.206  0.0493  0.0872 -0.1781
 2072TIP3    H127631   6.568   4.038   0.216 -0.0840 -3.5718 -1.9884
 2072TIP3    H227632   6.697   4.032   0.295 -1.1953 -0.7726  0.2090
 2073TIP3   OH227633   1.327   3.292  15.241 -0.2193  0.2226 -0.1650
 2073TIP3    H127634   1.367   3.206  15.254  1.9839  1.4360  1.7019
 2073TIP3    H227635   1.279   3.309  15.321 -0.0866  1.0126 -0.2439
 2074TIP3   OH227636   1.060   6.551  11.199  0.0980 -0.3457  0.3455
 2074TIP3    H127637   1.003   6.479  11.173  1.7809 -1.4214 -0.5575
 2074TIP3    H227638   1.088   6.529  11.287  0.5968 -0.7939  0.0767
 2075TIP3   OH227639   0.443   1.679   6.056 -0.3468  0.1142  0.2100
 2075TIP3    H127640   0.422   1.641   6.141  3.2904 -3.3231 -0.1246
 2075TIP3    H227641   0.529   1.718   6.068 -0.2870  0.6470 -1.6186
 2076TIP3   OH227642   0.805   5.069  11.198 -0.3624  0.4047  0.1796
 2076TIP3    H127643   0.744   5.126  11.245 -0.9217 -1.3262  1.6759
 2076TIP3    H227644   0.879   5.126  11.176 -1.0135  1.7581  1.3294
 2077TIP3   OH227645   3.974   5.706   2.643  0.0811 -0.3973  0.2305
 2077TIP3    H127646   3.936   5.782   2.688  1.5574 -0.1123  1.0582
 2077TIP3    H227647   4.030   5.743   2.576 -0.6192 -0.8075 -0.5985
 2078TIP3   OH227648   4.184   3.352   1.559 -0.3325 -0.6466  0.5472
 2078TIP3    H127649   4.217   3.285   1.618  0.5876  0.8947  1.8762
 2078TIP3    H227650   4.262   3.392   1.520 -0.6466  1.3144  1.7530
 2079TIP3   OH227651   1.072   5.578  13.511  0.1067 -0.1906 -0.0165
 2079TIP3    H127652   1.085   5.656  13.565  1.6754  0.7571 -1.6394
 2079TIP3    H227653   0.979   5.579  13.488  0.2066  1.5492 -0.4605
 2080TIP3   OH227654   1.559   2.562   1.113  0.1086 -0.2420 -0.0663
 2080TIP3    H127655   1.640   2.521   1.143  0.9101  2.2269  1.4676
 2080TIP3    H227656   1.582   2.655   1.101 -2.8997  1.0458  2.5517
 2081TIP3   OH227657   4.658   0.396  15.952 -0.5149  0.2728 -0.2809
 2081TIP3    H127658   4.569   0.361  15.946 -0.8905  1.1618 -0.0609
 2081TIP3    H227659   4.699   0.369  15.870 -1.7611  1.8886 -1.5046
 2082TIP3   OH227660   4.741   2.108  14.212  0.5207  0.1770 -0.7612
 2082TIP3    H127661   4.746   2.134  14.303 -0.6023 -0.0133 -0.6398
 2082TIP3    H227662   4.663   2.151  14.178 -0.1160 -1.1885 -1.1370
 2083TIP3   OH227663   3.854   5.407  16.275  0.4630  0.1830  0.0352
 2083TIP3    H127664   3.923   5.461  16.314  2.5947 -1.8228 -0.6829
 2083TIP3    H227665   3.838   5.446  16.189  1.5767  0.0487 -0.2513
 2084TIP3   OH227666   2.250   0.166   2.936 -0.1388  0.1219  0.0839
 2084TIP3    H127667   2.192   0.184   2.863 -1.1695 -0.9583  0.5899
 2084TIP3    H227668   2.234   0.074   2.957  2.4890 -0.5252 -0.3790
 2085TIP3   OH227669   4.686   3.445   0.091  0.2909 -0.3078  0.5003
 2085TIP3    H127670   4.682   3.478   0.180  0.6856 -0.3517  0.5355
 2085TIP3    H227671   4.712   3.521   0.038 -1.3105  0.0720  0.2212
 2086TIP3   OH227672   2.047   1.420   2.073 -0.3401  0.4034  0.3439
 2086TIP3    H127673   1.955   1.395   2.071 -0.2504  0.0742  0.1957
 2086TIP3    H227674   2.072   1.426   1.981 -0.3034  0.8432  0.3794
 2087TIP3   OH227675   2.430   5.669  14.100 -0.1210 -0.4382  0.0185
 2087TIP3    H127676   2.356   5.699  14.152 -0.0403 -0.5284  0.1849
 2087TIP3    H227677   2.471   5.601  14.153  0.2011 -0.2494  0.0126
 2088TIP3   OH227678   1.147   0.538  15.789  0.2749  0.1579  0.0414
 2088TIP3    H127679   1.186   0.503  15.709 -3.6842 -2.1908 -1.0759
 2088TIP3    H227680   1.209   0.513  15.858  2.4432 -0.1990 -1.8925
 2089TIP3   OH227681   0.615   2.293   0.685 -0.0798 -0.1418 -0.0434
 2089TIP3    H127682   0.585   2.374   0.727 -1.4662 -2.0805  3.1571
 2089TIP3    H227683   0.679   2.258   0.747 -0.5743 -2.1253 -0.5968
 2090TIP3   OH227684   4.534   3.052  13.863  0.0826 -0.5196 -0.2234
 2090TIP3    H127685   4.623   3.019  13.878 -0.2429 -0.4508  2.2564
 2090TIP3    H227686   4.479   3.004  13.925 -1.3933  0.4310 -0.7387
 2091TIP3   OH227687   0.337   1.590   2.956 -0.3568  1.0188 -0.6454
 2091TIP3    H127688   0.352   1.608   3.049 -0.7270  1.1813 -0.6114
 2091TIP3    H227689   0.246   1.561   2.952  0.4645 -1.8073 -0.5798
 2092TIP3   OH227690   1.288   0.661  13.116  0.2795  0.4405  0.1730
 2092TIP3    H127691   1.252   0.581  13.079 -0.3948  1.4240 -1.3614
 2092TIP3    H227692   1.317   0.712  13.041 -0.0439  1.9999  1.0612
 2093TIP3   OH227693   5.924   5.945  17.368  0.2664 -0.2928 -0.1023
 2093TIP3    H127694   5.932   5.965  17.462  2.1253 -0.4989 -0.1694
 2093TIP3    H227695   5.874   5.864  17.364  0.2166 -0.3084  0.7232
 2094TIP3   OH227696   4.305   2.102   2.758  0.2811  0.8637 -0.2444
 2094TIP3    H127697   4.319   2.045   2.682  0.4416  1.3903 -0.6205
 2094TIP3    H227698   4.318   2.190   2.724 -0.4975  1.1629  0.2066
 2095TIP3   OH227699   2.724   3.592  17.249 -0.0205 -0.2752 -0.4545
 2095TIP3    H127700   2.646   3.571  17.197 -0.6895  2.5416 -0.7691
 2095TIP3    H227701   2.704   3.560  17.337 -1.5133  0.2657 -0.5728
 2096TIP3   OH227702   2.247   4.154   0.055 -0.3080 -0.4504  0.4027
 2096TIP3    H127703   2.304   4.231   0.054  0.9231 -1.3356 -0.4394
 2096TIP3    H227704   2.307   4.080   0.064 -1.2647 -1.4466 -1.0049
 2097TIP3   OH227705   2.876   1.756   3.152 -0.5184 -0.1781 -0.1589
 2097TIP3    H127706   2.853   1.849   3.159  0.6758  0.1295 -0.1748
 2097TIP3    H227707   2.971   1.755   3.141 -0.5696 -1.3849 -0.6770
 2098TIP3   OH227708   0.383   6.565  13.961  0.0986 -0.5778  0.1162
 2098TIP3    H127709   0.302   6.604  13.929 -0.7238 -2.5566 -0.4291
 2098TIP3    H227710   0.390   6.482  13.913  2.0702 -0.8159  0.6951
 2099TIP3   OH227711   0.697   3.202  17.256 -0.1720 -0.3227  0.1490
 2099TIP3    H127712   0.627   3.220  17.194  0.6664 -0.7135 -0.9474
 2099TIP3    H227713   0.683   3.111  17.282  0.5871 -0.7825 -0.9825
 2100TIP3   OH227714   3.887   1.505   3.271  0.4457 -0.6282 -0.1618
 2100TIP3    H127715   3.906   1.595   3.297 -3.3189  0.1538  0.5035
 2100TIP3    H227716   3.914   1.500   3.180  0.3215  1.3577 -0.3505
 2101TIP3   OH227717   3.512   0.284  14.996 -0.3584  0.1779 -0.2180
 2101TIP3    H127718   3.517   0.377  15.018 -0.3583  0.2984 -0.7348
 2101TIP3    H227719   3.515   0.281  14.901 -2.4698 -0.2118 -0.3260
 2102TIP3   OH227720   1.056   4.860  16.891 -0.2479  0.3549 -0.0856
 2102TIP3    H127721   0.988   4.929  16.893  1.0724  1.6980  1.2359
 2102TIP3    H227722   1.049   4.822  16.804 -1.6120  1.5839 -0.5512
 2103TIP3   OH227723   1.558   4.938  13.951  0.2883  0.3639  0.1266
 2103TIP3    H127724   1.558   5.032  13.971  0.4608  0.7104 -1.4188
 2103TIP3    H227725   1.560   4.934  13.856  3.5955 -1.2000  0.1241
 2104TIP3   OH227726   0.439   6.613  13.381 -0.5017  0.0794 -0.0589
 2104TIP3    H127727   0.423   6.609  13.287 -1.5059  1.5251  0.0395
 2104TIP3    H227728   0.534   6.627  13.389 -0.2104 -1.2669 -0.7902
 2105TIP3   OH227729   3.850   3.557  11.840 -0.1556 -0.4846 -0.2785
 2105TIP3    H127730   3.914   3.592  11.902  0.1250 -1.4783  0.0173
 2105TIP3    H227731   3.839   3.465  11.866 -2.5277 -0.0725  0.3492
 2106TIP3   OH227732   6.112   0.608   2.995 -0.2424  0.3476 -0.0188
 2106TIP3    H127733   6.057   0.541   2.955  1.1640 -0.5342 -0.5682
 2106TIP3    H227734   6.052   0.679   3.017 -1.7800 -1.0478  0.5177
 2107TIP3   OH227735   5.910   2.122   1.310  0.4906  0.3588  0.2349
 2107TIP3    H127736   5.908   2.052   1.245  1.2083  0.9555 -0.4500
 2107TIP3    H227737   6.001   2.150   1.313  0.1870  1.3917  0.3455
 2108TIP3   OH227738   1.998   5.310  16.931  0.1288  0.4285  0.0184
 2108TIP3    H127739   2.013   5.228  16.885  0.7914  0.9508 -0.7248
 2108TIP3    H227740   1.903   5.315  16.943  0.2184 -2.0889  3.1758
 2109TIP3   OH227741   1.242   6.242  15.640 -0.1901 -0.2509  0.4568
 2109TIP3    H127742   1.332   6.269  15.660 -0.2534 -0.8701  1.6974
 2109TIP3    H227743   1.250   6.192  15.559  0.6024 -0.3593  0.5881
 2110TIP3   OH227744   0.772   2.719  15.261 -0.0959  0.3773 -0.3527
 2110TIP3    H127745   0.720   2.646  15.226 -0.6197  0.1636  0.8210
 2110TIP3    H227746   0.708   2.779  15.298  0.3824  1.0935 -0.6662
 2111TIP3   OH227747   1.840   1.483   0.015 -0.8056  0.5418 -0.4174
 2111TIP3    H127748   1.904   1.476  -0.057 -1.8208 -0.1966 -1.2842
 2111TIP3    H227749   1.824   1.392   0.041  2.4936  0.8035  3.5570
 2112TIP3   OH227750   3.206   2.236   2.452 -0.2685 -0.4911 -0.4241
 2112TIP3    H127751   3.122   2.228   2.497  0.8868  2.6675  2.7840
 2112TIP3    H227752   3.197   2.315   2.399  1.2453  1.4393  1.9443
 2113TIP3   OH227753   4.426   4.584  14.507 -0.3079  0.1705  0.2860
 2113TIP3    H127754   4.467   4.498  14.508 -0.0862  0.2763  0.3083
 2113TIP3    H227755   4.460   4.628  14.585 -0.9667  0.0249  0.6649
 2114TIP3   OH227756   0.217   5.832   2.960  0.7177  0.1864 -0.5895
 2114TIP3    H127757   0.180   5.754   3.000  2.1211 -0.3388 -0.2645
 2114TIP3    H227758   0.270   5.800   2.888  0.5712  0.9155 -1.0315
 2115TIP3   OH227759   1.798   1.582   2.159 -0.2114 -0.2760  0.3945
 2115TIP3    H127760   1.714   1.619   2.132  0.2216 -0.4275 -1.3104
 2115TIP3    H227761   1.842   1.562   2.076  0.2818 -2.9638  1.2167
 2116TIP3   OH227762   5.202   3.138  15.072 -0.4666 -0.8810 -0.6643
 2116TIP3    H127763   5.152   3.117  15.151 -1.3943  0.0426 -0.9846
 2116TIP3    H227764   5.234   3.228  15.087 -2.7926  0.3113 -2.3454
 2117TIP3   OH227765   3.132   5.128   0.547 -0.3849  0.0554  0.1729
 2117TIP3    H127766   3.129   5.126   0.643  1.1391  2.1394  0.3203
 2117TIP3    H227767   3.087   5.209   0.523 -1.2398 -0.7148 -0.9532
 2118TIP3   OH227768   1.339   4.604   1.403 -0.1055  1.1988 -0.2550
 2118TIP3    H127769   1.373   4.570   1.320 -0.6832  0.4189 -0.1828
 2118TIP3    H227770   1.282   4.534   1.436  2.2447  0.2668  2.1986
 2119TIP3   OH227771   2.326   5.446   4.640 -0.1612  0.3897 -0.5722
 2119TIP3    H127772   2.373   5.371   4.676  0.4832  0.7385 -0.6605
 2119TIP3    H227773   2.234   5.425   4.653  0.0207 -0.2091 -0.1816
 2120TIP3   OH227774   2.370   6.010  11.451  0.3700 -0.2229  0.7937
 2120TIP3    H127775   2.375   6.035  11.543 -1.2343  3.5300  0.0509
 2120TIP3    H227776   2.284   5.970  11.441 -0.1226  0.8419  0.6731
 2121TIP3   OH227777   4.401   2.415   1.482  0.0440  0.7592 -0.1779
 2121TIP3    H127778   4.460   2.346   1.512  0.1799  0.3132 -1.4384
 2121TIP3    H227779   4.458   2.477   1.435 -0.1632  1.4553  0.4653
 2122TIP3   OH227780   6.423   4.410  11.652  0.1412 -0.2642 -0.1019
 2122TIP3    H127781   6.493   4.406  11.588 -0.4001  1.9183 -0.9156
 2122TIP3    H227782   6.358   4.470  11.614 -1.0272 -0.3072  1.6792
 2123TIP3   OH227783   2.735   3.018   5.903 -0.1576  0.6536 -0.0561
 2123TIP3    H127784   2.690   2.935   5.918 -0.7433  1.0626  0.4394
 2123TIP3    H227785   2.784   3.004   5.822 -1.0050  0.1394 -0.4886
 2124TIP3   OH227786   6.039   3.997  14.068  0.3458  0.6010  0.6806
 2124TIP3    H127787   6.079   4.032  14.148 -0.6584  1.0349  1.0105
 2124TIP3    H227788   6.044   4.069  14.005 -0.1119  0.7374  0.7965
 2125TIP3   OH227789   3.744   0.241  17.018 -1.0323 -0.5718  0.1310
 2125TIP3    H127790   3.697   0.255  17.100 -2.0404 -0.1104 -0.5173
 2125TIP3    H227791   3.682   0.266  16.949  0.2810  0.4293 -0.7378
 2126TIP3   OH227792   0.104   4.520  12.088  0.5455  0.9267  0.0581
 2126TIP3    H127793   0.083   4.429  12.067 -0.0903  0.9457  0.5968
 2126TIP3    H227794   0.180   4.515  12.146 -0.5254  0.6312  1.4926
 2127TIP3   OH227795   6.460   3.880  17.078  0.2475  0.2080  0.0213
 2127TIP3    H127796   6.387   3.941  17.079 -0.2352 -0.3175 -1.2190
 2127TIP3    H227797   6.511   3.905  17.001  1.0971  0.2375  0.5769
 2128TIP3   OH227798   3.456   4.520   1.984  0.0047  0.0201 -0.4533
 2128TIP3    H127799   3.422   4.471   1.909 -0.1048 -0.4030 -0.1277
 2128TIP3    H227800   3.550   4.503   1.983  0.0192  0.1031 -0.5565
 2129TIP3   OH227801   0.095   4.933  10.848 -0.4879  0.5448 -0.0151
 2129TIP3    H127802   0.155   5.001  10.816  0.3595  0.6953  1.7530
 2129TIP3    H227803   0.045   4.977  10.917 -0.6834 -0.3302  0.4052
 2130TIP3   OH227804   4.160   0.597   5.279 -0.0198 -0.6400 -0.3520
 2130TIP3    H127805   4.111   0.652   5.341 -1.4756 -0.5820 -1.5085
 2130TIP3    H227806   4.103   0.591   5.202  1.1390 -1.8648 -1.1484
 2131TIP3   OH227807   0.007   4.183   1.629 -0.0801 -0.2408  0.0548
 2131TIP3    H127808  -0.012   4.090   1.621 -3.0423  0.1900  0.8784
 2131TIP3    H227809   0.076   4.200   1.565  2.9104 -3.5147  2.0635
 2132TIP3   OH227810   3.761   2.189   1.081 -0.5681  0.0383  0.0684
 2132TIP3    H127811   3.834   2.140   1.118  0.7626  0.7113 -1.5126
 2132TIP3    H227812   3.726   2.131   1.013  0.5701  0.9033 -1.3297
 2133TIP3   OH227813   0.456   0.719  11.992  0.0954 -0.0396  0.1004
 2133TIP3    H127814   0.489   0.759  11.911 -1.6582 -0.4435 -0.8731
 2133TIP3    H227815   0.395   0.784  12.027  2.1263  0.9267  2.1464
 2134TIP3   OH227816   4.228   2.487  12.097 -0.1514 -0.8358 -0.8452
 2134TIP3    H127817   4.201   2.540  12.022 -1.3614 -0.8120 -0.4092
 2134TIP3    H227818   4.147   2.472  12.146  0.6043 -0.9404  0.4004
 2135TIP3   OH227819   2.524   3.505  15.005  0.2566 -0.1822 -0.4136
 2135TIP3    H127820   2.486   3.550  14.930 -0.0015 -0.1645 -0.2750
 2135TIP3    H227821   2.449   3.476  15.057  0.4309 -0.0668 -0.0890
 2136TIP3   OH227822   6.514   0.282   5.178 -0.0002  0.1293  0.2123
 2136TIP3    H127823   6.432   0.263   5.224 -0.5394  0.5689 -0.5502
 2136TIP3    H227824   6.509   0.230   5.098  1.4054 -1.4415  1.0924
 2137TIP3   OH227825   6.383   4.406   5.236 -0.2941  0.2624  0.3240
 2137TIP3    H127826   6.338   4.424   5.154  0.8369 -0.6829 -0.5227
 2137TIP3    H227827   6.403   4.312   5.234 -0.8233  0.0720  1.9786
 2138TIP3   OH227828   5.648   3.594  13.698  0.3097 -0.0789  0.6034
 2138TIP3    H127829   5.724   3.614  13.753 -0.0929  0.7275  0.8820
 2138TIP3    H227830   5.663   3.645  13.618  0.1458 -0.0551  0.5883
 2139TIP3   OH227831   3.436   3.925   4.184 -0.1883  0.3470 -0.1504
 2139TIP3    H127832   3.374   3.874   4.237  0.2018 -0.1266 -0.1342
 2139TIP3    H227833   3.423   3.894   4.095  1.1447 -0.9816  0.0568
 2140TIP3   OH227834   1.137   2.138   5.818  0.3925 -0.5842 -0.4231
 2140TIP3    H127835   1.203   2.196   5.855  0.6960  0.5379 -2.5908
 2140TIP3    H227836   1.178   2.051   5.819  0.4318 -0.5957  1.6300
 2141TIP3   OH227837   5.528   2.357  12.126 -0.5324  0.0162 -0.8216
 2141TIP3    H127838   5.536   2.380  12.033 -0.6520  0.2175 -0.7818
 2141TIP3    H227839   5.586   2.419  12.171 -2.1298  1.3659 -0.5496
 2142TIP3   OH227840   0.971   4.394  17.207  0.0667  0.8704 -0.2021
 2142TIP3    H127841   0.908   4.336  17.164 -1.4671  1.4837  1.1224
 2142TIP3    H227842   1.014   4.340  17.273 -0.8701  1.0292  0.5630
 2143TIP3   OH227843   0.347   5.919  13.068  0.4968 -0.0315  0.5488
 2143TIP3    H127844   0.347   5.996  13.011 -0.0889 -0.3053  0.1684
 2143TIP3    H227845   0.260   5.919  13.109  0.5427 -0.4113  0.6550
 2144TIP3   OH227846   0.212   4.728   3.064 -0.0305 -0.1994  0.4481
 2144TIP3    H127847   0.236   4.707   3.154 -0.8006  0.9919  0.9644
 2144TIP3    H227848   0.283   4.786   3.034 -0.3603  0.3528  0.7101
 2145TIP3   OH227849   4.033   2.910   5.641  0.3758 -0.0581  0.2717
 2145TIP3    H127850   4.110   2.866   5.678  0.8431  1.5587  1.2940
 2145TIP3    H227851   4.070   2.983   5.591 -0.4334 -0.3534 -0.7999
 2146TIP3   OH227852   6.519   4.817   3.217  0.0112 -0.5258  0.3876
 2146TIP3    H127853   6.473   4.866   3.286 -0.9732 -0.2226 -0.4695
 2146TIP3    H227854   6.510   4.725   3.243 -1.2308 -0.4848  0.1582
 2147TIP3   OH227855   1.227   1.028   4.943 -0.0525 -0.3456 -0.1552
 2147TIP3    H127856   1.309   1.057   4.902  0.9570 -2.0740  0.5157
 2147TIP3    H227857   1.192   0.963   4.883  0.0810 -0.9959  0.4547
 2148TIP3   OH227858   5.759   0.457  13.081 -0.3765  0.2920 -0.2768
 2148TIP3    H127859   5.684   0.401  13.102  1.4861 -2.0441  0.6761
 2148TIP3    H227860   5.743   0.487  12.992 -1.8010 -1.2867 -0.5959
 2149TIP3   OH227861   2.104   6.436   4.734  0.0157  0.0489  0.3571
 2149TIP3    H127862   2.188   6.427   4.689 -0.0994 -3.5582  0.5190
 2149TIP3    H227863   2.039   6.410   4.669 -0.9305  1.8338  0.5322
 2150TIP3   OH227864   4.414   1.152   0.999  0.0992 -0.5342  0.9086
 2150TIP3    H127865   4.358   1.093   0.948  0.1747  0.3294 -0.2084
 2150TIP3    H227866   4.353   1.201   1.055 -0.1628 -0.3443  0.4620
 2151TIP3   OH227867   1.921   0.636   3.679 -0.0878 -0.0189 -0.1621
 2151TIP3    H127868   1.863   0.648   3.754 -0.2567 -1.0409 -0.1120
 2151TIP3    H227869   1.949   0.724   3.655 -1.1303  0.4297  0.2372
 2152TIP3   OH227870   1.252   4.042   5.119  0.5047 -0.3291 -0.2309
 2152TIP3    H127871   1.272   4.021   5.028  1.4917  2.0476 -0.6307
 2152TIP3    H227872   1.319   3.996   5.170  0.2715 -1.2320 -0.7034
 2153TIP3   OH227873   4.399   1.964  15.982  0.3650 -0.9342  0.0130
 2153TIP3    H127874   4.305   1.974  15.970  0.3300 -0.7880  0.3841
 2153TIP3    H227875   4.438   2.018  15.914  0.1783  0.9608  1.3204
 2154TIP3   OH227876   1.537   1.594  12.260 -0.6980 -0.3498 -0.9264
 2154TIP3    H127877   1.628   1.584  12.288  0.0940  3.1579 -1.6898
 2154TIP3    H227878   1.543   1.607  12.166 -2.2796 -2.0974 -1.3164
 2155TIP3   OH227879   1.999   6.158  16.323  0.1783  0.0894 -1.0095
 2155TIP3    H127880   1.984   6.208  16.404  2.2420  0.3419 -0.7243
 2155TIP3    H227881   2.015   6.224  16.256 -1.5727 -0.1191 -1.6685
 2156TIP3   OH227882   3.570   2.393  14.750 -0.5337 -0.4095 -0.0544
 2156TIP3    H127883   3.558   2.322  14.813 -0.1081 -0.5029 -0.0746
 2156TIP3    H227884   3.664   2.395  14.734 -0.5385  0.1817 -0.0321
 2157TIP3   OH227885   6.193   1.182   4.396 -0.6596 -0.2232 -0.4814
 2157TIP3    H127886   6.252   1.239   4.346  0.9602  0.0365  1.5523
 2157TIP3    H227887   6.182   1.105   4.340  0.7520  0.1929 -1.4169
 2158TIP3   OH227888   6.604   3.022  15.114 -0.3314  0.4785 -0.1992
 2158TIP3    H127889   6.577   2.930  15.125 -2.0296  1.1228  1.4462
 2158TIP3    H227890   6.625   3.029  15.021 -0.9563 -1.3755 -0.5329
 2159TIP3   OH227891   2.547   6.434   0.615 -0.1934 -0.0153  0.5341
 2159TIP3    H127892   2.587   6.415   0.700  2.4121  0.6250 -0.4610
 2159TIP3    H227893   2.533   6.529   0.616  0.5582  0.1064 -0.0249
 2160TIP3   OH227894   2.597   5.815   0.838  0.0718  0.2277  0.3691
 2160TIP3    H127895   2.634   5.870   0.769  2.3011 -0.1209  1.1836
 2160TIP3    H227896   2.653   5.831   0.914 -0.8248 -1.2094  1.3866
 2161TIP3   OH227897   5.066   6.682  14.607 -0.2290  0.6117  0.3761
 2161TIP3    H127898   5.043   6.594  14.574 -0.3163  1.0514 -0.7905
 2161TIP3    H227899   5.119   6.665  14.685  0.3622 -0.4965 -0.2327
 2162TIP3   OH227900   1.655   3.417  11.598 -0.3035  0.1171  0.6995
 2162TIP3    H127901   1.727   3.397  11.538  0.4739 -0.3685  1.7578
 2162TIP3    H227902   1.607   3.335  11.606 -0.7673  0.3450  0.2709
 2163TIP3   OH227903   1.105   0.494  10.337  0.3768  0.6481  0.3781
 2163TIP3    H127904   1.093   0.586  10.315 -0.2734  0.1355 -1.6543
 2163TIP3    H227905   1.156   0.459  10.264 -1.1885 -1.0373  0.0179
 2164TIP3   OH227906   1.865   5.876  12.506 -0.1718 -0.1709 -0.4811
 2164TIP3    H127907   1.819   5.944  12.455  0.5535  0.6718 -0.0283
 2164TIP3    H227908   1.800   5.846  12.570 -0.1560  0.9035  0.0538
 2165TIP3   OH227909   3.071   0.403  11.120  0.5623 -0.3189  0.2498
 2165TIP3    H127910   3.026   0.322  11.144  1.8138 -0.8885  0.7587
 2165TIP3    H227911   3.163   0.378  11.115  0.7319  0.5552 -1.8623
 2166TIP3   OH227912   5.964   6.647   1.338  0.3288 -0.2052  0.0983
 2166TIP3    H127913   5.969   6.716   1.271  1.0134  0.5065  0.8579
 2166TIP3    H227914   6.054   6.615   1.345  0.6160  0.8175  1.7600
 2167TIP3   OH227915   1.954   1.643  13.634 -0.4579 -0.1089 -0.3872
 2167TIP3    H127916   1.866   1.637  13.596 -0.9262  0.7241  0.5061
 2167TIP3    H227917   1.938   1.671  13.724  0.6043 -2.0396  0.4609
 2168TIP3   OH227918   4.751   0.031  14.701 -0.0275  0.0730 -0.2508
 2168TIP3    H127919   4.805   0.006  14.625 -1.2388 -0.2436 -1.0341
 2168TIP3    H227920   4.737   0.125  14.690 -0.1025  0.0502 -0.3521
 2169TIP3   OH227921   2.368   5.964   2.136  0.3887 -0.3651  0.2298
 2169TIP3    H127922   2.346   6.051   2.168  1.8545 -0.0685  0.4904
 2169TIP3    H227923   2.392   5.914   2.214  1.6104 -0.3563 -0.1138
 2170TIP3   OH227924   1.620   5.556  16.207 -0.0286 -0.0376 -0.4737
 2170TIP3    H127925   1.671   5.636  16.224 -1.7417  1.0343 -0.1533
 2170TIP3    H227926   1.547   5.560  16.269 -1.7403 -0.3618 -2.3438
 2171TIP3   OH227927   2.628   2.547  11.505  0.3927 -0.5708 -0.7006
 2171TIP3    H127928   2.699   2.483  11.501  0.9347  0.0742 -2.3001
 2171TIP3    H227929   2.564   2.508  11.565  2.0201 -1.2176  0.6924
 2172TIP3   OH227930   3.881   2.080  14.154  0.0278  0.0129 -0.0902
 2172TIP3    H127931   3.916   2.148  14.097 -0.4608  0.6894  0.3958
 2172TIP3    H227932   3.875   2.002  14.099 -1.1293  0.8351 -1.1904
 2173TIP3   OH227933   6.242   5.597   3.827  0.1488  0.1569 -0.0596
 2173TIP3    H127934   6.312   5.657   3.853 -0.9847  0.8040  1.6622
 2173TIP3    H227935   6.219   5.623   3.738 -0.0360  2.0466  0.4961
 2174TIP3   OH227936   4.491   2.575  14.233  0.4390 -0.0745  0.1142
 2174TIP3    H127937   4.457   2.561  14.321 -2.2910  0.4786 -0.7799
 2174TIP3    H227938   4.422   2.544  14.174  2.4366 -1.0235 -1.8848
 2175TIP3   OH227939   1.139   5.842  15.656  0.2855 -0.3195  0.1720
 2175TIP3    H127940   1.083   5.798  15.720  1.3211 -0.1168  1.2510
 2175TIP3    H227941   1.078   5.882  15.594 -0.7192 -1.2458  0.5353
 2176TIP3   OH227942   6.219   6.163   4.518  0.5053 -0.3213  0.1539
 2176TIP3    H127943   6.197   6.256   4.529 -1.3089 -0.5669 -0.8726
 2176TIP3    H227944   6.174   6.119   4.590  0.1917 -0.5372 -0.1720
 2177TIP3   OH227945   2.196   0.311   5.350  0.7887  0.1515 -0.0609
 2177TIP3    H127946   2.169   0.335   5.262 -0.8597 -0.0783  0.3599
 2177TIP3    H227947   2.122   0.262   5.386  0.7863  1.5145  1.9819
 2178TIP3   OH227948   1.974   0.892  14.007  0.5773 -0.3007  0.4784
 2178TIP3    H127949   2.047   0.838  14.036  0.8081 -0.5895 -0.5874
 2178TIP3    H227950   1.903   0.831  13.992  0.7925 -0.3266 -0.5789
 2179TIP3   OH227951   3.504   5.211  15.921 -0.2269 -0.1782 -0.1241
 2179TIP3    H127952   3.593   5.199  15.888 -0.2670  1.2949 -0.8554
 2179TIP3    H227953   3.473   5.292  15.879 -1.4904 -0.0250  1.0103
 2180TIP3   OH227954   3.949   6.361  11.872 -0.0516 -0.0644 -0.0446
 2180TIP3    H127955   4.039   6.334  11.852 -0.5089 -1.0936 -0.7791
 2180TIP3    H227956   3.938   6.338  11.964  1.1354  2.0990  0.7074
 2181TIP3   OH227957   3.082   1.063   6.104 -0.3459 -0.2818  0.3950
 2181TIP3    H127958   2.996   1.063   6.062 -0.0226  0.7401 -0.3090
 2181TIP3    H227959   3.082   1.142   6.158  0.0811 -0.3802  0.5420
 2182TIP3   OH227960   0.921   4.612   3.609  0.0321  0.7620 -0.1991
 2182TIP3    H127961   0.955   4.598   3.521 -0.3399 -1.1293 -0.0897
 2182TIP3    H227962   0.828   4.590   3.602  0.0705  0.2562  0.7277
 2183TIP3   OH227963   5.499   4.509  13.031 -0.5451  0.2403 -0.0393
 2183TIP3    H127964   5.451   4.482  13.109  0.8178 -3.7065 -0.3698
 2183TIP3    H227965   5.451   4.470  12.958  0.2961  0.6459 -0.8306
 2184TIP3   OH227966   1.318   6.501   4.962 -0.1049 -0.5413  0.0914
 2184TIP3    H127967   1.230   6.531   4.984 -0.3380 -1.6399  0.7057
 2184TIP3    H227968   1.356   6.574   4.914 -1.0202  0.3106  0.6259
 2185TIP3   OH227969   3.957   3.619  15.233 -0.1834 -0.2401  0.1934
 2185TIP3    H127970   3.885   3.644  15.291 -0.7280 -1.2672 -0.0217
 2185TIP3    H227971   3.927   3.644  15.145  0.4997  0.9978  0.2787
 2186TIP3   OH227972   5.604   5.931  11.903 -0.3288  0.1776 -0.0841
 2186TIP3    H127973   5.635   5.963  11.988  0.0818  0.9806 -0.5283
 2186TIP3    H227974   5.599   5.836  11.914  0.0968  0.2384  0.7155
 2187TIP3   OH227975   4.887   1.274  16.213 -0.2884 -0.6525  0.3398
 2187TIP3    H127976   4.867   1.180  16.214  0.8457 -0.9904 -1.7114
 2187TIP3    H227977   4.953   1.283  16.144  0.9996  1.4168  1.7273
 2188TIP3   OH227978   1.348   4.879   3.793  0.3960  0.0099  0.4155
 2188TIP3    H127979   1.331   4.795   3.836  0.0696 -1.2260 -1.9510
 2188TIP3    H227980   1.269   4.930   3.810 -1.2177 -1.7106 -1.4650
 2189TIP3   OH227981   0.212   4.033  12.035  0.2831 -0.1349 -0.0466
 2189TIP3    H127982   0.190   3.943  12.013 -2.1477  0.5905 -0.8682
 2189TIP3    H227983   0.223   4.033  12.130 -0.7140 -1.0964  0.0762
 2190TIP3   OH227984   2.002   6.219  14.018  0.1306 -0.3587  0.0588
 2190TIP3    H127985   1.961   6.300  14.048  0.2232 -0.3640  0.2029
 2190TIP3    H227986   1.956   6.197  13.937  0.3389  0.0253 -0.1647
 2191TIP3   OH227987   1.095   1.367   5.015 -0.3143  0.3228  0.0873
 2191TIP3    H127988   1.059   1.308   5.081 -0.9935  0.3052 -0.2979
 2191TIP3    H227989   1.188   1.373   5.037 -0.0911 -1.3972 -0.2312
 2192TIP3   OH227990   0.789   0.789   5.870 -0.6275 -0.2038  0.1497
 2192TIP3    H127991   0.830   0.773   5.786 -1.3653 -0.8553 -0.0957
 2192TIP3    H227992   0.761   0.702   5.901 -0.0760 -0.0198  1.2117
 2193TIP3   OH227993   6.607   1.164  12.469  0.3041 -0.5723 -0.1288
 2193TIP3    H127994   6.618   1.089  12.410  0.4304  0.3970 -1.3875
 2193TIP3    H227995   6.689   1.169  12.517 -0.6459 -2.7913  1.9023
 2194TIP3   OH227996   0.956   2.887  16.343  0.1334 -0.4701 -0.2248
 2194TIP3    H127997   1.039   2.840  16.337  0.4104 -0.0115 -0.0198
 2194TIP3    H227998   0.914   2.852  16.422  1.7966  1.8992  1.8565
 2195TIP3   OH227999   6.211   3.208   6.068 -0.7782  0.1374  0.4489
 2195TIP3    H128000   6.230   3.257   6.148 -3.2528  1.1271  0.5071
 2195TIP3    H228001   6.138   3.151   6.091 -0.8271 -0.3409 -0.8154
 2196TIP3   OH228002   2.914   1.877  12.195  0.2999  0.0531 -0.0349
 2196TIP3    H128003   3.006   1.858  12.175  0.9706  4.7647 -3.0121
 2196TIP3    H228004   2.917   1.919  12.281  0.6418 -1.2444  0.6072
 2197TIP3   OH228005   1.073   1.534   6.241 -0.4651  0.0445  0.3393
 2197TIP3    H128006   1.107   1.446   6.228 -0.0062  0.1925  0.5166
 2197TIP3    H228007   1.141   1.591   6.205 -1.4234  0.2879 -1.1838
 2198TIP3   OH228008   0.694   5.218   3.546 -0.3864  0.4233 -0.6408
 2198TIP3    H128009   0.660   5.141   3.591 -0.1833  0.5745 -0.2292
 2198TIP3    H228010   0.760   5.254   3.605  0.2740  0.3119 -1.2829
 2199TIP3   OH228011   0.896   3.091   3.114 -0.3028  0.2525  0.1169
 2199TIP3    H128012   0.874   3.149   3.186  0.4742  0.4433  0.2059
 2199TIP3    H228013   0.989   3.072   3.125  0.1114  1.1484 -1.4371
 2200TIP3   OH228014   1.735   0.672   6.544 -0.3734 -0.0487 -0.4460
 2200TIP3    H128015   1.828   0.692   6.558 -0.5252 -0.0157  0.5893
 2200TIP3    H228016   1.690   0.721   6.613 -1.4284  2.2031 -2.5887
 2201TIP3   OH228017   3.610   2.039   3.680 -0.0238  0.5063 -0.0975
 2201TIP3    H128018   3.522   2.030   3.643 -0.2566 -1.1008  0.7417
 2201TIP3    H228019   3.596   2.037   3.774  1.0241 -1.8434  0.0758
 2202TIP3   OH228020   0.288   5.664   5.143 -0.5039 -0.0632 -0.3371
 2202TIP3    H128021   0.250   5.740   5.186  0.1049 -0.1452  0.3597
 2202TIP3    H228022   0.248   5.663   5.056  0.7103  2.0288 -0.9931
 2203TIP3   OH228023   2.950   2.448  14.290  0.2809  0.3267  0.3328
 2203TIP3    H128024   3.010   2.521  14.305  0.8157 -0.4774  2.4039
 2203TIP3    H228025   2.925   2.419  14.377  0.0636 -1.9617 -0.4225
 2204TIP3   OH228026   5.008   1.106  14.909 -1.1768  0.3843 -0.0709
 2204TIP3    H128027   5.075   1.088  14.975 -0.6076 -2.2471 -1.2391
 2204TIP3    H228028   4.927   1.072  14.947 -0.8612 -1.0690 -0.6440
 2205TIP3   OH228029   1.762   4.840  16.879 -0.4953 -0.1208  0.7116
 2205TIP3    H128030   1.750   4.834  16.974 -0.0596  0.3293  0.7988
 2205TIP3    H228031   1.808   4.760  16.856 -0.5060 -0.1819  0.8960
 2206TIP3   OH228032   1.692   5.567  14.645 -0.1223 -0.6474 -0.6880
 2206TIP3    H128033   1.603   5.560  14.609 -0.9140  1.8621  0.5283
 2206TIP3    H228034   1.691   5.510  14.722 -0.6774 -0.6620 -0.7014
 2207TIP3   OH228035   6.255   1.455   3.027  0.2412 -0.1989  0.1523
 2207TIP3    H128036   6.305   1.398   2.969  0.6341 -0.8766  1.1387
 2207TIP3    H228037   6.226   1.398   3.098 -0.3075  0.5991  0.5805
 2208TIP3   OH228038   2.824   0.053   2.950  0.0370  0.1929  0.6093
 2208TIP3    H128039   2.853  -0.022   2.897 -2.5213 -0.7427  0.3887
 2208TIP3    H228040   2.874   0.045   3.031  0.7803 -0.9769  0.0756
 2209TIP3   OH228041   1.822   4.130  13.449  0.0438 -0.3811 -0.6943
 2209TIP3    H128042   1.733   4.137  13.416  0.4790  1.1710 -1.6477
 2209TIP3    H228043   1.877   4.134  13.371  0.9839 -0.4749 -0.0592
 2210TIP3   OH228044   3.595   6.009   1.151  0.5453 -0.0128  0.5138
 2210TIP3    H128045   3.584   5.967   1.237  0.4908 -1.8108 -0.3197
 2210TIP3    H228046   3.685   5.987   1.126  0.3321 -0.0909 -0.1861
 2211TIP3   OH228047   5.354   0.180  13.988 -0.4716 -0.0693 -0.2241
 2211TIP3    H128048   5.390   0.187  13.900 -1.9765 -0.1659 -0.8715
 2211TIP3    H228049   5.408   0.113  14.031 -0.1956 -0.5530 -1.3052
 2212TIP3   OH228050   3.555   1.599  12.087 -0.0760 -0.3119 -0.1671
 2212TIP3    H128051   3.482   1.574  12.030  0.1607  0.4548 -0.8238
 2212TIP3    H228052   3.563   1.526  12.148 -0.3209 -1.1679 -1.1303
 2213TIP3   OH228053   0.648   4.182  11.703  0.3924 -0.4354 -0.2889
 2213TIP3    H128054   0.622   4.136  11.623  1.9420 -1.0229 -0.4861
 2213TIP3    H228055   0.721   4.131  11.737 -0.0125  0.0103  1.3276
 2214TIP3   OH228056   1.363   3.986   0.868 -0.2378  0.7291  0.1969
 2214TIP3    H128057   1.420   4.026   0.803 -2.0258  0.1498 -1.8389
 2214TIP3    H228058   1.376   3.892   0.856 -1.1674  0.6034  0.1248
 2215TIP3   OH228059   1.030   5.554   1.369  0.8078  0.9072  0.0481
 2215TIP3    H128060   0.988   5.476   1.406 -0.1677  1.2943 -0.2100
 2215TIP3    H228061   0.957   5.612   1.347  1.1738  0.0756 -4.0106
 2216TIP3   OH228062   1.171   2.687   3.380 -0.2463  0.7712 -0.3409
 2216TIP3    H128063   1.126   2.675   3.296  0.9269  0.6887 -0.9818
 2216TIP3    H228064   1.264   2.690   3.357  0.2165 -0.8589  1.1304
 2217TIP3   OH228065   6.526   2.243  14.409  0.0270 -0.7411  0.6732
 2217TIP3    H128066   6.461   2.261  14.477 -0.5253  1.1830 -0.2886
 2217TIP3    H228067   6.477   2.197  14.340 -0.3573  0.6355 -0.0156
 2218TIP3   OH228068   2.488   6.146   5.336 -0.0902  0.2810 -0.3285
 2218TIP3    H128069   2.550   6.212   5.368  0.1905  0.0834 -0.4631
 2218TIP3    H228070   2.518   6.064   5.375  0.3520  0.0057 -1.2212
 2219TIP3   OH228071   1.494   0.990   3.297 -0.0228 -0.0554  0.0825
 2219TIP3    H128072   1.516   0.897   3.304 -2.6484 -0.6646  1.3080
 2219TIP3    H228073   1.426   0.993   3.229  1.2842  1.2674 -1.2382
 2220TIP3   OH228074   5.304   5.879  14.994  0.8691 -0.8471 -0.3004
 2220TIP3    H128075   5.376   5.903  14.936  1.3910 -0.3819  0.5190
 2220TIP3    H228076   5.334   5.799  15.038  2.2498  0.9237  2.2636
 2221TIP3   OH228077   5.792   1.031   0.899 -0.1348 -0.1339  0.6138
 2221TIP3    H128078   5.775   0.984   0.818  0.8677 -0.6548  0.6911
 2221TIP3    H228079   5.834   0.967   0.956 -0.1498  0.4315  1.2746
 2222TIP3   OH228080   5.347   6.582  16.340  0.6904  0.0085 -0.1800
 2222TIP3    H128081   5.375   6.668  16.310 -1.9532  0.9348 -0.2862
 2222TIP3    H228082   5.342   6.590  16.435 -0.1320  0.1964 -0.2308
 2223TIP3   OH228083   3.088   5.503  15.949 -0.5651  0.2181  0.5044
 2223TIP3    H128084   3.005   5.550  15.946 -2.0385 -2.1699  0.8970
 2223TIP3    H228085   3.120   5.504  15.859 -1.6434  0.1742  0.1066
 2224TIP3   OH228086   3.193   5.413  16.317  0.1251  0.6602 -0.7189
 2224TIP3    H128087   3.247   5.356  16.370  0.4559 -0.7578 -2.4849
 2224TIP3    H228088   3.234   5.499  16.325  0.6163  0.3234  0.6444
 2225TIP3   OH228089   6.166   5.218  16.215  0.7498 -0.5218  0.4643
 2225TIP3    H128090   6.163   5.292  16.155 -2.7846  0.5154  1.6528
 2225TIP3    H228091   6.156   5.257  16.302 -0.4936 -2.2901  1.1888
 2226TIP3   OH228092   2.285   6.739  12.491 -0.0363 -0.0271  0.3746
 2226TIP3    H128093   2.279   6.703  12.402  3.6208  2.8174 -1.3259
 2226TIP3    H228094   2.255   6.830  12.481  0.8886  0.4773  1.9158
 2227TIP3   OH228095   1.192   5.675  16.663  0.4390  0.2910  0.8677
 2227TIP3    H128096   1.149   5.757  16.640 -0.1489  0.1933  1.5766
 2227TIP3    H228097   1.146   5.609  16.610 -0.8923  0.0711  2.2319
 2228TIP3   OH228098   0.838   1.895  13.396 -0.2528 -0.3228  0.2436
 2228TIP3    H128099   0.779   1.962  13.430  0.1783 -0.4957  1.3682
 2228TIP3    H228100   0.823   1.897  13.301 -1.0304  0.6052  0.3602
 2229TIP3   OH228101   3.463   3.948   3.492 -0.7801 -0.0030 -0.1735
 2229TIP3    H128102   3.403   3.898   3.437 -1.3121 -1.4141  1.5653
 2229TIP3    H228103   3.450   3.912   3.580  2.3706 -0.1333  0.3447
 2230TIP3   OH228104   1.184   5.645  16.947  0.2545 -0.4134 -0.8204
 2230TIP3    H128105   1.160   5.641  16.854 -0.9885  0.7393 -0.5810
 2230TIP3    H228106   1.116   5.699  16.987  1.1961 -0.2469  0.6290
 2231TIP3   OH228107   2.657   0.718   3.898 -0.2716  0.0648 -0.4192
 2231TIP3    H128108   2.742   0.761   3.888 -0.3969  0.8256  1.3956
 2231TIP3    H228109   2.598   0.768   3.842  0.7239 -1.4355 -2.9500
 2232TIP3   OH228110   5.262   4.496  11.191 -0.4508 -0.0714  0.9368
 2232TIP3    H128111   5.233   4.554  11.121 -1.5878  0.5495  1.8745
 2232TIP3    H228112   5.236   4.409  11.162  1.3695 -0.1776 -0.5356
 2233TIP3   OH228113   0.958   6.305   1.970 -0.1546 -0.0694  0.1454
 2233TIP3    H128114   0.988   6.215   1.986 -0.1538  0.1794  1.7064
 2233TIP3    H228115   0.979   6.321   1.878 -2.5542 -2.5644 -0.9892
 2234TIP3   OH228116   1.148   4.638  13.039 -0.6833 -1.1075  0.1734
 2234TIP3    H128117   1.188   4.619  13.124 -0.7411  0.1925  0.5074
 2234TIP3    H228118   1.168   4.561  12.986  0.3528 -1.4419  1.0115
 2235TIP3   OH228119   5.534   3.135  12.515 -0.1129 -0.3307 -0.1426
 2235TIP3    H128120   5.584   3.200  12.563  0.4167 -1.4565  0.8963
 2235TIP3    H228121   5.457   3.119  12.570 -0.3796 -0.3662 -0.5289
 2236TIP3   OH228122   0.702   2.360   1.402 -0.4504  0.0310 -0.6315
 2236TIP3    H128123   0.642   2.384   1.472 -1.3878  0.3938 -1.5422
 2236TIP3    H228124   0.788   2.356   1.444 -0.9735  0.3971  0.4970
 2237TIP3   OH228125   3.430   5.198  14.438  0.0668  0.4140  0.6724
 2237TIP3    H128126   3.344   5.162  14.459  0.2779 -1.8963 -1.7999
 2237TIP3    H228127   3.418   5.293  14.441 -2.3831  0.1514  1.0664
 2238TIP3   OH228128   4.277   0.639  16.321 -0.0405 -0.3850  0.0751
 2238TIP3    H128129   4.260   0.720  16.273 -0.0336 -1.0593 -1.0834
 2238TIP3    H228130   4.193   0.615  16.358 -0.3615 -0.6031 -0.7792
 2239TIP3   OH228131   4.683   5.243  12.136  0.1219  0.3641  0.0437
 2239TIP3    H128132   4.644   5.293  12.208 -2.6337 -0.1516 -0.9962
 2239TIP3    H228133   4.742   5.181  12.180  0.5729  1.8101  1.6124
 2240TIP3   OH228134   4.026   2.295  11.086  0.4153 -0.2043 -0.3068
 2240TIP3    H128135   3.994   2.377  11.049  2.2512  1.9681  2.5493
 2240TIP3    H228136   3.951   2.259  11.133  0.2592  1.2933  0.6595
 2241TIP3   OH228137   4.420   4.739  14.263 -0.4944 -0.0657  0.3562
 2241TIP3    H128138   4.366   4.816  14.282  1.3902  1.3090  0.3676
 2241TIP3    H228139   4.421   4.690  14.346 -0.5299  0.6584  0.7969
 2242TIP3   OH228140   3.978   1.933   4.454 -0.6460 -0.8132  0.2968
 2242TIP3    H128141   4.027   1.854   4.431 -0.3909  0.0423 -2.4863
 2242TIP3    H228142   4.045   1.993   4.487 -0.0936 -0.3310 -1.6220
 2243TIP3   OH228143   2.808   6.413   4.556 -0.0350 -0.0876 -0.1783
 2243TIP3    H128144   2.823   6.333   4.505  1.4573  0.0699 -0.0232
 2243TIP3    H228145   2.866   6.405   4.632 -0.2621  0.9022  0.1180
 2244TIP3   OH228146   6.436   2.936  17.285 -0.1785 -0.0832 -0.2458
 2244TIP3    H128147   6.464   2.995  17.215  1.4198 -2.0420 -1.3663
 2244TIP3    H228148   6.409   2.994  17.356  1.4254  1.9978 -1.2353
 2245TIP3   OH228149   2.760   6.690   1.689 -0.1887  0.1394  0.1756
 2245TIP3    H128150   2.783   6.772   1.733 -0.4069 -0.3830  1.3045
 2245TIP3    H228151   2.727   6.634   1.759 -2.0278 -0.2033 -0.8857
 2246TIP3   OH228152   4.150   5.389   0.539  0.3319 -0.9728 -0.2289
 2246TIP3    H128153   4.198   5.459   0.496 -1.2464  1.5896  1.9048
 2246TIP3    H228154   4.163   5.404   0.632 -1.6361 -2.3437  0.3340
 2247TIP3   OH228155   4.584   0.056   0.458 -1.2507  0.4913  0.3407
 2247TIP3    H128156   4.566   0.148   0.478 -0.1235  0.3938  1.9516
 2247TIP3    H228157   4.627   0.059   0.372 -0.8152  1.5243  0.5735
 2248TIP3   OH228158   1.524   1.169  11.693 -0.5445  0.4673  0.2138
 2248TIP3    H128159   1.588   1.218  11.641  1.4216 -1.4502  0.6921
 2248TIP3    H228160   1.445   1.169  11.639  0.0199  2.2996 -0.7231
 2249TIP3   OH228161   0.487   2.008  12.444  0.0097 -0.4770 -0.5089
 2249TIP3    H128162   0.432   1.933  12.469 -0.8504 -0.1109 -1.2693
 2249TIP3    H228163   0.440   2.084  12.476  0.8624 -0.2353  0.2197
 2250TIP3   OH228164   2.146   3.967  14.518  0.4684 -0.7602  0.2805
 2250TIP3    H128165   2.184   3.929  14.439 -1.3967 -0.4729 -0.8177
 2250TIP3    H228166   2.073   3.908  14.540  1.2769 -1.1309  2.1144
 2251TIP3   OH228167   6.471   5.544   4.176  0.1375  0.2253  1.3626
 2251TIP3    H128168   6.529   5.609   4.216 -0.1270  0.9071  0.6675
 2251TIP3    H228169   6.531   5.482   4.135  0.3962  1.0903  0.3851
 2252TIP3   OH228170   3.684   5.116  12.192 -0.4140  0.2017 -0.0961
 2252TIP3    H128171   3.700   5.071  12.109 -1.8210  0.2253 -0.4006
 2252TIP3    H228172   3.689   5.209  12.170 -0.8131  0.2083 -0.1746
 2253TIP3   OH228173   2.990   5.758  12.913  0.1044 -0.1823 -0.0301
 2253TIP3    H128174   2.959   5.787  12.827  1.0734  0.4803 -0.1652
 2253TIP3    H228175   2.910   5.752  12.966 -0.3742  0.5841 -0.6422
 2254TIP3   OH228176   4.290   0.006  12.055  0.0637  0.5383 -0.0611
 2254TIP3    H128177   4.207  -0.039  12.038  0.6065 -1.1111  1.3893
 2254TIP3    H228178   4.345  -0.016  11.981 -0.5906  1.2060 -0.7691
 2255TIP3   OH228179   2.131   4.175  12.997  0.3535 -0.6966 -0.7828
 2255TIP3    H128180   2.173   4.201  12.915  1.8390 -0.9131 -0.1306
 2255TIP3    H228181   2.072   4.104  12.973 -0.1131  0.0252 -1.8322
 2256TIP3   OH228182   4.325   5.627   4.790  0.0240 -0.8165 -0.3840
 2256TIP3    H128183   4.289   5.561   4.730  0.0243  0.1467 -1.4847
 2256TIP3    H228184   4.327   5.708   4.738  2.0531 -0.4165  0.2050
 2257TIP3   OH228185   5.506   1.959   2.331 -0.2318  0.7532 -0.3070
 2257TIP3    H128186   5.537   1.870   2.344 -0.9755  0.4239 -0.7374
 2257TIP3    H228187   5.538   2.007   2.408 -0.8746 -0.1571  0.5471
 2258TIP3   OH228188   4.295   1.373  12.019  0.4386  0.8059 -0.6631
 2258TIP3    H128189   4.256   1.345  11.937  0.9075  1.2425 -1.0441
 2258TIP3    H228190   4.233   1.437  12.054 -1.7956 -2.1460  1.3244
 2259TIP3   OH228191   3.394   5.289   3.636  0.2912  0.3634 -0.6183
 2259TIP3    H128192   3.489   5.295   3.627  0.3177 -0.3812 -0.9490
 2259TIP3    H228193   3.374   5.333   3.718  1.0196 -0.2390 -0.1030
 2260TIP3   OH228194   0.117   6.250   4.719 -0.3576 -0.9600 -0.0730
 2260TIP3    H128195   0.047   6.291   4.668  0.5343  0.0791 -0.4897
 2260TIP3    H228196   0.071   6.206   4.791 -1.4060  0.4347  0.1577
 2261TIP3   OH228197   2.059   4.218   0.878 -0.0998 -0.2145  0.2268
 2261TIP3    H128198   1.976   4.249   0.840  0.8132  1.4899 -0.5060
 2261TIP3    H228199   2.033   4.171   0.957 -1.6947  2.0628  1.1863
 2262TIP3   OH228200   1.683   2.778  16.726 -0.1014 -0.0432 -0.1038
 2262TIP3    H128201   1.643   2.755  16.810 -0.2893  1.2463  0.1834
 2262TIP3    H228202   1.608   2.794  16.668 -0.0628  1.9037  0.3034
 2263TIP3   OH228203   6.249   3.829  14.614  1.0637 -0.1501 -0.2725
 2263TIP3    H128204   6.273   3.751  14.563  0.5950 -1.1567  0.9947
 2263TIP3    H228205   6.290   3.815  14.699  1.7410  1.4549 -0.3144
 2264TIP3   OH228206   5.355   1.798   6.140  0.1779 -0.0154 -0.5961
 2264TIP3    H128207   5.432   1.744   6.156  0.1179  0.4116  1.3800
 2264TIP3    H228208   5.356   1.863   6.210 -2.8109 -0.9506  0.4694
 2265TIP3   OH228209   2.488   3.567   3.408  0.3858 -0.7840 -0.1725
 2265TIP3    H128210   2.479   3.616   3.326 -0.0042  1.3496  1.0584
 2265TIP3    H228211   2.438   3.487   3.394  0.6959 -0.6783 -2.1539
 2266TIP3   OH228212   4.567   5.871   5.593  0.4149  0.2096  0.6081
 2266TIP3    H128213   4.633   5.838   5.653  0.1223  0.6366  1.1692
 2266TIP3    H228214   4.616   5.928   5.533  0.5864  0.3687  0.8981
 2267TIP3   OH228215   2.435   1.319   5.037 -0.5313 -0.0068  0.7025
 2267TIP3    H128216   2.481   1.399   5.063 -0.1863  0.4392 -1.1150
 2267TIP3    H228217   2.351   1.350   5.003 -0.5747 -0.4593  0.3997
 2268TIP3   OH228218   2.030   0.194   4.969  0.0248 -0.0968  0.0754
 2268TIP3    H128219   2.007   0.224   4.881  0.4051 -0.4845 -0.1583
 2268TIP3    H228220   1.989   0.259   5.028  2.6063  2.1954 -0.4457
 2269TIP3   OH228221   3.144   3.518  13.980  0.7203 -0.3414 -0.1563
 2269TIP3    H128222   3.052   3.500  13.964  1.0592 -1.8898 -0.5586
 2269TIP3    H228223   3.147   3.551  14.070 -0.2814  0.3314 -0.3585
 2270TIP3   OH228224   4.952   3.025   3.663  1.0679  0.4865  0.0671
 2270TIP3    H128225   4.904   3.038   3.581  2.3810 -0.5781 -0.9038
 2270TIP3    H228226   4.994   2.939   3.654  0.1048 -0.3492  2.4474
 2271TIP3   OH228227   2.798   3.474  17.000  0.0681  0.1355  0.3480
 2271TIP3    H128228   2.893   3.484  16.990 -0.1676  0.7758 -1.7201
 2271TIP3    H228229   2.772   3.551  17.051  0.4998  0.6805 -0.2363
 2272TIP3   OH228230   0.333   2.921   0.379  0.2309 -0.1574 -0.3543
 2272TIP3    H128231   0.317   2.827   0.378 -1.0759  0.0159  0.7869
 2272TIP3    H228232   0.307   2.948   0.467 -1.5162  1.6115 -1.3600
 2273TIP3   OH228233   0.668   1.810   3.041 -0.9989  0.6679 -0.2189
 2273TIP3    H128234   0.739   1.762   3.000 -2.3243 -1.5599 -0.1156
 2273TIP3    H228235   0.685   1.902   3.021  1.1490  0.0913 -1.3020
 2274TIP3   OH228236   6.673   0.816  15.847  0.0388 -0.6080 -0.4113
 2274TIP3    H128237   6.622   0.866  15.911 -1.8292 -0.7683 -1.7050
 2274TIP3    H228238   6.734   0.881  15.810 -0.6080  0.0958 -0.2652
 2275TIP3   OH228239   5.963   3.781   0.718 -0.2005  1.0224  0.5026
 2275TIP3    H128240   5.884   3.800   0.769  0.3896  2.0523  1.0831
 2275TIP3    H228241   5.960   3.687   0.703 -1.9328  1.1526 -0.1636
 2276TIP3   OH228242   3.217   5.589   0.045  0.5388 -0.1038  0.0244
 2276TIP3    H128243   3.132   5.630   0.028  0.8586  0.0657 -1.2153
 2276TIP3    H228244   3.264   5.653   0.099  0.0301 -0.0408  0.4041
 2277TIP3   OH228245   2.396   3.020   3.764  0.0557  0.2458  0.4390
 2277TIP3    H128246   2.339   3.038   3.689 -1.2787 -0.8720  1.1384
 2277TIP3    H228247   2.340   2.974   3.826  1.4790 -0.0060  1.5887
 2278TIP3   OH228248   3.812   5.059   0.852  0.7426 -0.0837 -0.4401
 2278TIP3    H128249   3.750   5.104   0.794  0.9527 -0.9016 -1.3261
 2278TIP3    H228250   3.757   5.015   0.916  0.2043 -2.2757 -2.2509
 2279TIP3   OH228251   0.861   1.167   4.112 -0.8256 -0.1179 -0.0945
 2279TIP3    H128252   0.890   1.180   4.021 -1.1626 -0.2783 -0.2263
 2279TIP3    H228253   0.878   1.074   4.129  0.4903  0.1959  0.4584
 2280TIP3   OH228254   6.693   1.067  11.209  0.8158 -0.2919  0.8029
 2280TIP3    H128255   6.714   1.018  11.129  2.3496  0.1422  0.9001
 2280TIP3    H228256   6.608   1.033  11.236  0.0064 -0.0749 -1.2933
 2281TIP3   OH228257   3.982   2.954   1.080 -0.0982  0.0897 -0.2847
 2281TIP3    H128258   3.906   2.895   1.086 -1.1209  1.4533  1.2618
 2281TIP3    H228259   4.034   2.933   1.157 -0.4595  1.1171  0.2716
 2282TIP3   OH228260   1.081   4.575  12.008  0.6570 -0.5695 -0.4451
 2282TIP3    H128261   1.052   4.518  11.936  0.9509  0.2241 -1.2081
 2282TIP3    H228262   1.021   4.650  12.005  2.5010  0.9516 -1.8485
 2283TIP3   OH228263   0.058   3.977  17.341  0.1047  0.1904 -0.0438
 2283TIP3    H128264   0.044   3.892  17.300  1.6020 -0.4794  0.7509
 2283TIP3    H228265  -0.001   3.978  17.416  0.1569 -0.1873  0.0026
 2284TIP3   OH228266   3.363   6.497   5.669  0.7268 -0.2553  0.0935
 2284TIP3    H128267   3.405   6.581   5.692 -0.5332  0.4317 -0.0274
 2284TIP3    H228268   3.436   6.439   5.649  1.6709  0.5633  1.0072
 2285TIP3   OH228269   1.905   3.865  14.652 -0.0958  0.3042  0.3346
 2285TIP3    H128270   1.895   3.953  14.616 -0.6919 -0.5565 -1.7160
 2285TIP3    H228271   1.823   3.820  14.630  1.1340 -1.4834 -0.8602
 2286TIP3   OH228272   5.604   3.357   0.308 -0.0530  0.0062 -0.1705
 2286TIP3    H128273   5.544   3.316   0.245  0.1602  1.9124 -1.6931
 2286TIP3    H228274   5.690   3.323   0.284  0.1767  1.5183 -1.6892
 2287TIP3   OH228275   2.626   2.191  15.077 -0.4754  0.1029  0.0962
 2287TIP3    H128276   2.676   2.146  15.008  0.6021  0.3029  0.7315
 2287TIP3    H228277   2.568   2.124  15.113 -0.3453 -0.2473 -0.3395
 2288TIP3   OH228278   0.034   1.127   3.344 -0.0372 -0.5115  0.0897
 2288TIP3    H128279   0.002   1.068   3.412 -0.1995 -1.3068 -0.6435
 2288TIP3    H228280   0.115   1.164   3.379 -0.3005 -0.6330  0.8431
 2289TIP3   OH228281   4.249   0.113   1.157 -0.4101 -0.3528 -0.1136
 2289TIP3    H128282   4.283   0.198   1.130 -0.1663 -1.0754 -2.2829
 2289TIP3    H228283   4.284   0.100   1.245  1.0730  0.9924 -0.4637
 2290TIP3   OH228284   6.480   0.593   3.287 -0.2831 -0.0775 -0.0968
 2290TIP3    H128285   6.463   0.527   3.220 -1.6300  1.2427 -1.1044
 2290TIP3    H228286   6.470   0.677   3.242  0.9967  0.8448  1.2436
 2291TIP3   OH228287   3.513   4.459  16.739  0.4625  0.1999  0.1652
 2291TIP3    H128288   3.573   4.454  16.665 -0.7488  0.3368 -0.8691
 2291TIP3    H228289   3.569   4.461  16.817  1.8269  2.1453 -0.8221
 2292TIP3   OH228290   0.695   1.766  11.420  0.1771  0.1978  0.0912
 2292TIP3    H128291   0.625   1.748  11.357  0.9742 -1.2769 -0.4146
 2292TIP3    H228292   0.765   1.805  11.367 -0.6980  2.9705  0.8138
 2293TIP3   OH228293   1.595   4.406  12.037  0.0251 -0.2762  0.1607
 2293TIP3    H128294   1.624   4.462  11.965  0.6234  0.3064  0.8466
 2293TIP3    H228295   1.501   4.424  12.045 -0.2982 -1.1813 -1.1971
 2294TIP3   OH228296   2.694   3.119  16.214 -0.0325  0.5156 -0.1972
 2294TIP3    H128297   2.650   3.090  16.133  0.1287 -0.8547  0.1859
 2294TIP3    H228298   2.640   3.085  16.284 -1.2863  3.3533  0.3814
 2295TIP3   OH228299   6.126   3.337  11.119 -0.1979  0.7088  0.2182
 2295TIP3    H128300   6.219   3.348  11.142  0.0967  0.4684 -0.7662
 2295TIP3    H228301   6.078   3.368  11.195  0.7014 -0.9681  1.5390
 2296TIP3   OH228302   5.370   5.002  16.569 -0.5080  0.5311 -0.2348
 2296TIP3    H128303   5.431   4.990  16.496 -0.5865 -1.0353 -0.0722
 2296TIP3    H228304   5.422   5.045  16.637 -0.2452  1.3608 -0.9392
 2297TIP3   OH228305   2.454   5.950   3.697  0.1562 -0.1530 -0.3277
 2297TIP3    H128306   2.438   5.873   3.642  0.1720 -0.6711  0.3873
 2297TIP3    H228307   2.449   6.024   3.636  1.9005 -0.8365 -1.3917
 2298TIP3   OH228308   1.340   0.310  11.941  0.2464  0.1435  0.1760
 2298TIP3    H128309   1.363   0.352  11.858  0.6993  0.2939  0.3788
 2298TIP3    H228310   1.278   0.370  11.982  0.7021  0.4970  0.3518
 2299TIP3   OH228311   1.791   3.353   3.250 -0.0479  0.7961 -0.0098
 2299TIP3    H128312   1.777   3.389   3.338  1.5363  0.2655  0.4877
 2299TIP3    H228313   1.857   3.285   3.262  0.1398  0.6606 -1.6051
 2300TIP3   OH228314   2.191   0.268  12.462  0.5283  0.2121  0.1831
 2300TIP3    H128315   2.156   0.308  12.542 -1.0307  1.5544 -1.0842
 2300TIP3    H228316   2.183   0.337  12.396 -0.2626 -1.5112 -1.6234
 2301TIP3   OH228317   1.673   0.332  15.184  0.1813  0.3409 -0.0745
 2301TIP3    H128318   1.633   0.264  15.130 -1.9265  1.4387 -0.0391
 2301TIP3    H228319   1.764   0.336  15.155 -0.1115 -1.2203 -1.3391
 2302TIP3   OH228320   3.752   6.113   0.771 -0.0896  0.3174 -0.4511
 2302TIP3    H128321   3.763   6.206   0.792 -1.5519  0.3442  0.3162
 2302TIP3    H228322   3.668   6.090   0.809 -0.3657 -1.0025 -1.7802
 2303TIP3   OH228323   3.060   5.293  13.488  0.2998 -0.1208 -0.1069
 2303TIP3    H128324   3.031   5.311  13.398 -0.7439  0.5854  0.3564
 2303TIP3    H228325   2.981   5.265  13.534  0.7027  0.1252  0.7539
 2304TIP3   OH228326   5.839   1.524  14.482 -0.0095 -0.1235  0.2635
 2304TIP3    H128327   5.887   1.565  14.554 -1.5569 -0.1304  1.3263
 2304TIP3    H228328   5.791   1.452  14.522  0.7004 -1.4711 -1.1533
 2305TIP3   OH228329   3.845   3.138  12.981  0.2565 -0.2883  0.0173
 2305TIP3    H128330   3.904   3.117  12.909  0.5451 -1.6508  0.6148
 2305TIP3    H228331   3.872   3.225  13.010 -0.3921  0.6534 -1.9939
 2306TIP3   OH228332   1.905   3.012  15.148  0.1299  0.0913  0.2704
 2306TIP3    H128333   1.830   2.954  15.161  0.7930 -0.4866  1.6943
 2306TIP3    H228334   1.872   3.099  15.167 -0.4071 -0.0393 -0.0484
 2307TIP3   OH228335   0.560   4.082  11.982  0.0358 -0.2005  0.0592
 2307TIP3    H128336   0.580   4.003  11.933  1.6087  0.7542 -0.9240
 2307TIP3    H228337   0.514   4.138  11.919  1.2500  0.6670 -0.0919
 2308TIP3   OH228338   0.395   0.057   3.759 -0.6771 -0.6457  0.5891
 2308TIP3    H128339   0.432  -0.027   3.787 -0.1947 -0.8560 -0.6364
 2308TIP3    H228340   0.469   0.118   3.762 -0.1151 -1.0971 -1.9963
 2309TIP3   OH228341   3.332   5.313  15.128  0.2677  0.0522 -0.0716
 2309TIP3    H128342   3.275   5.236  15.124 -1.1146  1.0792 -2.0440
 2309TIP3    H228343   3.417   5.279  15.157 -1.0372 -1.6936  2.0033
 2310TIP3   OH228344   1.970   5.573   4.890 -0.3191 -0.5253 -0.4153
 2310TIP3    H128345   1.877   5.578   4.909 -0.2738 -1.2808  0.0473
 2310TIP3    H228346   2.013   5.592   4.973 -0.1145 -2.8751  0.0992
 2311TIP3   OH228347   4.738   2.719  13.700  0.5575 -0.1666  0.0425
 2311TIP3    H128348   4.781   2.692  13.781  1.6648 -1.2115 -0.8586
 2311TIP3    H228349   4.721   2.637  13.654 -2.0229  0.2248  0.1208
 2312TIP3   OH228350   5.105   6.621  12.619  0.9497  0.0345  0.4802
 2312TIP3    H128351   5.138   6.707  12.595  1.0699 -0.4730 -1.2708
 2312TIP3    H228352   5.178   6.581  12.667  1.6560  0.1733 -0.4469
 2313TIP3   OH228353   6.608   0.202  12.291 -0.4213  0.7388  0.0548
 2313TIP3    H128354   6.555   0.125  12.313 -0.4774 -0.1454 -2.7197
 2313TIP3    H228355   6.561   0.243  12.218  1.0833  1.7556 -0.3907
 2314TIP3   OH228356   1.622   5.004   5.603  0.0660  0.0620  0.1981
 2314TIP3    H128357   1.599   4.917   5.634  0.1667 -0.6906 -1.7436
 2314TIP3    H228358   1.553   5.027   5.541  0.4051  1.0851  0.1822
 2315TIP3   OH228359   3.204   4.879  15.805  0.7255  0.1974  0.2162
 2315TIP3    H128360   3.241   4.847  15.887  0.1562 -0.5277  0.1960
 2315TIP3    H228361   3.147   4.951  15.831  1.0969  0.4326  0.3822
 2316TIP3   OH228362   6.457   4.812  12.544 -0.1341  0.3219  0.8249
 2316TIP3    H128363   6.374   4.831  12.588 -1.8134 -1.6628 -1.2618
 2316TIP3    H228364   6.482   4.726  12.578  0.8726  0.7167  1.1066
 2317TIP3   OH228365   5.436   3.031  13.860 -0.1548  0.7464  0.2784
 2317TIP3    H128366   5.518   2.983  13.866 -0.8333 -0.4444  0.2076
 2317TIP3    H228367   5.424   3.068  13.948  0.4965  1.0234  0.2609
 2318TIP3   OH228368   3.727   4.067   0.634  0.5238  0.3321  0.0611
 2318TIP3    H128369   3.711   3.973   0.635 -2.1017  0.6573 -1.6405
 2318TIP3    H228370   3.820   4.075   0.613  0.6297 -1.8893 -0.5558
 2319TIP3   OH228371   2.558   4.889  10.673  0.1406 -0.1326 -0.0506
 2319TIP3    H128372   2.641   4.935  10.684 -0.1571  0.3528  0.2690
 2319TIP3    H228373   2.568   4.808  10.723 -0.9530  1.7383  3.5902
 2320TIP3   OH228374   4.268   1.056  15.656 -0.0190  0.8512  0.2021
 2320TIP3    H128375   4.278   0.985  15.719  0.3631 -0.1061 -0.8896
 2320TIP3    H228376   4.252   1.011  15.572 -2.8052  2.0831 -0.0370
 2321TIP3   OH228377   5.980   1.069  13.588  0.2219 -0.0232 -0.0073
 2321TIP3    H128378   6.003   1.158  13.612  1.6613 -0.2969 -0.2895
 2321TIP3    H228379   6.029   1.014  13.650  0.4294 -0.6382 -0.7091
 2322TIP3   OH228380   4.442   5.611  16.422 -0.0033  0.4066 -0.4820
 2322TIP3    H128381   4.420   5.518  16.432 -0.8737  0.2351 -3.1855
 2322TIP3    H228382   4.465   5.640  16.511  0.4156 -2.3947  0.4188
 2323TIP3   OH228383   6.616   0.256  16.486  0.0303  0.0740 -0.6240
 2323TIP3    H128384   6.551   0.198  16.446  0.1420 -1.4849  1.3259
 2323TIP3    H228385   6.564   0.322  16.531 -0.2285 -0.9233  0.5755
 2324TIP3   OH228386   1.598   2.266  11.220 -0.4990  0.6138 -0.2186
 2324TIP3    H128387   1.628   2.260  11.311 -1.9925 -0.7000  0.2379
 2324TIP3    H228388   1.676   2.289  11.170  1.3051 -2.5865  0.8688
 2325TIP3   OH228389   1.284   3.630   3.801 -0.1219  0.2057 -0.0881
 2325TIP3    H128390   1.372   3.608   3.770 -0.2711  1.4570 -1.5203
 2325TIP3    H228391   1.240   3.668   3.725 -2.0607 -0.7629  0.4755
 2326TIP3   OH228392   1.699   4.103   1.730 -0.6128 -0.1798  0.1277
 2326TIP3    H128393   1.762   4.156   1.682  0.5034 -1.9053 -0.4005
 2326TIP3    H228394   1.621   4.158   1.737 -0.3750  0.6123 -2.5645
 2327TIP3   OH228395   5.425   4.679   5.191  0.3068  0.1749 -0.7471
 2327TIP3    H128396   5.503   4.624   5.190  0.1594 -0.0265 -1.5015
 2327TIP3    H228397   5.420   4.713   5.281  0.8913 -0.3320 -0.5239
 2328TIP3   OH228398   4.559   3.898   1.626  0.5436 -0.1196  0.2673
 2328TIP3    H128399   4.530   3.840   1.556  0.7814  0.7544 -0.5867
 2328TIP3    H228400   4.595   3.974   1.580 -1.6757  1.6839  1.2735
 2329TIP3   OH228401   5.001   6.063   0.338 -0.5504  0.5794  0.0110
 2329TIP3    H128402   5.002   6.131   0.270 -1.0895  0.2528 -0.3270
 2329TIP3    H228403   5.082   6.013   0.324  0.4088  1.7820  0.9271
 2330TIP3   OH228404   6.273   1.529   0.460  0.1717  0.1429  0.5519
 2330TIP3    H128405   6.328   1.533   0.382  0.4804 -0.5381  0.7237
 2330TIP3    H228406   6.335   1.534   0.534  0.1801 -2.0526  0.7557
 2331TIP3   OH228407   5.692   4.688   0.420  0.1841 -0.8408 -0.3230
 2331TIP3    H128408   5.785   4.673   0.407  0.5674  0.6035  0.5465
 2331TIP3    H228409   5.676   4.774   0.380 -0.4023 -0.2963  1.0139
 2332TIP3   OH228410   2.970   1.237   4.388 -0.1467  0.2037 -0.6455
 2332TIP3    H128411   2.904   1.279   4.334 -1.0683  0.8826  0.9316
 2332TIP3    H228412   2.920   1.184   4.450  0.8448 -0.1283 -0.0994
 2333TIP3   OH228413   6.285   1.286   5.134 -0.0141  0.1492 -0.3747
 2333TIP3    H128414   6.264   1.341   5.209  0.1348 -0.0492 -0.1860
 2333TIP3    H228415   6.350   1.335   5.085  1.1772 -0.4624  0.5394
 2334TIP3   OH228416   6.087   0.206   2.130 -0.2094 -0.4324 -0.2308
 2334TIP3    H128417   6.033   0.146   2.182  0.0917 -0.8312 -0.3717
 2334TIP3    H228418   6.038   0.217   2.049 -1.0575  0.7931  0.4115
 2335TIP3   OH228419   1.473   6.153  16.594  0.5659  0.8144 -0.1432
 2335TIP3    H128420   1.499   6.089  16.661 -0.2118  1.3672  0.7094
 2335TIP3    H228421   1.380   6.168  16.610 -0.1560 -0.4840 -2.5731
 2336TIP3   OH228422   4.144   1.050   6.165  0.2530 -0.1186 -0.0320
 2336TIP3    H128423   4.233   1.026   6.188 -0.2532 -2.9605 -0.7328
 2336TIP3    H228424   4.090   1.010   6.233 -0.5536  0.9349 -0.0259
 2337TIP3   OH228425   5.816   0.082   2.214 -0.3907 -0.0854 -0.2072
 2337TIP3    H128426   5.798   0.011   2.152 -1.1715  1.0953 -1.3983
 2337TIP3    H228427   5.738   0.084   2.271  0.4153 -1.3006  0.9911
 2338TIP3   OH228428   1.442   5.320  14.525 -0.1132  0.3670 -0.1311
 2338TIP3    H128429   1.476   5.292  14.610 -2.0459 -1.9337  0.0105
 2338TIP3    H228430   1.472   5.252  14.464  0.3127  1.3980 -1.1152
 2339TIP3   OH228431   2.713   3.985   1.430  0.2062  0.0541  0.0685
 2339TIP3    H128432   2.657   3.988   1.507  0.8079  1.2716  0.4775
 2339TIP3    H228433   2.774   4.058   1.441  1.0056 -0.4118 -1.0256
 2340TIP3   OH228434   3.111   3.456   6.227  0.6088 -0.2371  0.3888
 2340TIP3    H128435   3.075   3.507   6.154  2.4830 -0.0916 -0.4942
 2340TIP3    H228436   3.046   3.388   6.243 -0.8597  1.0401  0.0475
 2341TIP3   OH228437   4.241   4.156  14.888  0.3730  0.2750 -0.3066
 2341TIP3    H128438   4.310   4.217  14.914 -0.3584  0.8056  0.4345
 2341TIP3    H228439   4.161   4.194  14.923 -0.4465  0.1497 -1.9762
 2342TIP3   OH228440   3.322   3.285  16.749  0.9194  0.5251  0.2510
 2342TIP3    H128441   3.247   3.309  16.695  0.4891  0.2617  0.7247
 2342TIP3    H228442   3.392   3.343  16.720  0.9471 -0.1963 -1.1780
 2343TIP3   OH228443   4.609   1.693  13.567  0.3691 -0.2900 -0.4383
 2343TIP3    H128444   4.544   1.626  13.548  0.2319 -0.5360  0.8380
 2343TIP3    H228445   4.660   1.700  13.486 -3.0196  2.0583 -2.6192
 2344TIP3   OH228446   4.109   1.090  15.075 -0.1396 -0.3619  0.3941
 2344TIP3    H128447   4.197   1.093  15.036 -0.7149 -1.0827 -1.0116
 2344TIP3    H228448   4.121   1.130  15.161  0.8911  2.7858 -1.0285
 2345TIP3   OH228449   5.699   2.829  11.973 -0.4868 -0.1904  0.1028
 2345TIP3    H128450   5.696   2.734  11.978  1.6853 -0.3044  0.3511
 2345TIP3    H228451   5.676   2.858  12.062  1.2233 -0.6405  0.7460
 2346TIP3   OH228452   6.721   4.118  13.638  0.0529  0.2804  0.5654
 2346TIP3    H128453   6.756   4.119  13.727  0.0247 -0.3049  0.5810
 2346TIP3    H228454   6.782   4.171  13.587  1.6841 -1.7362  0.3202
 2347TIP3   OH228455   5.587   2.467   4.100  0.0211  0.0692 -0.3350
 2347TIP3    H128456   5.500   2.438   4.072 -0.5522 -0.0898  1.4612
 2347TIP3    H228457   5.645   2.396   4.077 -0.4834 -0.2397 -0.6822
 2348TIP3   OH228458   1.809   0.495   4.182  0.1202  0.3349 -0.1932
 2348TIP3    H128459   1.868   0.480   4.256  2.4013  0.8398 -1.7860
 2348TIP3    H228460   1.739   0.431   4.193 -0.0786  0.9566  2.8114
 2349TIP3   OH228461   5.999   4.628  16.957 -0.1654 -0.2487 -0.1850
 2349TIP3    H128462   6.082   4.620  16.910  1.1525 -0.0137  1.9687
 2349TIP3    H228463   6.001   4.559  17.023 -0.7898  0.9492  1.1598
 2350TIP3   OH228464   4.633   5.179   0.678  0.4417 -0.1916 -0.3307
 2350TIP3    H128465   4.679   5.258   0.650  0.0776 -0.5094 -1.9776
 2350TIP3    H228466   4.703   5.118   0.704  0.6578  1.3199  3.0582
 2351TIP3   OH228467   0.365   0.006   5.131 -0.2743  0.4624 -0.0752
 2351TIP3    H128468   0.272   0.009   5.155 -0.3115 -0.0466 -0.1362
 2351TIP3    H228469   0.375  -0.078   5.085  0.2722  0.3845  0.1761
 2352TIP3   OH228470   5.797   5.331   3.268 -0.0366  0.0916 -0.0655
 2352TIP3    H128471   5.855   5.400   3.301 -1.1304 -0.5308  3.5717
 2352TIP3    H228472   5.849   5.285   3.202  1.9202  2.2791 -0.1751
 2353TIP3   OH228473   3.779   6.110   2.930 -0.0587 -0.1328 -0.5085
 2353TIP3    H128474   3.813   6.092   3.018  1.8501  2.3526 -0.6410
 2353TIP3    H228475   3.706   6.170   2.944  1.7739  2.2636 -0.6247
 2354TIP3   OH228476   2.577   4.627  15.558 -0.0303 -0.2149 -0.7283
 2354TIP3    H128477   2.538   4.663  15.478  2.6678  0.3587 -1.8781
 2354TIP3    H228478   2.667   4.605  15.534  1.8284  2.5366  2.7850
 2355TIP3   OH228479   1.365   3.515  14.484 -0.0133 -0.0631  0.0894
 2355TIP3    H128480   1.434   3.506  14.551  1.3363  2.1745 -0.9072
 2355TIP3    H228481   1.344   3.608  14.483  0.1725  0.0293 -2.7389
 2356TIP3   OH228482   1.480   0.123  15.072 -0.1685 -0.2160 -0.2605
 2356TIP3    H128483   1.463   0.144  15.164 -1.8433  0.3413 -0.6804
 2356TIP3    H228484   1.405   0.158  15.024  0.7000 -0.4498 -1.8618
 2357TIP3   OH228485   0.180   6.247   1.341  0.0238 -0.0902  0.0454
 2357TIP3    H128486   0.134   6.298   1.408  1.3474 -0.3121  1.1754
 2357TIP3    H228487   0.153   6.157   1.357  0.5099 -0.1708  0.4504
 2358TIP3   OH228488   0.876   3.322  14.623 -0.0581  0.0602 -0.2470
 2358TIP3    H128489   0.824   3.247  14.649 -0.7846  0.6062 -0.1112
 2358TIP3    H228490   0.957   3.314  14.674 -0.5094 -0.1301  0.4442
 2359TIP3   OH228491   3.948   6.715  10.614  0.4663 -0.1315  0.2083
 2359TIP3    H128492   3.912   6.649  10.554 -0.7912  1.4577 -0.8788
 2359TIP3    H228493   4.042   6.718  10.593  0.8110 -2.4520  1.2043
 2360TIP3   OH228494   5.580   2.753   5.322 -0.4439 -0.4105 -0.4606
 2360TIP3    H128495   5.489   2.725   5.320 -0.3318 -0.8369  0.1704
 2360TIP3    H228496   5.580   2.834   5.373 -0.3391 -0.9515  0.4208
 2361TIP3   OH228497   5.489   5.197  11.747 -0.8633  0.0877  0.1128
 2361TIP3    H128498   5.526   5.283  11.729 -1.5738  0.8037  1.8417
 2361TIP3    H228499   5.403   5.198  11.705 -2.0912  1.3628  2.4737
 2362TIP3   OH228500   1.741   3.915   3.601  0.1273 -0.4631 -0.3326
 2362TIP3    H128501   1.819   3.912   3.545  0.3068  0.9913 -0.1923
 2362TIP3    H228502   1.675   3.961   3.548 -0.4916 -1.2639 -0.2727
 2363TIP3   OH228503   2.506   0.908  15.774 -0.1789 -0.0008  0.3629
 2363TIP3    H128504   2.492   0.856  15.695  1.6699  1.4463 -1.0324
 2363TIP3    H228505   2.582   0.868  15.817  0.5227  0.7843 -0.0985
 2364TIP3   OH228506   0.233   1.722  10.294 -0.3533  0.3244  0.2549
 2364TIP3    H128507   0.267   1.655  10.353  0.2290  0.8984  0.5807
 2364TIP3    H228508   0.138   1.716  10.304 -0.3399 -0.7900 -0.1040
 2365TIP3   OH228509   5.591   2.152  13.090  0.0456  0.3959 -0.1322
 2365TIP3    H128510   5.616   2.065  13.122 -0.0400  0.5185  0.2841
 2365TIP3    H228511   5.611   2.211  13.163  0.0738  0.7218 -0.3982
 2366TIP3   OH228512   2.926   1.352   0.775  0.4975 -0.0834  0.4528
 2366TIP3    H128513   2.946   1.403   0.854  2.8724  0.7917 -0.6243
 2366TIP3    H228514   3.005   1.359   0.722  0.1472 -3.2300 -0.6627
 2367TIP3   OH228515   6.127   1.664   1.555 -0.0602  0.0711  0.0151
 2367TIP3    H128516   6.105   1.607   1.481 -0.1063  0.7680 -0.5155
 2367TIP3    H228517   6.188   1.612   1.608  0.4476 -0.2070 -0.8290
 2368TIP3   OH228518   5.155   6.131   4.857 -0.1748 -0.1286 -0.1256
 2368TIP3    H128519   5.064   6.161   4.850 -0.3048 -0.5122 -0.0835
 2368TIP3    H228520   5.152   6.057   4.918  0.1474 -0.2217 -0.2191
 2369TIP3   OH228521   2.657   3.934  10.857 -0.1617 -0.1417 -0.2384
 2369TIP3    H128522   2.699   4.020  10.853 -0.4140 -0.0054 -0.0418
 2369TIP3    H228523   2.690   3.894  10.938 -0.2548 -0.1172 -0.1883
 2370TIP3   OH228524   3.958   4.587   3.447 -0.3020 -0.7745 -0.0708
 2370TIP3    H128525   3.876   4.537   3.451 -0.4269 -0.6626 -1.0424
 2370TIP3    H228526   4.000   4.558   3.367  0.5389 -0.7001  0.3344
 2371TIP3   OH228527   4.593   4.644  12.277 -0.0619 -0.1009 -0.3146
 2371TIP3    H128528   4.646   4.697  12.337  0.6194  0.6181 -1.5059
 2371TIP3    H228529   4.606   4.554  12.306  0.6948  0.1872  0.2714
 2372TIP3   OH228530   1.534   3.650  15.710 -0.0883 -0.1068 -0.2940
 2372TIP3    H128531   1.539   3.720  15.645  0.4932 -0.7606 -0.9605
 2372TIP3    H228532   1.607   3.667  15.769 -0.8401  0.7084  0.4437
 2373TIP3   OH228533   2.326   2.130  16.120  0.0746 -0.1091  0.0367
 2373TIP3    H128534   2.271   2.201  16.154  0.1739  1.3223 -2.5244
 2373TIP3    H228535   2.416   2.164  16.125  0.3019 -0.7344  0.3259
 2374TIP3   OH228536   2.103   1.090   6.084  0.2344  0.0428  0.2450
 2374TIP3    H128537   2.019   1.060   6.049 -0.1881  1.3095  0.1358
 2374TIP3    H228538   2.148   1.009   6.111 -0.8139 -0.6838 -0.1246
 2375TIP3   OH228539   6.551   0.525  16.295  0.1175  0.3580  0.7958
 2375TIP3    H128540   6.465   0.565  16.312 -0.4179 -1.3220  2.2978
 2375TIP3    H228541   6.541   0.486  16.208  0.5895  3.1520 -0.6290
 2376TIP3   OH228542   2.192   3.402   5.225 -0.1119 -0.7772 -0.3367
 2376TIP3    H128543   2.187   3.399   5.320 -2.4866 -1.6813 -0.4444
 2376TIP3    H228544   2.238   3.322   5.201 -1.3476 -1.6084 -0.0109
 2377TIP3   OH228545   0.426   1.404   4.248  0.1574 -0.0658 -0.3994
 2377TIP3    H128546   0.439   1.462   4.172 -0.1642 -2.2638 -2.2432
 2377TIP3    H228547   0.331   1.394   4.254  0.2077 -0.3037 -0.0034
 2378TIP3   OH228548   0.840   3.340   4.780  0.4293 -0.1939  0.0335
 2378TIP3    H128549   0.901   3.306   4.714  1.5572  1.2648  0.2852
 2378TIP3    H228550   0.807   3.261   4.824  0.0954 -1.1646 -1.8459
 2379TIP3   OH228551   2.992   6.423  14.260  0.1082  0.0637 -0.1012
 2379TIP3    H128552   3.065   6.373  14.297  0.2712  0.2443 -0.1778
 2379TIP3    H228553   3.022   6.514  14.261 -0.0526  0.1198 -0.2837
 2380TIP3   OH228554   1.773   3.918   2.432  0.0423 -0.2413  0.3875
 2380TIP3    H128555   1.794   3.861   2.506 -0.6457 -0.6986  0.2452
 2380TIP3    H228556   1.757   4.004   2.471  2.2086  0.1547  0.4890
 2381TIP3   OH228557   3.353   1.005   0.724  0.1982 -0.5077  0.2655
 2381TIP3    H128558   3.405   1.023   0.802 -0.1143  0.7714  0.1910
 2381TIP3    H228559   3.386   1.065   0.658 -0.0388 -1.0706 -0.3843
 2382TIP3   OH228560   3.158   0.244   5.349 -0.5434 -0.1754 -0.0126
 2382TIP3    H128561   3.173   0.280   5.436  0.2668  1.7941 -0.9150
 2382TIP3    H228562   3.069   0.208   5.353 -0.9810  0.9684  1.3035
 2383TIP3   OH228563   3.362   0.373   1.623 -0.9727 -0.3010  0.4111
 2383TIP3    H128564   3.381   0.289   1.581  0.4222 -0.7853  1.9053
 2383TIP3    H228565   3.444   0.397   1.666 -2.1050  0.4899  2.2731
 2384TIP3   OH228566   5.769   2.212   5.640 -0.1018  0.1639 -0.5406
 2384TIP3    H128567   5.741   2.263   5.716  1.8404  0.6563 -0.0960
 2384TIP3    H228568   5.810   2.277   5.582  1.4723 -0.6730 -0.4388
 2385TIP3   OH228569   0.329   0.714  14.371  0.1299  0.0983  0.3398
 2385TIP3    H128570   0.300   0.624  14.389  1.0777 -0.2649  0.1242
 2385TIP3    H228571   0.302   0.763  14.449 -0.2129 -0.4163  0.5564
 2386TIP3   OH228572   6.287   0.496   1.664 -0.0134  0.2002 -0.1781
 2386TIP3    H128573   6.263   0.490   1.572 -1.1304 -0.8718  0.1449
 2386TIP3    H228574   6.215   0.544   1.705  0.7221  1.1235  0.0762
 2387TIP3   OH228575   3.019   1.593   2.870 -0.7101  0.0707 -0.3484
 2387TIP3    H128576   2.962   1.670   2.874  0.2195  0.7444  1.7104
 2387TIP3    H228577   3.108   1.629   2.862 -0.4278 -0.9077 -2.0959
 2388TIP3   OH228578   4.635   5.560  13.067 -0.1717 -0.3437  0.4669
 2388TIP3    H128579   4.554   5.554  13.118  0.9254 -1.6243  2.1597
 2388TIP3    H228580   4.638   5.651  13.038 -1.5388  0.0797  1.5068
 2389TIP3   OH228581   6.479   0.883   2.403 -0.1339 -0.2098  0.7514
 2389TIP3    H128582   6.454   0.800   2.443 -0.0670  0.0783  1.3959
 2389TIP3    H228583   6.415   0.946   2.437  0.6401  0.2692  1.3456
 2390TIP3   OH228584   0.295   1.528  14.207 -0.0046  0.2613 -0.3964
 2390TIP3    H128585   0.346   1.533  14.288 -0.5566  0.7627 -0.0673
 2390TIP3    H228586   0.314   1.441  14.172  1.6059  0.6847 -0.6566
 2391TIP3   OH228587   3.799   4.260   4.906 -0.0730  0.2157 -0.3125
 2391TIP3    H128588   3.869   4.220   4.855 -0.6387 -1.7981  0.3875
 2391TIP3    H228589   3.780   4.342   4.861 -0.1210 -1.1644 -2.9654
 2392TIP3   OH228590   2.873   5.077  14.300 -0.3039 -0.0772 -0.1496
 2392TIP3    H128591   2.936   5.076  14.227  1.3009 -0.2768  1.1921
 2392TIP3    H228592   2.819   5.155  14.283  0.2089  0.0290 -1.4039
 2393TIP3   OH228593   1.564   3.823  14.329 -0.4092 -0.0004 -0.4344
 2393TIP3    H128594   1.554   3.773  14.248  1.6880 -1.2787  0.0321
 2393TIP3    H228595   1.634   3.885  14.310 -1.2400  1.0350 -0.1857
 2394TIP3   OH228596   3.888   5.099   3.053  0.2358 -0.2641 -0.5335
 2394TIP3    H128597   3.818   5.142   3.004 -0.8463 -2.6052 -1.1975
 2394TIP3    H228598   3.853   5.012   3.073  2.2257 -0.8063  0.8696
 2395TIP3   OH228599   3.033   5.774   3.262 -0.0924 -0.0298 -0.1552
 2395TIP3    H128600   2.954   5.750   3.310  1.7609 -0.9677  2.6821
 2395TIP3    H228601   3.064   5.691   3.225 -0.4490  0.3531 -1.3573
 2396TIP3   OH228602   5.475   0.096   3.111  0.1884  0.0511  0.3087
 2396TIP3    H128603   5.491   0.003   3.093 -0.1659 -0.0545  0.5361
 2396TIP3    H228604   5.387   0.113   3.076 -1.6025 -0.7596  3.9426
 2397TIP3   OH228605   0.912   1.613   5.002 -0.2588  0.3387 -0.3513
 2397TIP3    H128606   0.926   1.519   5.000  2.4129  0.6015  1.1511
 2397TIP3    H228607   0.833   1.625   5.055  0.2016 -1.0321  0.6980
 2398TIP3   OH228608   0.976   5.551  17.235  0.4879  0.0707 -1.2832
 2398TIP3    H128609   1.033   5.621  17.200 -0.1848  1.7224  0.7407
 2398TIP3    H228610   0.889   5.574  17.203  0.6278 -1.4653 -2.9045
 2399TIP3   OH228611   6.678   6.285  14.658 -0.0408  0.4210 -0.8052
 2399TIP3    H128612   6.695   6.309  14.749  0.4423  1.4717 -1.1669
 2399TIP3    H228613   6.583   6.288  14.650 -0.2909 -1.8699  0.2322
 2400TIP3   OH228614   5.184   4.660   5.405 -0.1497  0.2358  0.9719
 2400TIP3    H128615   5.148   4.657   5.316 -0.4908 -1.3645  1.1346
 2400TIP3    H228616   5.119   4.709   5.455 -0.8107 -0.3387  0.6925
 2401TIP3   OH228617   1.338   5.827  11.040 -0.6976  0.2844  0.5403
 2401TIP3    H128618   1.390   5.770  11.096 -1.9974 -1.4745  0.0394
 2401TIP3    H228619   1.397   5.899  11.018  2.3458 -2.5567 -1.6620
 2402TIP3   OH228620   4.235   0.479  14.666 -0.0173 -0.2440 -0.7860
 2402TIP3    H128621   4.308   0.483  14.729 -0.8554  1.4154  0.1539
 2402TIP3    H228622   4.211   0.386  14.663  0.4625 -0.4674  0.8971
 2403TIP3   OH228623   0.848   4.670   4.081  0.4234  0.0406  0.0494
 2403TIP3    H128624   0.888   4.644   3.998 -0.9083  1.5807 -1.1534
 2403TIP3    H228625   0.793   4.745   4.059  0.2252  0.6840  2.4001
 2404TIP3   OH228626   4.083   4.235   6.098  1.0173 -0.1162  0.2615
 2404TIP3    H128627   3.988   4.234   6.089  1.0167  0.7411  0.0928
 2404TIP3    H228628   4.101   4.305   6.161  1.4107 -1.8640  2.2382
 2405TIP3   OH228629   0.579   0.554  16.768 -0.3341 -0.1261 -0.1177
 2405TIP3    H128630   0.498   0.543  16.818 -1.0368 -1.9103 -1.5433
 2405TIP3    H228631   0.630   0.617  16.819 -2.7009  1.2735  0.6902
 2406TIP3   OH228632   6.035   0.916  16.609 -0.4579 -0.0431  0.5672
 2406TIP3    H128633   6.085   0.926  16.528 -1.9525  0.0786 -0.3662
 2406TIP3    H228634   6.009   0.824  16.610  1.3480 -0.6214  2.0419
 2407TIP3   OH228635   4.442   0.502   2.236 -0.5134 -0.1165 -0.1928
 2407TIP3    H128636   4.455   0.578   2.179 -0.5998  0.6198  0.7429
 2407TIP3    H228637   4.358   0.518   2.279 -0.4034 -0.6126  0.2174
 2408TIP3   OH228638   0.001   4.566   3.167 -0.6113 -0.0468 -0.2991
 2408TIP3    H128639   0.053   4.641   3.137  0.5566 -0.7050  0.0171
 2408TIP3    H228640  -0.031   4.524   3.087  0.3804 -0.3433 -0.5469
 2409TIP3   OH228641   2.036   4.672  17.123 -0.0879 -0.1633  0.1770
 2409TIP3    H128642   2.079   4.686  17.208 -1.4757 -1.6539  1.1920
 2409TIP3    H228643   2.107   4.645  17.065  0.8663  0.6964  0.8827
 2410TIP3   OH228644   5.698   3.678  11.303 -0.3110  0.5514 -0.4479
 2410TIP3    H128645   5.703   3.582  11.307 -0.2610  0.5821  0.4175
 2410TIP3    H228646   5.652   3.696  11.221 -1.0580 -0.2385 -0.2244
 2411TIP3   OH228647   4.665   2.367  15.073 -0.1670  0.1998  0.1316
 2411TIP3    H128648   4.650   2.308  15.000  0.8743  0.2279 -0.1234
 2411TIP3    H228649   4.607   2.336  15.142  0.0432 -0.8300 -0.1510
 2412TIP3   OH228650   2.881   1.669   0.125 -0.0863 -0.3361 -0.0350
 2412TIP3    H128651   2.825   1.637   0.054  2.8823 -1.1118 -2.2146
 2412TIP3    H228652   2.869   1.764   0.123 -1.3848 -0.4883 -0.3514
 2413TIP3   OH228653   5.455   6.038  12.638  0.3702  0.3259 -1.1659
 2413TIP3    H128654   5.420   5.998  12.717  1.3592  1.4177 -0.1194
 2413TIP3    H228655   5.491   5.966  12.587  0.8909 -0.2708  0.0162
 2414TIP3   OH228656   6.275   2.885   3.756 -0.3693  0.0763  0.2949
 2414TIP3    H128657   6.327   2.961   3.781 -0.2667 -0.1158  0.6656
 2414TIP3    H228658   6.282   2.825   3.830  3.0523 -2.1691 -1.5439
 2415TIP3   OH228659   3.114   4.193   0.456 -0.4657  0.2093  0.2276
 2415TIP3    H128660   3.037   4.162   0.408 -1.0197  2.0300 -0.1281
 2415TIP3    H228661   3.141   4.118   0.509 -2.0285 -0.6980 -0.2038
 2416TIP3   OH228662   5.485   4.913  16.064 -0.0902  0.3440 -0.0505
 2416TIP3    H128663   5.454   4.830  16.099  0.9895  0.9239  2.4795
 2416TIP3    H228664   5.543   4.889  15.992  1.5295 -1.2557  1.6861
 2417TIP3   OH228665   4.908   5.433  16.816 -0.9016  0.2082  0.4854
 2417TIP3    H128666   4.994   5.403  16.848 -0.0072 -0.7135 -2.4882
 2417TIP3    H228667   4.924   5.522  16.784 -0.7232 -0.3981 -1.1662
 2418TIP3   OH228668   1.877   3.624   1.914  0.5132 -0.2659  0.0866
 2418TIP3    H128669   1.848   3.676   1.989 -2.4154  0.8878 -1.6910
 2418TIP3    H228670   1.800   3.574   1.888  1.0350  0.2529 -2.8242
 2419TIP3   OH228671   4.306   5.710   5.080  0.6081  0.0205 -0.7413
 2419TIP3    H128672   4.317   5.629   5.128 -0.4525 -0.0999 -0.6722
 2419TIP3    H228673   4.286   5.683   4.990 -1.0853  0.1368 -0.4407
 2420TIP3   OH228674   3.769   5.148  11.641 -0.8950  0.3230  0.4426
 2420TIP3    H128675   3.825   5.224  11.625  1.1935 -1.0453  0.8547
 2420TIP3    H228676   3.778   5.132  11.735 -0.2241 -1.1855  0.1500
 2421TIP3   OH228677   2.350   1.956   2.390  0.1958 -0.3835  0.1799
 2421TIP3    H128678   2.261   1.925   2.411  0.2536 -0.2477  0.6235
 2421TIP3    H228679   2.336   2.029   2.329 -0.1612  1.5671  2.4557
 2422TIP3   OH228680   3.688   6.394   5.393  0.4102 -0.2329  0.0211
 2422TIP3    H128681   3.749   6.450   5.440 -0.4714  0.3237  0.5344
 2422TIP3    H228682   3.730   6.308   5.391 -0.0780 -0.6564  3.0527
 2423TIP3   OH228683   6.544   0.484   1.736 -0.1125  0.4671  0.2927
 2423TIP3    H128684   6.591   0.567   1.747  0.5337 -0.2045  3.5560
 2423TIP3    H228685   6.455   0.511   1.711  0.4616  2.0573 -0.1661
 2424TIP3   OH228686   6.498   2.939   2.588  0.0853  0.6991  0.1840
 2424TIP3    H128687   6.416   2.889   2.592 -0.1311  1.1204  1.4602
 2424TIP3    H228688   6.557   2.885   2.536 -0.7853  0.0640 -0.1666
 2425TIP3   OH228689   5.310   5.674   2.379 -0.4693  0.3119  0.3322
 2425TIP3    H128690   5.384   5.614   2.390 -0.7870 -0.5327 -1.8406
 2425TIP3    H228691   5.350   5.761   2.387  0.3312 -0.1227  1.4936
 2426TIP3   OH228692   1.536   4.941   0.486  0.2080 -0.5591  0.0179
 2426TIP3    H128693   1.522   4.964   0.577 -2.3701  0.4697 -0.5299
 2426TIP3    H228694   1.605   4.999   0.456  1.0203 -0.8554  1.2752
 2427TIP3   OH228695   0.417   0.163   3.371  0.1062 -0.3143  0.1597
 2427TIP3    H128696   0.363   0.190   3.446  0.4093 -0.4236  0.4191
 2427TIP3    H228697   0.393   0.224   3.301 -0.1643 -0.1991  0.3518
 2428TIP3   OH228698   1.200   5.007  13.564  0.3003  0.5142  0.2466
 2428TIP3    H128699   1.209   5.100  13.545 -0.9769  0.6112  0.0589
 2428TIP3    H228700   1.184   4.967  13.478 -1.1552  0.3876  0.5644
 2429TIP3   OH228701   1.022   5.142   0.607 -0.5444  0.0159  0.5984
 2429TIP3    H128702   0.936   5.185   0.607 -0.4136  0.3491 -1.2864
 2429TIP3    H228703   1.033   5.110   0.518  1.0841 -0.4692  0.9412
 2430TIP3   OH228704   1.074   5.944  13.873  0.2765  0.0182 -0.4940
 2430TIP3    H128705   1.030   6.018  13.914 -0.1444  0.2153 -1.2868
 2430TIP3    H228706   1.167   5.962  13.885  0.1900 -0.5824  1.5132
 2431TIP3   OH228707   2.379   4.204   5.547  0.7627  0.2053  0.3903
 2431TIP3    H128708   2.412   4.155   5.622 -2.9365 -0.6914  1.6520
 2431TIP3    H228709   2.332   4.278   5.586  0.0566  0.5903 -1.1295
 2432TIP3   OH228710   2.803   2.859  14.583  0.5398 -0.0118  0.5016
 2432TIP3    H128711   2.893   2.835  14.604  0.6694 -0.1439 -0.1701
 2432TIP3    H228712   2.811   2.919  14.509  0.0981  0.3772  0.7655
 2433TIP3   OH228713   3.992   5.164  13.726  0.8133  0.3954 -0.1649
 2433TIP3    H128714   3.903   5.185  13.755  0.9584  1.5460 -0.4972
 2433TIP3    H228715   3.983   5.083  13.677  0.1069 -0.0068  0.6062
 2434TIP3   OH228716   1.687   2.437   2.655  0.0706 -0.0659 -0.3385
 2434TIP3    H128717   1.727   2.400   2.733  0.5314  1.1294  0.0110
 2434TIP3    H228718   1.688   2.532   2.669 -0.0808  0.1640 -1.6738
 2435TIP3   OH228719   2.014   6.125   2.530 -0.3817  0.5542 -0.4539
 2435TIP3    H128720   2.051   6.060   2.591  0.2998  0.7893 -0.6159
 2435TIP3    H228721   1.919   6.118   2.543 -0.2518  0.5296  0.5675
 2436TIP3   OH228722   2.657   1.860  13.470  0.6688 -0.3692 -0.0475
 2436TIP3    H128723   2.597   1.792  13.439 -0.7379  0.3870  0.9237
 2436TIP3    H228724   2.680   1.910  13.391 -1.7435  0.6647 -0.1730
 2437TIP3   OH228725   4.237   5.682   4.334  0.2171  0.0696 -0.5253
 2437TIP3    H128726   4.281   5.608   4.377 -0.9242  0.6062  1.7040
 2437TIP3    H228727   4.149   5.650   4.314  0.2226  0.3460 -1.0148
 2438TIP3   OH228728   3.540   4.027  14.610 -0.0140  0.3861  0.3109
 2438TIP3    H128729   3.536   4.089  14.537 -0.2319  1.3168  1.0895
 2438TIP3    H228730   3.608   4.063  14.667 -1.4802  1.0166  1.7292
 2439TIP3   OH228731   6.167   1.223  14.480  0.5841  0.0259 -0.3325
 2439TIP3    H128732   6.219   1.236  14.401 -0.8325  0.0744 -1.2863
 2439TIP3    H228733   6.081   1.259  14.458 -0.1497 -0.9338  0.8555
 2440TIP3   OH228734   6.500   2.578   5.793 -0.1608 -0.1636 -0.4695
 2440TIP3    H128735   6.570   2.621   5.743 -1.4741 -1.6413 -3.8558
 2440TIP3    H228736   6.480   2.639   5.864  4.4573  0.3466  0.7185
 2441TIP3   OH228737   6.706   3.768  11.676 -0.0743  0.0391  0.4376
 2441TIP3    H128738   6.685   3.683  11.715  0.8285  0.6182  2.2819
 2441TIP3    H228739   6.747   3.747  11.592  1.4826 -1.4305  1.5087
 2442TIP3   OH228740   3.798   0.182  12.985 -0.0621 -0.3630 -0.1011
 2442TIP3    H128741   3.809   0.090  13.009 -1.9097  0.0313  2.7442
 2442TIP3    H228742   3.879   0.205  12.941  1.3505 -2.7872  1.0267
 2443TIP3   OH228743   5.517   6.434   5.144 -0.8071 -0.0252  0.2004
 2443TIP3    H128744   5.446   6.485   5.184 -0.6978 -0.5245  1.0441
 2443TIP3    H228745   5.475   6.387   5.072 -0.7608  1.8330 -1.1119
 2444TIP3   OH228746   6.493   0.286  15.199  0.6121  0.2654  0.4490
 2444TIP3    H128747   6.410   0.298  15.154  0.0079 -0.2041  1.4081
 2444TIP3    H228748   6.497   0.192  15.218  0.7884  0.4688  1.4792
 2445TIP3   OH228749   1.299   2.635  17.149  0.0365 -0.0567  0.0724
 2445TIP3    H128750   1.276   2.719  17.109  0.8447  0.2922  0.3173
 2445TIP3    H228751   1.384   2.651  17.191  1.1709 -1.5125 -1.5173
 2446TIP3   OH228752   5.423   5.002  14.900 -0.3850 -0.4506 -0.5970
 2446TIP3    H128753   5.492   5.004  14.834 -0.6950 -1.3765 -0.9683
 2446TIP3    H228754   5.466   4.969  14.979 -0.1454  0.1185 -0.4791
 2447TIP3   OH228755   4.033   0.155   6.443 -0.2759 -0.2255 -0.5571
 2447TIP3    H128756   4.076   0.073   6.417  0.0788 -0.3535  0.3675
 2447TIP3    H228757   4.104   0.209   6.478 -0.7016 -0.0454  0.0595
 2448TIP3   OH228758   6.694   5.302  12.299  0.0395 -0.4078 -0.1753
 2448TIP3    H128759   6.741   5.225  12.332  0.5673  0.4780  1.2124
 2448TIP3    H228760   6.742   5.327  12.220  0.0851 -1.2805 -0.4299
 2449TIP3   OH228761   0.989   0.621   2.160 -0.3267  0.4834 -0.2280
 2449TIP3    H128762   1.047   0.677   2.108  0.1219 -1.2387 -1.6798
 2449TIP3    H228763   1.028   0.534   2.154 -1.7799 -0.2682  0.7533
 2450TIP3   OH228764   4.882   6.256   0.547  0.0664  0.4389 -0.4751
 2450TIP3    H128765   4.889   6.183   0.609  3.8376  2.1450  1.4559
 2450TIP3    H228766   4.913   6.220   0.464  1.0905 -0.3946  0.2397
 2451TIP3   OH228767   5.793   1.741   3.600 -0.4888 -0.0578  0.3338
 2451TIP3    H128768   5.878   1.699   3.607  0.4310  1.4427 -1.1154
 2451TIP3    H228769   5.757   1.738   3.689  2.0527  1.2112  1.4999
 2452TIP3   OH228770   1.484   0.026   5.178  0.3758  0.6881 -0.0953
 2452TIP3    H128771   1.428   0.026   5.100  0.6198  0.9264 -0.2747
 2452TIP3    H228772   1.520  -0.062   5.182 -1.6520 -0.1551  1.2324
 2453TIP3   OH228773   1.140   5.439   6.037 -0.3061  0.1242 -0.3843
 2453TIP3    H128774   1.226   5.471   6.063 -0.6124 -0.7704  2.0015
 2453TIP3    H228775   1.079   5.506   6.068 -0.5281  0.3050 -1.2095
 2454TIP3   OH228776   4.687   3.163  13.383  0.0222 -0.0741 -0.0310
 2454TIP3    H128777   4.710   3.097  13.448 -0.5302  0.6385  0.9103
 2454TIP3    H228778   4.603   3.198  13.413 -0.4313  0.0087 -1.3369
 2455TIP3   OH228779   2.306   6.661   0.329  0.6047  0.3564 -0.2108
 2455TIP3    H128780   2.310   6.706   0.245 -0.4231  2.1413  0.6560
 2455TIP3    H228781   2.330   6.570   0.308  1.1762  0.9239 -2.2669
 2456TIP3   OH228782   3.563   4.727  13.314 -0.2268 -0.1371 -0.1012
 2456TIP3    H128783   3.596   4.781  13.243  0.3553  0.0614  0.3173
 2456TIP3    H228784   3.641   4.694  13.358 -0.5508 -1.6366 -0.5733
 2457TIP3   OH228785   1.892   0.743  13.066  0.0693 -0.5128  0.1825
 2457TIP3    H128786   1.924   0.749  13.156  2.0363 -0.2511 -0.4929
 2457TIP3    H228787   1.971   0.736  13.013 -0.9878  0.6386 -1.6402
 2458TIP3   OH228788   6.702   5.300   3.648  0.2567  1.1627  0.4277
 2458TIP3    H128789   6.691   5.241   3.722 -0.8681 -0.4917 -0.9949
 2458TIP3    H228790   6.706   5.243   3.572  0.7991  2.8513 -0.8769
 2459TIP3   OH228791   5.465   4.907   2.692  0.1075 -0.1919 -0.4704
 2459TIP3    H128792   5.509   4.856   2.760 -0.6517 -0.6773 -0.3316
 2459TIP3    H228793   5.385   4.939   2.734  0.0746  0.2620 -0.8670
 2460TIP3   OH228794   0.163   0.576  12.271  0.1118 -0.2540  0.2919
 2460TIP3    H128795   0.071   0.596  12.289  0.1756 -0.6685  1.1480
 2460TIP3    H228796   0.197   0.655  12.229 -0.4717  0.1453  0.5525
 2461TIP3   OH228797   6.618   0.817  12.966  0.2761  0.1443  0.3337
 2461TIP3    H128798   6.617   0.733  12.919  0.2766 -0.5097  1.4514
 2461TIP3    H228799   6.586   0.881  12.903  0.8119 -0.5993 -0.7269
 2462TIP3   OH228800   3.120   0.636   4.701 -0.7176 -0.7991 -0.4687
 2462TIP3    H128801   3.036   0.677   4.682 -1.0656 -1.2672  0.0475
 2462TIP3    H228802   3.104   0.542   4.694 -0.2059 -0.8909 -0.5032
 2463TIP3   OH228803   4.516   3.438   6.043  0.0883  0.4172 -0.5558
 2463TIP3    H128804   4.474   3.517   6.077 -0.0435  0.1953 -0.2003
 2463TIP3    H228805   4.605   3.465   6.024  0.3193  0.4127  0.4690
 2464TIP3   OH228806   4.120   0.079   1.717  0.6749  0.5903  0.1698
 2464TIP3    H128807   4.105   0.062   1.624  1.2144 -0.4107  0.2445
 2464TIP3    H228808   4.206   0.040   1.734 -0.0675 -0.5651  1.4142
 2465TIP3   OH228809   4.124   6.577   1.533  0.6017 -0.3333 -0.3398
 2465TIP3    H128810   4.189   6.625   1.481  0.6591  0.3010  0.2981
 2465TIP3    H228811   4.173   6.546   1.609 -0.1346  1.4885  0.9474
 2466TIP3   OH228812   2.932   3.797  14.000  0.4438 -0.6219  0.8237
 2466TIP3    H128813   2.867   3.847  13.951  0.4601  0.6863  2.0455
 2466TIP3    H228814   2.888   3.715  14.022 -0.2647 -0.3777  0.3600
 2467TIP3   OH228815   6.222   2.515   4.460  0.1751  0.4768 -0.5576
 2467TIP3    H128816   6.197   2.487   4.548  0.1334 -2.6417 -1.4503
 2467TIP3    H228817   6.165   2.589   4.441 -1.9773 -0.7061  0.9268
 2468TIP3   OH228818   1.345   2.921  15.817  0.3985  0.5069 -0.0436
 2468TIP3    H128819   1.421   2.970  15.850  0.9619 -0.0920 -0.4235
 2468TIP3    H228820   1.359   2.832  15.850 -0.3353  0.4749  0.1870
 2469TIP3   OH228821   4.971   0.631  15.956 -0.6671  0.2421  0.3019
 2469TIP3    H128822   4.973   0.549  15.907 -0.7477  1.1086 -1.2219
 2469TIP3    H228823   4.889   0.627  16.005 -0.5530 -0.6798  0.4424
 2470TIP3   OH228824   6.177   4.350   2.208  0.3964  0.6438  0.6669
 2470TIP3    H128825   6.134   4.297   2.275 -1.8905 -0.3089 -1.4115
 2470TIP3    H228826   6.251   4.296   2.179  0.1112  0.1094  0.9216
 2471TIP3   OH228827   4.417   2.813   3.114 -0.3395  0.1369  0.1438
 2471TIP3    H128828   4.412   2.785   3.022 -1.2673  1.2355 -0.1633
 2471TIP3    H228829   4.471   2.746   3.156  0.9216  0.1059 -1.4013
 2472TIP3   OH228830   1.264   2.107   5.346  0.0303  0.0953  0.0626
 2472TIP3    H128831   1.250   2.161   5.424 -1.1191 -0.0096 -0.0562
 2472TIP3    H228832   1.341   2.146   5.304 -1.5429  2.5808 -0.7682
 2473TIP3   OH228833   3.342   0.282  13.518 -0.3327  0.6183  0.0796
 2473TIP3    H128834   3.324   0.328  13.436 -3.0880  1.8094  1.2332
 2473TIP3    H228835   3.337   0.350  13.586 -1.2953 -0.8058  1.5193
 2474TIP3   OH228836   0.149   0.644   6.540  0.0020  0.1160  0.2675
 2474TIP3    H128837   0.194   0.656   6.624 -0.4550  0.4328  0.4773
 2474TIP3    H228838   0.202   0.692   6.477  0.0895  0.2828  0.4657
 2475TIP3   OH228839   2.075   1.557   6.060 -0.2563 -1.2723  0.0791
 2475TIP3    H128840   2.070   1.618   5.986 -0.2903 -1.5941 -0.1841
 2475TIP3    H228841   2.053   1.611   6.136  1.0439 -0.6298  0.0255
 2476TIP3   OH228842   2.683   6.373   3.689  0.3968  0.3561 -0.5117
 2476TIP3    H128843   2.767   6.353   3.649  0.0696 -0.2451 -0.8987
 2476TIP3    H228844   2.625   6.392   3.616  0.1823  0.7420 -0.2473
 2477TIP3   OH228845   5.809   3.533   2.616 -0.0254 -0.5057  0.1235
 2477TIP3    H128846   5.765   3.615   2.636  1.4296 -0.4221  3.6026
 2477TIP3    H228847   5.782   3.473   2.686  0.4167 -2.4527 -1.2804
 2478TIP3   OH228848   1.466   3.580   6.430  0.2846 -0.6113 -0.2259
 2478TIP3    H128849   1.423   3.661   6.457 -1.4127 -0.6323 -2.5602
 2478TIP3    H228850   1.552   3.582   6.474 -0.1933  1.8146  0.7384
 2479TIP3   OH228851   0.427   5.325  16.140  0.0599  0.2978  0.1439
 2479TIP3    H128852   0.381   5.400  16.176  0.4115  1.1299 -1.0753
 2479TIP3    H228853   0.389   5.312  16.053 -2.3200 -3.0103  1.4635
 2480TIP3   OH228854   6.052   1.258   4.621 -0.0501  0.6816 -0.1159
 2480TIP3    H128855   5.990   1.186   4.631  1.1090 -0.2346  0.7305
 2480TIP3    H228856   6.094   1.243   4.536 -1.5464  1.8034 -1.1165
 2481TIP3   OH228857   3.974   6.717  17.327  0.1978 -0.2965 -0.0921
 2481TIP3    H128858   4.018   6.802  17.323  0.3230 -0.4019 -1.4872
 2481TIP3    H228859   4.014   6.673  17.401  1.1663  0.3127 -0.2368
 2482TIP3   OH228860   1.761   6.230  14.212  0.4862 -0.3592 -0.4978
 2482TIP3    H128861   1.800   6.275  14.138  0.7051  0.9762  0.4086
 2482TIP3    H228862   1.680   6.278  14.230  0.9728  0.0342  0.7981
 2483TIP3   OH228863   5.927   1.580  13.884  0.1613 -0.6643 -0.4778
 2483TIP3    H128864   5.849   1.619  13.923  0.0534 -1.6367  0.3068
 2483TIP3    H228865   5.912   1.485  13.888  1.3159 -0.8620 -0.4465
 2484TIP3   OH228866   2.287   3.044  16.019  0.2415 -0.5812  0.1675
 2484TIP3    H128867   2.281   3.114  16.084 -2.0728  0.0088 -0.6010
 2484TIP3    H228868   2.369   3.062  15.972 -0.4690  1.8880 -0.2587
 2485TIP3   OH228869   1.908   0.929  14.281  0.4307 -0.0739 -0.0833
 2485TIP3    H128870   1.914   0.902  14.189 -0.4878 -2.2721  0.4310
 2485TIP3    H228871   1.817   0.960  14.290  1.1058  2.1990 -0.3482
 2486TIP3   OH228872   1.751   6.227  16.049  1.0739 -0.3710  0.8175
 2486TIP3    H128873   1.730   6.251  16.140  0.8296  0.1050  0.6382
 2486TIP3    H228874   1.835   6.268  16.032  0.3471  0.9500  0.2924
 2487TIP3   OH228875   1.253   3.903  13.527 -0.3145 -0.2240 -0.3798
 2487TIP3    H128876   1.218   3.972  13.583  0.0235  1.8242 -2.5339
 2487TIP3    H228877   1.179   3.876  13.472  0.0802  0.0010 -1.0313
 2488TIP3   OH228878   3.740   6.733  12.523 -0.0935  0.4748  0.6508
 2488TIP3    H128879   3.684   6.678  12.469  0.1057  2.2030 -1.4452
 2488TIP3    H228880   3.690   6.747  12.604 -1.3049 -0.5092  0.0987
 2489TIP3   OH228881   4.398   3.548  14.607  0.7060 -0.1142  0.0334
 2489TIP3    H128882   4.447   3.630  14.618  0.0506  0.1907  0.6982
 2489TIP3    H228883   4.370   3.549  14.516  0.5376  0.4894  0.0919
 2490TIP3   OH228884   0.963   1.798   5.965  0.3475  0.4717  0.3526
 2490TIP3    H128885   0.868   1.794   5.979 -0.2378  3.8096 -1.5410
 2490TIP3    H228886   0.997   1.842   6.043  0.2315 -0.0259  0.6865
 2491TIP3   OH228887   3.800   3.927  12.551  0.3878 -0.2810 -0.5373
 2491TIP3    H128888   3.750   3.945  12.631  1.0604  0.5129 -0.2733
 2491TIP3    H228889   3.875   3.875  12.581 -0.1670 -1.3027 -0.9000
 2492TIP3   OH228890   6.353   2.732   0.165  0.5104 -0.0321 -0.4519
 2492TIP3    H128891   6.387   2.782   0.239  1.2654  0.1602 -0.9143
 2492TIP3    H228892   6.421   2.666   0.146  0.6272  0.3282 -1.3653
 2493TIP3   OH228893   6.118   5.224   2.855 -0.1311 -0.0935 -0.1724
 2493TIP3    H128894   6.049   5.230   2.788 -2.0534  4.6282  1.7927
 2493TIP3    H228895   6.197   5.251   2.809 -0.4926 -1.0565 -1.4351
 2494TIP3   OH228896   1.612   5.701   5.974  0.0979 -0.0064 -0.0057
 2494TIP3    H128897   1.663   5.757   5.915  0.1704  0.0171  0.0782
 2494TIP3    H228898   1.625   5.740   6.061 -1.6089  1.1330 -0.2270
 2495TIP3   OH228899   5.646   3.223  15.395  0.2494 -0.0894  0.1404
 2495TIP3    H128900   5.725   3.173  15.417  1.3016  0.7438 -1.4873
 2495TIP3    H228901   5.616   3.259  15.478  1.2571 -0.8631  0.8704
 2496TIP3   OH228902   0.429   4.758  14.670 -0.2968  0.3631  0.3149
 2496TIP3    H128903   0.452   4.851  14.660  2.0345 -0.1857 -0.0073
 2496TIP3    H228904   0.486   4.713  14.608 -0.6680 -1.3770  1.1954
 2497TIP3   OH228905   3.120   3.969  13.332  0.0465  0.6507  0.1484
 2497TIP3    H128906   3.179   3.906  13.289 -0.3697  0.8966 -0.8175
 2497TIP3    H228907   3.033   3.947  13.299 -0.3149  0.7193  1.0449
 2498TIP3   OH228908   4.306   3.271   3.653  0.7028 -0.6073 -0.3340
 2498TIP3    H128909   4.230   3.235   3.609 -1.3092  1.4016  1.2654
 2498TIP3    H228910   4.313   3.221   3.735 -0.2253  0.5366  0.4755
 2499TIP3   OH228911   3.186   0.567   2.769 -0.1827 -0.2901 -0.1273
 2499TIP3    H128912   3.121   0.584   2.701  0.6763 -2.9048 -1.7656
 2499TIP3    H228913   3.135   0.553   2.849 -1.5022 -0.5897 -1.0025
 2500TIP3   OH228914   4.680   5.607  12.591 -0.2177 -0.2018 -0.1297
 2500TIP3    H128915   4.774   5.616  12.605 -0.3459 -0.2127  0.7562
 2500TIP3    H228916   4.664   5.513  12.597 -0.7045 -0.0058  2.5945
 2501TIP3   OH228917   3.605   4.939   5.313 -0.1677  0.1858 -0.2376
 2501TIP3    H128918   3.559   5.020   5.291  2.5821  1.8949 -0.1680
 2501TIP3    H228919   3.612   4.893   5.230  0.7828  1.4671 -0.9091
 2502TIP3   OH228920   3.590   5.720  16.828  0.4235  0.4598 -0.0113
 2502TIP3    H128921   3.501   5.741  16.801 -0.0465 -0.8532  0.4190
 2502TIP3    H228922   3.637   5.707  16.746 -0.3141 -0.8567 -0.2527
 2503TIP3   OH228923   2.289   4.058   0.746  0.7582  0.0790 -0.8112
 2503TIP3    H128924   2.225   4.128   0.754  0.2323 -0.3540 -1.1946
 2503TIP3    H228925   2.344   4.067   0.824  1.0863  1.2941 -1.1589
 2504TIP3   OH228926   4.559   3.651   2.349 -0.3257 -1.1048 -0.0430
 2504TIP3    H128927   4.481   3.606   2.379  0.5021 -0.5273  3.3518
 2504TIP3    H228928   4.629   3.585   2.355 -0.2008 -1.1132 -1.3043
 2505TIP3   OH228929   0.210   4.116  15.397 -0.1253  0.0238  0.5862
 2505TIP3    H128930   0.266   4.194  15.403 -1.1533  0.8513 -0.1852
 2505TIP3    H228931   0.139   4.133  15.460 -0.9599  0.2458 -0.3972
 2506TIP3   OH228932   3.604   3.662   3.041 -0.1007  0.1596  0.1615
 2506TIP3    H128933   3.582   3.751   3.012  0.5788  0.2913  0.0452
 2506TIP3    H228934   3.670   3.675   3.109 -0.6235 -0.2183  0.7462
 2507TIP3   OH228935   2.310   1.780  13.423 -0.1005  0.0592  0.4304
 2507TIP3    H128936   2.240   1.732  13.467 -0.5756 -1.5096 -1.8536
 2507TIP3    H228937   2.384   1.719  13.423  0.3516  0.6067  0.3351
 2508TIP3   OH228938   5.500   4.099  12.927 -0.3237  0.1657  0.5451
 2508TIP3    H128939   5.581   4.148  12.941 -0.6622  0.7660  0.4144
 2508TIP3    H228940   5.506   4.025  12.988 -0.2650  0.9099  1.4614
 2509TIP3   OH228941   0.251   3.498  17.090  0.0544  0.3326 -0.0024
 2509TIP3    H128942   0.320   3.478  17.026  0.1515  1.3962 -0.2630
 2509TIP3    H228943   0.252   3.594  17.095 -1.5092  0.3708 -0.1100
 2510TIP3   OH228944   5.181   1.850   3.000 -0.2100  0.3803  0.3474
 2510TIP3    H128945   5.159   1.767   2.957  1.7476 -0.5219  0.9887
 2510TIP3    H228946   5.216   1.905   2.931 -0.3268  0.2147  0.1548
 2511TIP3   OH228947   4.774   1.678   6.086 -0.4125 -0.2749  0.4406
 2511TIP3    H128948   4.777   1.637   6.000  0.2448  1.9144 -0.6412
 2511TIP3    H228949   4.697   1.735   6.083  0.5018  1.0145  0.7049
 2512TIP3   OH228950   1.084   1.306  15.280 -0.1254  0.1018 -0.3196
 2512TIP3    H128951   1.051   1.343  15.198  1.4463  0.1324 -0.9678
 2512TIP3    H228952   1.018   1.240  15.305 -0.2972 -0.3823 -1.9559
 2513TIP3   OH228953   4.054   1.349  12.431  0.7905 -0.3157 -0.3610
 2513TIP3    H128954   3.969   1.330  12.390 -0.0112 -1.9006  1.8645
 2513TIP3    H228955   4.098   1.406  12.368 -2.6673  2.2658 -0.8033
 2514TIP3   OH228956   0.300   3.119  12.209  0.5721  0.1491 -0.2304
 2514TIP3    H128957   0.365   3.049  12.218  0.1332 -0.2567 -0.2337
 2514TIP3    H228958   0.232   3.098  12.273  0.7396  0.9127  0.2235
 2515TIP3   OH228959   0.994   1.494  15.068 -0.0183 -0.7886 -0.5999
 2515TIP3    H128960   0.962   1.583  15.054  0.6612 -0.5221 -0.5143
 2515TIP3    H228961   0.980   1.450  14.985  0.7548 -0.2403 -1.0382
 2516TIP3   OH228962   4.003   6.184   2.328 -0.7767  0.1914 -0.2150
 2516TIP3    H128963   4.070   6.156   2.266  1.4737  0.6615  1.8410
 2516TIP3    H228964   3.969   6.102   2.365 -1.7784 -0.0683 -1.6376
 2517TIP3   OH228965   2.576   4.410  14.211 -0.9124 -0.1816 -0.0970
 2517TIP3    H128966   2.503   4.405  14.148 -0.3125  1.7506 -1.0430
 2517TIP3    H228967   2.641   4.349  14.178 -0.3370  1.2639 -1.8278
 2518TIP3   OH228968   2.320   5.671  16.391 -0.1672  0.0016 -0.4082
 2518TIP3    H128969   2.304   5.692  16.299 -0.8041 -0.2002 -0.3437
 2518TIP3    H228970   2.415   5.667  16.398 -0.1190 -0.3330 -1.1395
 2519TIP3   OH228971   1.653   6.706   1.826  0.2344 -0.1753 -0.6721
 2519TIP3    H128972   1.579   6.646   1.813  0.1312  0.0541 -1.1892
 2519TIP3    H228973   1.685   6.686   1.914 -1.1203  0.4451  0.0020
 2520TIP3   OH228974   4.783   6.186  17.134  0.1882 -0.9369 -0.5422
 2520TIP3    H128975   4.814   6.220  17.050  1.3319 -0.6502 -0.0262
 2520TIP3    H228976   4.863   6.160  17.180 -0.0961  1.7084  1.6861
 2521TIP3   OH228977   3.421   2.854  12.049  0.4414  0.5794 -0.1829
 2521TIP3    H128978   3.355   2.795  12.085  0.9432  0.3797  0.4311
 2521TIP3    H228979   3.456   2.900  12.126  1.9222 -0.2409 -0.3315
 2522TIP3   OH228980   3.602   4.379  17.079  0.7332 -0.7128 -0.7702
 2522TIP3    H128981   3.525   4.340  17.037  0.6520  1.0413 -2.3586
 2522TIP3    H228982   3.566   4.434  17.148  0.4042  1.0108 -2.2404
 2523TIP3   OH228983   5.534   5.625  15.735 -0.1073  0.2972 -0.1758
 2523TIP3    H128984   5.467   5.568  15.697  1.9092 -2.9734  0.7350
 2523TIP3    H228985   5.573   5.670  15.659 -1.1413 -0.2736 -1.0710
 2524TIP3   OH228986   5.120   0.065  13.173 -0.1841 -0.2755  0.1931
 2524TIP3    H128987   5.069   0.045  13.094 -0.7593  0.1316  0.4577
 2524TIP3    H228988   5.135  -0.021  13.213 -0.1133 -0.4596 -0.2143
 2525TIP3   OH228989   2.168   6.466  11.753  0.7194 -0.3831 -0.4864
 2525TIP3    H128990   2.082   6.435  11.723  0.9566 -0.8921 -0.6481
 2525TIP3    H228991   2.186   6.414  11.831  1.3500 -1.0337 -1.0531
 2526TIP3   OH228992   5.183   1.865  11.342 -0.1644  0.5476  1.0616
 2526TIP3    H128993   5.091   1.872  11.316 -0.2466  0.6231  1.3649
 2526TIP3    H228994   5.184   1.894  11.434  0.0820  0.0626  1.2174
 2527TIP3   OH228995   0.261   4.327   1.248  0.3028 -0.4675  0.0809
 2527TIP3    H128996   0.233   4.266   1.317  0.7949  0.6356  1.3032
 2527TIP3    H228997   0.238   4.283   1.166 -3.0245 -0.5651  0.9430
 2528TIP3   OH228998   3.081   5.595  16.778 -0.1380 -0.3635  0.3062
 2528TIP3    H128999   3.096   5.610  16.871 -3.2379  0.8590  0.7410
 2528TIP3    H229000   3.019   5.521  16.775 -0.4295 -0.1031 -0.7494
 2529TIP3   OH229001   6.745   6.119   3.638  0.2175  0.1055 -0.2547
 2529TIP3    H129002   6.731   6.047   3.578 -0.4812  1.3934 -1.7068
 2529TIP3    H229003   6.698   6.193   3.599  1.1260  1.4310  1.0218
 2530TIP3   OH229004   0.842   4.172   7.163 -0.3947  0.4157  0.5352
 2530TIP3    H129005   0.815   4.159   7.072 -0.4353  0.9494  0.4677
 2530TIP3    H229006   0.762   4.163   7.214 -0.0708 -1.7652  0.7161
 2531TIP3   OH229007   1.181   2.078   3.031 -0.4114 -0.0347  0.2532
 2531TIP3    H129008   1.176   2.026   2.950  1.6238  1.7184 -1.1132
 2531TIP3    H229009   1.191   2.013   3.100  0.5267 -1.5452 -1.2187
 2532TIP3   OH229010   4.765   0.261   1.225  0.1350 -0.7462  0.0941
 2532TIP3    H129011   4.796   0.349   1.244  1.6625 -1.0410 -0.8470
 2532TIP3    H229012   4.688   0.274   1.169  1.5181  0.0189 -1.7139
 2533TIP3   OH229013   4.724   4.694   4.147  0.0683 -0.1690  0.0527
 2533TIP3    H129014   4.778   4.704   4.226 -1.5654  0.4146  1.1427
 2533TIP3    H229015   4.784   4.656   4.082  1.2492 -1.5079  1.8144
 2534TIP3   OH229016   2.402   3.678   6.539 -0.0568  0.5310  0.0833
 2534TIP3    H129017   2.384   3.597   6.587 -0.3464  0.4184 -0.2135
 2534TIP3    H229018   2.349   3.744   6.583 -1.5764  0.1179 -1.0501
 2535TIP3   OH229019   3.596   2.553   3.257  0.5210 -0.2169  0.1901
 2535TIP3    H129020   3.537   2.617   3.299  0.2062 -0.6283  0.3805
 2535TIP3    H229021   3.543   2.474   3.250 -0.2830  0.4561 -3.1226
 2536TIP3   OH229022   3.216   6.697   6.320 -0.3024  0.1497  0.1615
 2536TIP3    H129023   3.280   6.769   6.318 -0.9517  0.8559  2.1369
 2536TIP3    H229024   3.134   6.738   6.293 -0.5339 -0.0023  0.6310
 2537TIP3   OH229025   2.250   6.151   3.896 -0.5543  0.0391  0.5791
 2537TIP3    H129026   2.208   6.081   3.946 -0.7786  1.1038  1.9537
 2537TIP3    H229027   2.342   6.145   3.918 -0.4834 -0.1758  0.2354
 2538TIP3   OH229028   0.958   4.294  13.363  0.2899 -0.2499  0.7986
 2538TIP3    H129029   0.940   4.354  13.290 -1.3467 -0.4665  0.9870
 2538TIP3    H229030   0.947   4.207  13.325 -2.3198 -0.3746  1.6206
 2539TIP3   OH229031   5.437   6.742  14.420 -0.0841 -0.3519 -0.0964
 2539TIP3    H129032   5.367   6.690  14.379 -0.4179  2.0009 -2.8805
 2539TIP3    H229033   5.394   6.823  14.447  1.2014  0.3508 -0.0816
 2540TIP3   OH229034   2.217   2.025   6.475  0.4912 -0.0188 -0.3211
 2540TIP3    H129035   2.304   2.000   6.442 -0.0229  0.2115 -1.9469
 2540TIP3    H229036   2.230   2.113   6.511  1.0257 -0.1726 -0.1221
 2541TIP3   OH229037   4.264   0.398   1.048  0.3680 -0.6341 -0.1493
 2541TIP3    H129038   4.191   0.454   1.075  0.5322 -0.5200  0.0581
 2541TIP3    H229039   4.275   0.417   0.954  0.6275 -0.0903 -0.0098
 2542TIP3   OH229040   0.172   4.255   4.359  0.3353 -0.0978  0.0138
 2542TIP3    H129041   0.211   4.174   4.391  3.6974  1.7191  1.0400
 2542TIP3    H229042   0.185   4.253   4.264 -1.9053 -1.7145 -0.3628
 2543TIP3   OH229043   3.676   6.243  15.709  0.1152 -0.3526  0.1408
 2543TIP3    H129044   3.718   6.287  15.635 -0.2927 -2.3602 -1.3729
 2543TIP3    H229045   3.583   6.242  15.688 -0.4376  1.5837  2.1307
 2544TIP3   OH229046   6.230   2.583  15.351 -0.4941  0.7644 -0.3514
 2544TIP3    H129047   6.185   2.575  15.435  0.9187  0.6792  0.4265
 2544TIP3    H229048   6.161   2.606  15.289 -2.2210 -2.7099  0.0886
 2545TIP3   OH229049   3.080   3.607  16.425 -0.2122 -0.2428 -0.2695
 2545TIP3    H129050   3.087   3.703  16.431 -1.4249 -0.2135  1.1159
 2545TIP3    H229051   3.019   3.593  16.353 -1.5530  0.1097  0.7687
 2546TIP3   OH229052   2.902   1.510   0.994 -0.6681  0.4003  0.1166
 2546TIP3    H129053   2.812   1.541   1.002 -1.8652 -1.9352 -2.4643
 2546TIP3    H229054   2.945   1.574   0.938 -0.5894  1.6907  1.6131
 2547TIP3   OH229055   3.924   3.942   4.675  0.6140  0.0928  0.5394
 2547TIP3    H129056   3.854   3.891   4.715  0.8790  0.4078  1.4329
 2547TIP3    H229057   3.880   4.017   4.635  0.3363 -0.2723  0.1555
 2548TIP3   OH229058   3.270   1.601  14.272 -0.3248  0.0795  0.3972
 2548TIP3    H129059   3.264   1.696  14.276  0.1043  0.1670 -0.6176
 2548TIP3    H229060   3.254   1.580  14.180 -0.9054 -0.8730  0.7034
 2549TIP3   OH229061   6.422   1.506   2.234  0.1107 -0.5740 -0.1271
 2549TIP3    H129062   6.397   1.547   2.316  0.6223 -1.3981  0.4563
 2549TIP3    H229063   6.440   1.580   2.175  0.5253  0.0355  0.7373
 2550TIP3   OH229064   6.414   3.146   4.967 -0.2245  0.3917 -0.1701
 2550TIP3    H129065   6.352   3.219   4.973 -1.1358 -0.3252 -0.5294
 2550TIP3    H229066   6.401   3.096   5.048 -1.4458 -0.7468 -1.0118
 2551TIP3   OH229067   5.530   4.842   4.703  0.9778  0.1069 -0.2794
 2551TIP3    H129068   5.517   4.872   4.793  1.8552 -0.9033  0.2053
 2551TIP3    H229069   5.567   4.754   4.711 -0.4355 -0.6831 -1.6415
 2552TIP3   OH229070   6.715   4.503   2.884 -0.7393 -0.5015 -0.8174
 2552TIP3    H129071   6.721   4.598   2.895 -1.4588 -0.3695 -1.4842
 2552TIP3    H229072   6.777   4.483   2.813 -0.0473 -0.6398 -0.1893
 2553TIP3   OH229073   2.195   2.333   4.114  0.9461  0.4771  0.4962
 2553TIP3    H129074   2.136   2.409   4.110 -0.4777 -0.5591  1.1736
 2553TIP3    H229075   2.274   2.368   4.155  0.5455  1.7317  0.2733
 2554TIP3   OH229076   2.737   6.014  17.133 -0.0002 -0.0516  0.4640
 2554TIP3    H129077   2.812   5.972  17.174  0.2780  0.6166  0.6511
 2554TIP3    H229078   2.756   6.012  17.039  0.5925  0.7465  0.5585
 2555TIP3   OH229079   1.967   2.608  12.943  0.0144 -0.3245 -0.5247
 2555TIP3    H129080   2.028   2.620  13.017  0.8641 -1.5575 -1.0033
 2555TIP3    H229081   1.994   2.674  12.880 -0.5151  0.5307  0.1189
 2556TIP3   OH229082   0.013   6.696  11.883  0.0034  0.7127  0.2358
 2556TIP3    H129083   0.015   6.606  11.915 -0.1232  1.4718  2.5754
 2556TIP3    H229084   0.093   6.705  11.832  1.5875  0.0528  2.4218
 2557TIP3   OH229085   1.491   5.268  12.528 -0.2189 -0.2872  0.1112
 2557TIP3    H129086   1.586   5.268  12.516 -0.4393  0.6892 -2.2497
 2557TIP3    H229087   1.476   5.320  12.607  1.1897 -0.4322  0.5005
 2558TIP3   OH229088   3.073   3.911  13.602  0.0579 -0.0024  0.0791
 2558TIP3    H129089   3.095   3.918  13.509  0.1445 -0.2494  0.0790
 2558TIP3    H229090   3.007   3.842  13.605  0.8531 -0.7693  0.3249
 2559TIP3   OH229091   1.945   6.517  17.343  0.1676 -0.2205 -0.3084
 2559TIP3    H129092   1.910   6.436  17.306 -1.5085  0.3768 -0.1339
 2559TIP3    H229093   1.926   6.511  17.437  0.7589  0.0321 -0.1702
 2560TIP3   OH229094   3.181   0.977  16.974 -0.2912  0.5249 -0.5270
 2560TIP3    H129095   3.255   0.917  16.977 -0.3967  0.3772 -0.8594
 2560TIP3    H229096   3.221   1.064  16.969 -0.1435  0.4373 -0.8461
 2561TIP3   OH229097   5.342   2.468  10.898 -0.1163  0.4876 -0.2636
 2561TIP3    H129098   5.317   2.434  10.812  0.7196 -0.5494 -0.1282
 2561TIP3    H229099   5.364   2.560  10.883 -0.6144  0.4835 -1.0286
 2562TIP3   OH229100   6.242   3.018  13.816 -0.2209 -0.2247  0.3138
 2562TIP3    H129101   6.159   3.065  13.820  1.0804  2.1480  2.3334
 2562TIP3    H229102   6.273   3.016  13.907  2.2576 -0.3500 -0.4472
 2563TIP3   OH229103   6.596   5.597   6.291 -0.3591  0.0864 -0.3462
 2563TIP3    H129104   6.508   5.619   6.262  0.1794 -0.9927 -3.0660
 2563TIP3    H229105   6.590   5.506   6.321 -1.0487  1.3285  4.0810
 2564TIP3   OH229106   1.794   0.830  14.932  0.7603 -0.0312  0.3733
 2564TIP3    H129107   1.835   0.877  14.860 -0.4716  0.1676 -0.2203
 2564TIP3    H229108   1.867   0.799  14.985  1.6518  0.7393 -0.3750
 2565TIP3   OH229109   1.607   4.201  12.939 -0.3896  1.2268 -0.0649
 2565TIP3    H129110   1.660   4.211  12.860  0.2705 -1.0042  0.0226
 2565TIP3    H229111   1.665   4.227  13.010  0.2154 -0.0532 -0.0678
 2566TIP3   OH229112   6.407   3.508  17.364 -0.1635 -0.5199  0.2645
 2566TIP3    H129113   6.491   3.480  17.400  0.0862  1.3787  1.2959
 2566TIP3    H229114   6.387   3.589  17.411 -1.7710 -0.0519 -1.1345
 2567TIP3   OH229115   4.155   3.901   1.678 -0.1132  0.2639  0.4749
 2567TIP3    H129116   4.094   3.845   1.631 -0.5488  0.9676  0.1805
 2567TIP3    H229117   4.140   3.881   1.771  0.7960 -1.1763  0.3407
 2568TIP3   OH229118   2.428   2.559  14.760 -0.2086  0.0145 -0.9941
 2568TIP3    H129119   2.520   2.538  14.750 -0.1400  0.5482 -1.5847
 2568TIP3    H229120   2.421   2.650  14.731 -0.7418  0.3232  0.0286
 2569TIP3   OH229121   1.126   1.182   0.900 -0.1743  0.7009 -0.1599
 2569TIP3    H129122   1.058   1.138   0.951  1.3956 -2.2699 -0.3645
 2569TIP3    H229123   1.172   1.237   0.964 -0.5531 -0.0826  0.8085
 2570TIP3   OH229124   1.309   6.582  13.290  0.2850 -0.0543 -0.2518
 2570TIP3    H129125   1.386   6.583  13.233 -0.7326  1.3969 -1.7067
 2570TIP3    H229126   1.235   6.578  13.229 -0.8722  1.8729  0.9283
 2571TIP3   OH229127   3.718   0.412  15.702 -0.1955 -0.1552 -0.1862
 2571TIP3    H129128   3.720   0.320  15.678  0.3234 -0.4747  1.0133
 2571TIP3    H229129   3.801   0.427  15.747 -1.3941  0.1709  2.1036
 2572TIP3   OH229130   5.852   0.177  16.938  0.0007  0.2042 -0.2243
 2572TIP3    H129131   5.826   0.086  16.924  2.1757 -0.2813 -1.5969
 2572TIP3    H229132   5.942   0.181  16.907  1.2298  1.9985  3.0444
 2573TIP3   OH229133   5.361   6.206   2.315  0.7891  0.4731  0.1434
 2573TIP3    H129134   5.339   6.285   2.267  0.9964 -0.0062 -0.7740
 2573TIP3    H229135   5.300   6.140   2.281  1.7766 -0.1799 -0.4031
 2574TIP3   OH229136   5.252   2.398  11.145 -0.0682 -0.7826  0.4917
 2574TIP3    H129137   5.290   2.310  11.144 -1.0310 -1.2353  1.2014
 2574TIP3    H229138   5.279   2.437  11.062  0.1319 -1.8618  0.0327
 2575TIP3   OH229139   5.471   3.593  12.387 -0.3336 -0.0016  0.1023
 2575TIP3    H129140   5.529   3.525  12.418  0.2658  0.8453  0.8722
 2575TIP3    H229141   5.529   3.660  12.351 -0.8889  0.3162 -0.2236
 2576TIP3   OH229142   2.262   4.867   1.886  0.3630 -0.2606  0.1888
 2576TIP3    H129143   2.240   4.910   1.968  0.0207  0.9221 -0.5071
 2576TIP3    H229144   2.234   4.928   1.818 -0.5501 -1.7584 -0.8482
 2577TIP3   OH229145   1.229   2.735  13.288 -0.3839  0.1083  0.2590
 2577TIP3    H129146   1.203   2.731  13.196 -3.2516 -2.4334  0.9796
 2577TIP3    H229147   1.209   2.824  13.316 -1.6106  0.2858 -1.0932
 2578TIP3   OH229148   0.799   5.760  14.882  0.0663 -0.3373  0.2800
 2578TIP3    H129149   0.811   5.687  14.942 -1.6632 -0.0532  1.0304
 2578TIP3    H229150   0.855   5.829  14.917  0.1294 -0.6266  0.7605
 2579TIP3   OH229151   6.701   1.352   2.469 -0.5345  0.0683  0.8466
 2579TIP3    H129152   6.623   1.403   2.492  1.0992  2.9008  0.6002
 2579TIP3    H229153   6.755   1.355   2.548 -0.2241 -0.9977  0.6873
 2580TIP3   OH229154   4.777   3.463  13.809 -0.5501 -0.0442  0.4465
 2580TIP3    H129155   4.728   3.386  13.836 -0.2111 -0.4793 -0.1537
 2580TIP3    H229156   4.816   3.496  13.890  2.0090 -2.4113  0.3256
 2581TIP3   OH229157   5.143   6.263  16.927 -0.4301  0.0029  0.1582
 2581TIP3    H129158   5.050   6.242  16.924 -0.5065  0.3786 -0.2479
 2581TIP3    H229159   5.152   6.341  16.871 -0.1625  1.0526  1.5946
 2582TIP3   OH229160   2.577   5.301   3.510 -0.1024 -0.1456 -0.1588
 2582TIP3    H129161   2.577   5.213   3.547 -1.3489 -0.0584  0.1001
 2582TIP3    H229162   2.656   5.342   3.547  0.4573 -1.1135 -0.2265
 2583TIP3   OH229163   0.993   5.342  16.736  0.0116 -0.2197  0.5147
 2583TIP3    H129164   0.970   5.433  16.753 -0.7288 -0.9041  3.7978
 2583TIP3    H229165   0.909   5.298  16.720  0.0471 -0.7737  1.7132
 2584TIP3   OH229166   2.741   4.802  13.332 -0.3690  0.2704  0.0311
 2584TIP3    H129167   2.652   4.767  13.330 -0.5589  0.7264 -1.3632
 2584TIP3    H229168   2.797   4.727  13.348 -0.8844 -0.4071 -1.2050
 2585TIP3   OH229169   2.951   4.457   5.086  0.7984 -0.4594  0.0534
 2585TIP3    H129170   2.895   4.380   5.076 -0.7677  0.6362 -0.0428
 2585TIP3    H229171   2.930   4.512   5.011 -0.1604  1.2536  1.4886
 2586TIP3   OH229172   6.228   1.203   2.974  0.0108  0.3984  0.2339
 2586TIP3    H129173   6.206   1.195   3.066 -0.2947  2.5661  0.3944
 2586TIP3    H229174   6.158   1.155   2.928 -0.5297  0.3650  1.0774
 2587TIP3   OH229175   0.556   5.966  17.042 -0.2620 -0.7944  0.3996
 2587TIP3    H129176   0.501   5.888  17.037  0.2111 -1.2464  1.7112
 2587TIP3    H229177   0.520   6.016  17.115 -0.9961  0.5977 -0.8697
 2588TIP3   OH229178   3.323   0.452   2.495  0.1379 -0.1907  0.2201
 2588TIP3    H129179   3.365   0.380   2.542  0.2778 -0.3037 -0.0761
 2588TIP3    H229180   3.340   0.529   2.549  1.3905 -0.1000 -0.2574
 2589TIP3   OH229181   2.878   3.699  12.114 -1.0680 -0.6226 -0.1757
 2589TIP3    H129182   2.860   3.726  12.024 -0.8691 -1.0001 -0.3292
 2589TIP3    H229183   2.900   3.781  12.158 -1.5256 -0.3868 -0.3785
 2590TIP3   OH229184   3.033   3.184   5.914  0.1076 -0.3487 -0.5072
 2590TIP3    H129185   2.941   3.207   5.903  0.0008  0.8821  2.3226
 2590TIP3    H229186   3.032   3.091   5.938 -0.6672  0.2434  1.9843
 2591TIP3   OH229187   2.944   3.623  15.311  0.0846 -0.4027 -0.1894
 2591TIP3    H129188   2.855   3.589  15.317  0.3679 -1.1483 -0.1621
 2591TIP3    H229189   2.933   3.712  15.277 -0.8830  0.6167  2.5623
 2592TIP3   OH229190   2.333   3.117   2.117 -0.0544  0.1832  0.2973
 2592TIP3    H129191   2.407   3.173   2.095  0.0132  0.3055  0.8266
 2592TIP3    H229192   2.259   3.177   2.130 -0.1536  0.0935  0.1476
 2593TIP3   OH229193   4.329   6.335  15.083  0.0291 -0.7292  0.5750
 2593TIP3    H129194   4.386   6.289  15.022 -2.0441 -1.1032 -1.1947
 2593TIP3    H229195   4.359   6.306  15.170  1.8403 -1.6535 -0.3019
 2594TIP3   OH229196   2.619   2.632  14.000 -0.0510  0.1689 -0.2194
 2594TIP3    H129197   2.667   2.641  13.917  2.0343 -0.0313  0.9073
 2594TIP3    H229198   2.558   2.706  13.999  1.9831  1.9583 -0.6611
 2595TIP3   OH229199   2.169   6.014   5.557  0.1830  0.4470  0.5298
 2595TIP3    H129200   2.243   5.953   5.549 -0.5043 -0.2590 -0.8142
 2595TIP3    H229201   2.210   6.098   5.578  1.4174  0.1559 -0.5755
 2596TIP3   OH229202   2.509   5.963  16.143  0.6297  0.1858 -0.2074
 2596TIP3    H129203   2.455   6.030  16.101  1.2681  0.4153 -0.6795
 2596TIP3    H229204   2.472   5.880  16.113 -0.5020  0.2969  0.8073
 2597TIP3   OH229205   2.381   6.020   1.057 -0.9419  0.7011  0.5936
 2597TIP3    H129206   2.329   6.094   1.086 -0.9403  0.7430  0.4908
 2597TIP3    H229207   2.342   5.994   0.973  0.4711  2.0477 -0.5429
 2598TIP3   OH229208   3.902   2.309  14.708  0.0705 -0.1215 -0.0204
 2598TIP3    H129209   3.948   2.276  14.631 -0.3449  1.6976 -1.1168
 2598TIP3    H229210   3.949   2.389  14.732 -0.4494 -0.0887  0.9650
 2599TIP3   OH229211   2.121   3.082  12.513  0.3047  0.1657 -0.3080
 2599TIP3    H129212   2.201   3.121  12.476  0.8173 -2.5993 -2.4845
 2599TIP3    H229213   2.127   2.989  12.489 -3.5082 -0.1845 -0.4593
 2600TIP3   OH229214   3.613   5.997  13.529 -0.2547  0.4803  0.0671
 2600TIP3    H129215   3.606   5.976  13.622  1.8794 -0.3058  0.1185
 2600TIP3    H229216   3.617   6.093  13.527  1.7612  0.4751  1.0423
 2601TIP3   OH229217   0.981   5.490   5.768  0.3011 -0.1592 -0.1054
 2601TIP3    H129218   1.061   5.529   5.803  1.3445 -2.5647  0.3599
 2601TIP3    H229219   1.001   5.470   5.677  0.6151 -1.6576  0.2718
 2602TIP3   OH229220   2.286   4.941   0.234  0.0601  0.4603 -0.1424
 2602TIP3    H129221   2.325   4.959   0.319 -0.4222 -2.8954  0.9052
 2602TIP3    H229222   2.357   4.958   0.171  1.3223  0.2616  1.1715
 2603TIP3   OH229223   0.000   4.215  10.945 -0.1737 -0.0767  0.6810
 2603TIP3    H129224   0.062   4.142  10.936  1.1450  1.1671 -1.3389
 2603TIP3    H229225  -0.070   4.181  11.001  0.0288 -3.1041 -0.7101
 2604TIP3   OH229226   3.937   1.223   3.553  0.0613  0.8771 -0.0375
 2604TIP3    H129227   4.024   1.262   3.565  0.1010  0.6423  0.4467
 2604TIP3    H229228   3.877   1.298   3.554  0.4198  1.2443 -2.3242
 2605TIP3   OH229229   5.873   4.949   1.938  0.0495  0.2442  0.1807
 2605TIP3    H129230   5.939   5.018   1.948 -0.3016  0.9108 -1.6199
 2605TIP3    H229231   5.914   4.887   1.877  1.3938 -2.5817  3.6428
 2606TIP3   OH229232   1.596   3.626  17.145 -0.3913  0.5452 -0.3990
 2606TIP3    H129233   1.582   3.678  17.066 -0.6241 -0.6908 -1.2038
 2606TIP3    H229234   1.617   3.538  17.113  1.5933  0.4885  0.8915
 2607TIP3   OH229235   4.783   0.384   2.430 -0.9833 -0.3328  0.4786
 2607TIP3    H129236   4.833   0.410   2.507 -3.5154 -0.2831  2.2475
 2607TIP3    H229237   4.714   0.450   2.424 -1.7302 -1.1962 -0.9455
 2608TIP3   OH229238   4.951   0.144  13.457 -0.6829 -0.1769 -0.5463
 2608TIP3    H129239   4.879   0.199  13.489 -0.6629 -0.0822 -0.6625
 2608TIP3    H229240   4.966   0.080  13.527 -1.2012 -0.5010 -0.7235
 2609TIP3   OH229241   2.678   4.416   5.655 -0.3063 -0.1364  0.8854
 2609TIP3    H129242   2.699   4.504   5.625 -1.3331 -0.6953 -1.6870
 2609TIP3    H229243   2.745   4.396   5.721  1.0565  1.8420  0.1694
 2610TIP3   OH229244   3.560   6.554   2.980 -0.4308  0.4810 -1.1986
 2610TIP3    H129245   3.508   6.622   2.937 -1.2409  0.2741 -0.5691
 2610TIP3    H229246   3.527   6.552   3.069 -1.6142 -1.8989 -1.6230
 2611TIP3   OH229247   3.554   3.803  12.063 -0.2710 -0.9456 -0.2987
 2611TIP3    H129248   3.582   3.821  11.973  0.9468 -2.3237 -0.2376
 2611TIP3    H229249   3.494   3.730  12.055 -2.7304  0.9291 -0.2427
 2612TIP3   OH229250   6.614   2.008   0.208 -0.2025 -0.0949  0.0735
 2612TIP3    H129251   6.568   2.055   0.139  1.1902  0.8350 -0.2515
 2612TIP3    H229252   6.561   2.023   0.287 -0.2375  1.3418 -0.1937
 2613TIP3   OH229253   0.307   5.386   4.732  0.2366 -0.9500  0.2224
 2613TIP3    H129254   0.254   5.375   4.653 -0.5747 -3.9808  1.0768
 2613TIP3    H229255   0.390   5.343   4.712  0.6826 -0.2130  0.4516
 2614TIP3   OH229256   4.088   2.083   2.950 -0.2870 -0.2573 -0.5021
 2614TIP3    H129257   4.138   2.003   2.934 -1.3719 -1.0183 -0.1942
 2614TIP3    H229258   4.154   2.150   2.967  0.6238 -1.3985  0.6577
 2615TIP3   OH229259   2.876   6.703  13.586  0.4120  0.8771 -0.2132
 2615TIP3    H129260   2.941   6.653  13.636  0.3607  0.8224 -0.2017
 2615TIP3    H229261   2.809   6.640  13.564  0.3326  0.9475 -0.1729
 2616TIP3   OH229262   1.019   2.539  13.911 -0.3961 -0.4032 -0.2586
 2616TIP3    H129263   1.068   2.553  13.830  1.0972 -1.7048  0.3586
 2616TIP3    H229264   0.944   2.485  13.884 -0.7132  0.3726 -0.9816
 2617TIP3   OH229265   4.009   2.000  12.424  0.6530 -0.9817 -0.6099
 2617TIP3    H129266   4.036   2.091  12.407  0.9665 -0.9895 -0.1604
 2617TIP3    H229267   4.084   1.947  12.399  0.3675 -1.1470 -1.1422
 2618TIP3   OH229268   5.251   3.410  14.078  0.2965  0.3192  0.4444
 2618TIP3    H129269   5.316   3.417  14.008 -1.0450  1.5624 -0.7689
 2618TIP3    H229270   5.277   3.476  14.141  1.0985 -0.2929  0.7657
 2619TIP3   OH229271   2.748   4.320   3.124 -0.1512 -0.0692 -0.1845
 2619TIP3    H129272   2.811   4.361   3.064 -2.3162  2.0875 -1.1200
 2619TIP3    H229273   2.692   4.391   3.154 -2.2773 -1.8909  0.4645
 2620TIP3   OH229274   2.031   2.679  17.074  0.0134  0.2480  0.2224
 2620TIP3    H129275   2.021   2.584  17.075  0.4200  0.2095  1.3884
 2620TIP3    H229276   1.941   2.712  17.081 -0.1659 -0.0280 -0.5683
 2621TIP3   OH229277   5.919   4.921  11.682  0.8890  0.3210 -0.0407
 2621TIP3    H129278   5.862   4.997  11.670  0.1833 -0.5273 -2.6146
 2621TIP3    H229279   5.884   4.854  11.623  1.5802 -1.9945  2.0092
 2622TIP3   OH229280   0.243   2.689   2.528  0.3307 -0.4038  0.0601
 2622TIP3    H129281   0.311   2.679   2.594 -0.0015  2.8611  1.0502
 2622TIP3    H229282   0.162   2.663   2.572 -0.0407  2.6842  1.4367
 2623TIP3   OH229283   4.974   0.277   2.265 -0.3075 -0.3947  0.1263
 2623TIP3    H129284   4.906   0.324   2.314  1.3618  2.3663 -0.0576
 2623TIP3    H229285   5.043   0.262   2.329 -0.5984 -2.3248  0.0620
 2624TIP3   OH229286   4.342   5.980  11.107 -0.0821  0.3068  0.5327
 2624TIP3    H129287   4.251   5.981  11.139 -0.8177 -0.3685 -1.3839
 2624TIP3    H229288   4.370   6.071  11.114 -1.3823  0.7857  0.0002
 2625TIP3   OH229289   1.093   0.124   1.937 -0.6080 -0.3061 -0.0522
 2625TIP3    H129290   1.078   0.166   2.021  0.8801 -1.2855  0.7662
 2625TIP3    H229291   1.010   0.083   1.915 -0.8805 -0.4752  1.2144
 2626TIP3   OH229292   4.286   0.756  11.217 -0.5035 -0.1187  0.1061
 2626TIP3    H129293   4.348   0.739  11.146 -0.4806 -3.8187  0.8031
 2626TIP3    H229294   4.202   0.767  11.174 -0.3480 -1.4333 -0.5664
 2627TIP3   OH229295   5.515   2.721  17.102  0.7448 -0.1101 -0.0877
 2627TIP3    H129296   5.515   2.653  17.034  0.0610  1.1098 -1.3811
 2627TIP3    H229297   5.586   2.780  17.077  3.4711 -1.9034  2.7903
 2628TIP3   OH229298   4.163   5.538   2.766  0.0239 -0.2392 -0.0017
 2628TIP3    H129299   4.093   5.565   2.707 -0.4937 -0.8889  0.3068
 2628TIP3    H229300   4.138   5.572   2.852 -0.4949 -1.4039  0.3368
 2629TIP3   OH229301   4.907   2.486  15.066  0.4767  0.4023 -0.0332
 2629TIP3    H129302   4.821   2.453  15.089  0.6021  1.0452  1.5026
 2629TIP3    H229303   4.953   2.411  15.029  0.3621 -0.8697  2.2265
 2630TIP3   OH229304   3.096   1.569   2.230 -0.0088 -0.3458  0.3553
 2630TIP3    H129305   3.165   1.600   2.172 -0.8227 -0.5913 -0.7893
 2630TIP3    H229306   3.124   1.482   2.258 -0.8947 -1.4849 -2.0213
 2631TIP3   OH229307   3.228   6.079   1.447 -0.1707 -0.6841  0.6366
 2631TIP3    H129308   3.151   6.108   1.496  1.8102 -1.2969  4.5136
 2631TIP3    H229309   3.265   6.159   1.411 -1.2137 -0.0276  0.9718
 2632TIP3   OH229310   3.006   1.782   3.782  0.2281  0.2090 -0.0382
 2632TIP3    H129311   2.922   1.778   3.737 -0.1595  0.1361  0.6770
 2632TIP3    H229312   3.051   1.857   3.742  0.1379 -0.2199 -0.9451
 2633TIP3   OH229313   2.366   3.862  16.096 -0.1657 -0.6355 -0.1245
 2633TIP3    H129314   2.423   3.936  16.076  1.5485 -1.3508  1.7835
 2633TIP3    H229315   2.419   3.785  16.076 -1.1197 -1.3362 -0.0118
 2634TIP3   OH229316   2.958   5.013  15.869 -0.0237  0.3359  0.0289
 2634TIP3    H129317   2.931   5.023  15.960 -2.0897 -1.6607 -0.2491
 2634TIP3    H229318   2.887   5.052  15.819  0.7314  0.7455 -0.7321
 2635TIP3   OH229319   1.536   2.056   0.090 -0.5681 -0.0513  0.0611
 2635TIP3    H129320   1.492   1.971   0.095 -1.3932  0.3213 -0.7320
 2635TIP3    H229321   1.628   2.035   0.106 -0.5257 -1.3261 -1.5159
 2636TIP3   OH229322   3.147   3.950   5.031 -0.2710 -0.1071 -0.5295
 2636TIP3    H129323   3.192   3.895   4.967  1.1669 -0.7554  0.9500
 2636TIP3    H229324   3.098   3.889   5.085  0.5949  0.1241  0.5573
 2637TIP3   OH229325   3.938   4.802  14.826  0.4089 -0.3668  0.5747
 2637TIP3    H129326   4.006   4.832  14.765 -0.8207 -1.5158 -1.5054
 2637TIP3    H229327   3.859   4.846  14.796  0.1686  1.0211  3.0160
 2638TIP3   OH229328   2.697   2.667  17.169  0.1032 -0.0481  0.1021
 2638TIP3    H129329   2.744   2.664  17.086 -1.0711 -0.1822 -0.5834
 2638TIP3    H229330   2.764   2.687  17.234  1.1965 -0.8195 -0.7500
 2639TIP3   OH229331   5.225   0.101   4.146  0.0042  0.0722  0.1415
 2639TIP3    H129332   5.320   0.086   4.148 -0.1503 -0.9449  0.3657
 2639TIP3    H229333   5.194   0.071   4.232 -0.5059  0.5011  0.1095
 2640TIP3   OH229334   2.426   2.058  15.873  0.0401 -0.1458 -0.5878
 2640TIP3    H129335   2.411   1.965  15.861  1.0102 -0.4359  0.2550
 2640TIP3    H229336   2.395   2.076  15.962 -0.0265  0.3083 -0.6997
 2641TIP3   OH229337   4.882   2.073  11.491  0.3281  0.0775  0.1446
 2641TIP3    H129338   4.832   2.130  11.433  1.3397  1.1449  0.2889
 2641TIP3    H229339   4.879   1.987  11.449 -0.9662  0.2925 -0.2282
 2642TIP3   OH229340   2.860   4.459  14.768 -0.1329  0.1239 -0.2448
 2642TIP3    H129341   2.797   4.506  14.713 -1.3691 -1.4303 -0.2684
 2642TIP3    H229342   2.815   4.449  14.852  1.2817  1.4760  0.7352
 2643TIP3   OH229343   0.550   5.112  16.460  0.0581 -0.0758  0.1435
 2643TIP3    H129344   0.639   5.146  16.450  0.1214 -0.3226 -0.1334
 2643TIP3    H229345   0.504   5.139  16.381  0.3214 -1.2706 -0.4485
 2644TIP3   OH229346   0.853   2.101   5.836  0.2788 -0.1167  0.8821
 2644TIP3    H129347   0.823   2.113   5.926  1.8724 -0.3746  1.4831
 2644TIP3    H229348   0.946   2.126   5.838  0.1818  0.5049 -0.8421
 2645TIP3   OH229349   6.123   4.464   1.954 -0.4599  0.3362 -0.5552
 2645TIP3    H129350   6.128   4.415   2.036 -1.2684  0.6319 -0.3116
 2645TIP3    H229351   6.115   4.398   1.886  2.3974 -0.0094 -0.6416
 2646TIP3   OH229352   2.250   5.487   3.271 -0.5726  0.0647 -0.1037
 2646TIP3    H129353   2.268   5.566   3.221 -1.2163  0.1649 -0.1883
 2646TIP3    H229354   2.251   5.417   3.205 -3.0247  0.3847 -0.6122
 2647TIP3   OH229355   2.592   4.448   5.106  0.5371  0.3019  0.1194
 2647TIP3    H129356   2.555   4.519   5.159 -1.1309 -0.0832 -0.4935
 2647TIP3    H229357   2.592   4.373   5.165 -1.1285 -0.0756 -0.3321
 2648TIP3   OH229358   0.879   2.219  13.753 -0.3858  0.6246 -0.5640
 2648TIP3    H129359   0.946   2.215  13.685  0.4419  1.7446  0.1562
 2648TIP3    H229360   0.835   2.133  13.749  0.6267  0.1336 -1.5017
 2649TIP3   OH229361   4.684   5.642  16.996  0.0967  0.1509 -0.0168
 2649TIP3    H129362   4.676   5.730  16.960  0.6330 -0.6135 -2.1864
 2649TIP3    H229363   4.763   5.644  17.049  0.4624  0.8339 -0.5677
 2650TIP3   OH229364   0.720   1.906  16.348 -0.3347  0.3041 -0.1583
 2650TIP3    H129365   0.680   1.970  16.290 -0.2030 -0.4318 -1.0686
 2650TIP3    H229366   0.653   1.839  16.361  0.0939 -0.1964 -0.5200
 2651TIP3   OH229367   3.228   2.857  15.925 -0.0078 -0.3178 -0.2796
 2651TIP3    H129368   3.225   2.941  15.970 -0.2373  0.1347 -1.1193
 2651TIP3    H229369   3.306   2.861  15.871 -0.7670 -0.0725 -1.3908
 2652TIP3   OH229370   6.170   1.840  15.939  0.3686  0.3241  0.0234
 2652TIP3    H129371   6.139   1.927  15.964  2.0666  0.6043  1.3147
 2652TIP3    H229372   6.254   1.831  15.983  0.1817 -2.0375  0.0178
 2653TIP3   OH229373   0.334   1.028  14.928  0.3901  0.0815 -0.2017
 2653TIP3    H129374   0.411   0.984  14.962  1.3551  0.6411 -1.5588
 2653TIP3    H229375   0.368   1.090  14.863 -1.2320 -0.0183 -1.2160
 2654TIP3   OH229376   6.287   3.358   2.324 -0.2945  0.3224  0.0225
 2654TIP3    H129377   6.266   3.429   2.386  1.8204  1.8867 -0.9378
 2654TIP3    H229378   6.278   3.399   2.238 -2.9353 -1.7467 -0.8002
 2655TIP3   OH229379   5.370   4.746   1.578  0.2389  0.2107  0.4103
 2655TIP3    H129380   5.368   4.840   1.591 -0.5432  0.1671  0.6677
 2655TIP3    H229381   5.393   4.710   1.664 -1.7302  0.0769  0.9334
 2656TIP3   OH229382   6.544   1.619   3.030  0.0976  0.4448  0.3151
 2656TIP3    H129383   6.484   1.608   3.104  2.2157  0.5221  2.1498
 2656TIP3    H229384   6.536   1.712   3.007  0.3546  0.7274  1.3204
 2657TIP3   OH229385   5.071   1.194   0.034  0.4692 -0.3852 -0.0103
 2657TIP3    H129386   5.139   1.148  -0.016 -0.4221 -0.5222 -1.1466
 2657TIP3    H229387   4.998   1.201  -0.027 -0.0463  1.0009  0.7275
 2658TIP3   OH229388   3.658   1.353   1.665 -0.2448  0.4213  0.6406
 2658TIP3    H129389   3.654   1.323   1.756  0.2800 -1.0246  0.2266
 2658TIP3    H229390   3.600   1.293   1.618  0.3558  0.4374 -0.1419
 2659TIP3   OH229391   2.194   6.286  13.741  0.0014  0.5409 -0.0813
 2659TIP3    H129392   2.198   6.326  13.655  0.1206  0.2501 -0.2126
 2659TIP3    H229393   2.150   6.202  13.727 -1.3997  1.1549  0.3994
 2660TIP3   OH229394   6.699   3.171  12.310  0.0714  0.0344  0.7093
 2660TIP3    H129395   6.781   3.220  12.306  0.3438 -0.5090 -1.0798
 2660TIP3    H229396   6.679   3.166  12.404  1.0076  1.9137  1.0681
 2661TIP3   OH229397   1.274   5.559   6.494  0.0735  0.0067 -0.1336
 2661TIP3    H129398   1.346   5.500   6.469  0.0975 -0.0565  0.0838
 2661TIP3    H229399   1.195   5.508   6.478 -0.0670  0.8635 -2.6050
 2662TIP3   OH229400   3.676   0.485   4.125 -0.4856 -0.7152 -0.0596
 2662TIP3    H129401   3.743   0.467   4.191  0.0110 -3.6087 -1.1723
 2662TIP3    H229402   3.594   0.491   4.174  0.2860  0.7679  1.1190
 2663TIP3   OH229403   5.793   4.751  14.910  0.1802 -0.3553 -0.0408
 2663TIP3    H129404   5.720   4.722  14.855 -0.8110 -0.9671  1.5115
 2663TIP3    H229405   5.828   4.670  14.947 -0.9047  0.1442  2.2643
 2664TIP3   OH229406   6.564   5.961   1.356 -0.1148  0.3477  0.2703
 2664TIP3    H129407   6.504   5.978   1.428  0.2843  0.4115  0.5924
 2664TIP3    H229408   6.552   6.036   1.297 -1.9425 -0.6935 -0.7787
 2665TIP3   OH229409   2.600   5.420  15.672 -0.5445 -0.1371  0.1607
 2665TIP3    H129410   2.551   5.486  15.622 -0.0578 -1.5039 -2.2913
 2665TIP3    H229411   2.533   5.370  15.718 -1.1531  0.2720 -0.2681
 2666TIP3   OH229412   6.087   3.294   0.213 -0.3065 -0.3961  0.3867
 2666TIP3    H129413   6.123   3.313   0.127 -2.1878  2.7546  0.1695
 2666TIP3    H229414   6.162   3.262   0.263  1.1098 -1.0771 -2.0076
 2667TIP3   OH229415   1.197   1.759   5.068  0.5825 -0.6817  0.0565
 2667TIP3    H129416   1.161   1.837   5.109  1.6252  0.3434 -0.9169
 2667TIP3    H229417   1.131   1.691   5.083  0.0406  0.1564  1.6340
 2668TIP3   OH229418   5.292   0.032  17.363 -0.4116 -1.3150 -0.1759
 2668TIP3    H129419   5.359  -0.011  17.310  0.5353 -1.4695  1.1184
 2668TIP3    H229420   5.260   0.104  17.308 -0.3247 -2.2044 -1.4209
 2669TIP3   OH229421   5.630   4.360  15.283 -0.2858  0.0713 -0.7108
 2669TIP3    H129422   5.546   4.355  15.238  0.0685 -2.4466 -1.2300
 2669TIP3    H229423   5.675   4.279  15.259  2.1776  1.1821 -0.1932
 2670TIP3   OH229424   3.825   3.725  15.994  0.2750  0.8689  0.2123
 2670TIP3    H129425   3.847   3.796  15.933  3.5123  1.0349  1.3794
 2670TIP3    H229426   3.880   3.652  15.965 -0.2791  0.0299  1.2450
 2671TIP3   OH229427   3.902   1.955   0.035 -0.2693  0.2540 -0.6584
 2671TIP3    H129428   3.845   1.929  -0.037 -0.7652  0.3436 -0.3101
 2671TIP3    H229429   3.921   1.873   0.081 -2.1777  0.4916  0.6879
 2672TIP3   OH229430   6.386   2.225   1.545  0.0938  0.7980  0.6136
 2672TIP3    H129431   6.331   2.208   1.622 -1.0549  1.0555 -0.1227
 2672TIP3    H229432   6.374   2.147   1.490  1.5541  0.2472  1.0420
 2673TIP3   OH229433   2.185   0.725   2.468  0.2386 -0.1912  0.7976
 2673TIP3    H129434   2.112   0.744   2.526  0.8264 -0.3937  1.6263
 2673TIP3    H229435   2.188   0.630   2.464 -1.2739 -0.2095 -1.5062
 2674TIP3   OH229436   0.153   6.732   6.181  0.1175 -0.3614 -0.1908
 2674TIP3    H129437   0.156   6.719   6.275  0.6904 -2.9348 -0.4924
 2674TIP3    H229438   0.236   6.775   6.160  0.2680 -0.3535  0.4047
 2675TIP3   OH229439   6.435   0.060  15.985 -0.4624 -0.5813  0.4976
 2675TIP3    H129440   6.483   0.140  16.007 -0.6298 -0.5280  0.6697
 2675TIP3    H229441   6.503  -0.000  15.953 -0.6121  0.3079 -1.5979
 2676TIP3   OH229442   2.257   4.951  14.663 -0.8216 -0.3120 -0.0931
 2676TIP3    H129443   2.225   5.041  14.667 -0.6593 -0.2760  0.7597
 2676TIP3    H229444   2.208   4.905  14.730  0.3740 -0.4156  0.7540
 2677TIP3   OH229445   5.793   2.714   2.538  0.6049  0.4949  0.0233
 2677TIP3    H129446   5.744   2.727   2.457  0.8492 -0.5741 -0.3146
 2677TIP3    H229447   5.732   2.667   2.595  0.5417  0.9657  0.3456
 2678TIP3   OH229448   1.138   3.800   5.550 -0.0300 -0.0279 -0.2143
 2678TIP3    H129449   1.133   3.831   5.459  2.1437  0.4475 -0.2188
 2678TIP3    H229450   1.058   3.834   5.591 -2.4904 -2.5220 -2.5410
 2679TIP3   OH229451   4.287   3.848  17.392  0.6930 -0.5847  0.3525
 2679TIP3    H129452   4.240   3.780  17.344 -0.7989  0.6550 -0.0282
 2679TIP3    H229453   4.264   3.833  17.484  0.7899 -0.8970  0.3265
 2680TIP3   OH229454   1.439   3.365   6.781  0.9043  0.1274 -0.0796
 2680TIP3    H129455   1.397   3.300   6.725  1.4685 -0.9943  0.7518
 2680TIP3    H229456   1.510   3.317   6.824  0.6499  1.0129  1.3950
 2681TIP3   OH229457   6.632   5.320   1.912  0.1970  0.6711  0.4577
 2681TIP3    H129458   6.659   5.237   1.952  0.0683  0.9695  1.1924
 2681TIP3    H229459   6.676   5.386   1.965  1.3313  1.0500 -0.9038
 2682TIP3   OH229460   5.288   2.758   1.221 -0.1785  0.2048  0.2552
 2682TIP3    H129461   5.198   2.789   1.208  0.4533  2.3964  0.7337
 2682TIP3    H229462   5.298   2.687   1.158 -2.1926 -0.0019  0.1013
 2683TIP3   OH229463   0.530   2.667   1.037 -0.3154  0.6492 -0.6337
 2683TIP3    H129464   0.448   2.714   1.050 -0.7807 -0.2186 -0.4002
 2683TIP3    H229465   0.587   2.699   1.107 -0.9029  0.2716  0.0284
 2684TIP3   OH229466   0.096   0.080   0.440  0.1023  0.5142  0.0606
 2684TIP3    H129467   0.091   0.137   0.516  2.2583  0.3603  0.3945
 2684TIP3    H229468   0.190   0.072   0.422 -0.2688 -0.7492 -1.6374
 2685TIP3   OH229469   4.770   3.869   4.266 -0.1405 -0.2774 -0.2741
 2685TIP3    H129470   4.854   3.874   4.219 -1.5915  0.8795 -2.9429
 2685TIP3    H229471   4.727   3.792   4.231 -0.9001  0.1011 -0.1979
 2686TIP3   OH229472   5.578   6.406  14.946 -0.2410  0.0550  0.4942
 2686TIP3    H129473   5.565   6.469  14.875 -2.5217 -0.9997 -0.1203
 2686TIP3    H229474   5.638   6.341  14.909  0.4922  0.7643  0.4082
 2687TIP3   OH229475   6.064   6.179  10.606 -0.2231 -0.3983 -0.3111
 2687TIP3    H129476   6.059   6.274  10.590  0.3478 -0.1021  1.1346
 2687TIP3    H229477   6.015   6.141  10.533 -1.7715  1.0867 -0.1360
 2688TIP3   OH229478   4.424   2.825  16.350  0.2564  0.4918  0.0630
 2688TIP3    H129479   4.340   2.854  16.314 -0.7708 -0.4493  1.5700
 2688TIP3    H229480   4.464   2.904  16.386 -0.3238  0.8216 -0.0090
 2689TIP3   OH229481   0.874   6.341   3.780  0.0710 -0.1538  0.1198
 2689TIP3    H129482   0.959   6.363   3.741 -0.7631 -0.6785 -2.1979
 2689TIP3    H229483   0.811   6.385   3.723 -1.2460 -0.0769  1.5807
 2690TIP3   OH229484   5.260   3.554   0.184  0.6175 -0.1793 -0.5900
 2690TIP3    H129485   5.302   3.558   0.098  1.7203 -1.9060 -0.1835
 2690TIP3    H229486   5.184   3.498   0.171 -0.1553  0.9015 -0.7823
 2691TIP3   OH229487   0.049   6.472  14.408 -0.1887 -0.0194 -0.2185
 2691TIP3    H129488   0.101   6.463  14.488 -2.8242  1.6606  1.8746
 2691TIP3    H229489   0.019   6.563  14.410 -2.7668 -0.7510 -1.5329
 2692TIP3   OH229490   0.700   1.999   4.249  0.0632  0.1464  0.9580
 2692TIP3    H129491   0.630   2.053   4.213 -1.3761 -0.5677  2.5467
 2692TIP3    H229492   0.780   2.032   4.207 -0.8535  2.8532  1.1577
 2693TIP3   OH229493   0.072   2.914   3.248  0.6046  0.2391  0.3353
 2693TIP3    H129494   0.151   2.962   3.273  1.6995 -1.2475 -0.1367
 2693TIP3    H229495   0.012   2.982   3.215  1.2570  1.5187  1.6866
 2694TIP3   OH229496   5.692   6.082  15.088  0.1856  0.0094  0.3511
 2694TIP3    H129497   5.676   6.132  15.168  0.5210 -1.1977  1.1960
 2694TIP3    H229498   5.732   6.145  15.029  0.1868  0.8583  1.2254
 2695TIP3   OH229499   4.613   2.612  15.256  0.6190 -0.7127 -0.0343
 2695TIP3    H129500   4.673   2.563  15.199 -1.2054 -2.4275 -0.6092
 2695TIP3    H229501   4.579   2.682  15.200  0.9869 -0.6149 -0.1428
 2696TIP3   OH229502   5.973   0.437  14.048 -0.0735  0.3645 -0.1509
 2696TIP3    H129503   5.920   0.386  13.987 -0.4635  1.4147 -0.7171
 2696TIP3    H229504   6.028   0.372  14.092  1.5279 -0.2738 -2.8786
 2697TIP3   OH229505   4.187   0.467   2.086  0.3864  0.5678  0.1021
 2697TIP3    H129506   4.223   0.541   2.134  1.8880 -0.5950  0.8393
 2697TIP3    H229507   4.153   0.505   2.005  1.6032  1.9879  0.2207
 2698TIP3   OH229508   4.265   2.799  14.607 -0.7097 -0.4803 -0.0771
 2698TIP3    H129509   4.357   2.774  14.617 -0.6846 -0.4694 -0.2745
 2698TIP3    H229510   4.268   2.884  14.563 -0.7929 -0.0700  0.7044
 2699TIP3   OH229511   4.480   0.147  11.719  0.4480 -0.1536  0.4408
 2699TIP3    H129512   4.501   0.112  11.806  1.2531  0.3002  0.4392
 2699TIP3    H229513   4.530   0.228  11.713 -0.4744  0.3926 -0.0193
 2700TIP3   OH229514   6.308   3.344   1.100  0.5694 -0.3368 -0.0253
 2700TIP3    H129515   6.283   3.325   1.190  1.4102  0.1546  0.3249
 2700TIP3    H229516   6.226   3.344   1.051  0.2171 -1.7497  0.5167
 2701TIP3   OH229517   3.349   3.443   1.493  0.2725  0.0754 -0.0393
 2701TIP3    H129518   3.320   3.435   1.584 -1.0972  2.0399 -0.2496
 2701TIP3    H229519   3.268   3.445   1.442  1.0252 -1.6668 -1.4247
 2702TIP3   OH229520   3.306   5.849   1.124 -0.2913  0.2088  0.0838
 2702TIP3    H129521   3.256   5.775   1.158  0.1909  0.4508  1.3483
 2702TIP3    H229522   3.378   5.861   1.186 -0.1949  1.5529 -0.2556
 2703TIP3   OH229523   3.979   3.727   1.208  0.4851  0.0659  0.0122
 2703TIP3    H129524   4.005   3.638   1.233 -0.2367 -0.2872 -0.4466
 2703TIP3    H229525   4.061   3.770   1.183  0.8399 -0.4693  0.2320
 2704TIP3   OH229526   5.658   1.604  11.072 -0.3775  0.3405  0.6392
 2704TIP3    H129527   5.594   1.564  11.013  1.4455 -0.1873 -1.0902
 2704TIP3    H229528   5.666   1.694  11.041  0.8810 -0.0486 -0.2332
 2705TIP3   OH229529   1.961   0.595   0.568  0.2718 -0.2622  0.0407
 2705TIP3    H129530   2.044   0.564   0.606  0.4946 -2.7686 -2.1628
 2705TIP3    H229531   1.963   0.690   0.581  1.9436 -0.5518  2.8875
 2706TIP3   OH229532   1.939   0.227   2.007  0.0393  0.3377  0.2781
 2706TIP3    H129533   1.844   0.237   2.013 -0.8145 -3.6837 -2.3089
 2706TIP3    H229534   1.961   0.253   1.918  1.4337  1.2096  0.8437
 2707TIP3   OH229535   4.538   5.756  12.102  0.5990 -0.1068  0.7973
 2707TIP3    H129536   4.616   5.721  12.145 -0.2575 -0.6117  1.9968
 2707TIP3    H229537   4.549   5.851  12.104  1.7588 -0.2030 -0.1828
 2708TIP3   OH229538   2.378   5.807  17.207  0.1761  0.3738 -0.2494
 2708TIP3    H129539   2.430   5.884  17.230 -0.8364  0.0428  3.8179
 2708TIP3    H229540   2.289   5.830  17.234 -0.5511 -1.4450 -0.9971
 2709TIP3   OH229541   5.776   6.431   5.863 -0.2124 -0.2398  0.6942
 2709TIP3    H129542   5.736   6.353   5.825 -3.3039  0.6437  1.7610
 2709TIP3    H229543   5.795   6.407   5.954 -0.2919 -0.0413  0.7651
 2710TIP3   OH229544   4.501   4.509  16.850 -0.5586 -0.0096  0.5421
 2710TIP3    H129545   4.501   4.580  16.786  2.6208  0.4895  0.9546
 2710TIP3    H229546   4.589   4.511  16.889 -1.2737 -2.4193  2.5555
 2711TIP3   OH229547   4.186   1.896   0.663 -0.0003  0.0870  0.3090
 2711TIP3    H129548   4.147   1.812   0.639 -0.3883  0.5675 -0.8256
 2711TIP3    H229549   4.116   1.942   0.710 -0.9323  1.0015 -1.8407
 2712TIP3   OH229550   1.001   1.104   5.669  0.0405  0.0540 -0.2273
 2712TIP3    H129551   1.017   1.132   5.579 -0.6466  0.8330 -0.1161
 2712TIP3    H229552   0.960   1.018   5.660 -1.9950  1.0222 -0.7725
 2713TIP3   OH229553   5.922   2.670   3.359 -0.2930 -0.0167  0.3167
 2713TIP3    H129554   5.832   2.701   3.362 -0.0744  0.5531  1.2687
 2713TIP3    H229555   5.915   2.574   3.362 -0.8251  0.0567  1.9922
 2714TIP3   OH229556   2.902   5.316  13.910 -0.1157  0.2388  0.0931
 2714TIP3    H129557   2.979   5.368  13.887 -0.3824  0.1822 -0.9895
 2714TIP3    H229558   2.831   5.357  13.861 -0.2556 -1.3703 -1.1263
 2715TIP3   OH229559   4.893   2.260   2.626  0.1958  0.7037  0.7754
 2715TIP3    H129560   4.898   2.165   2.633 -0.2727  0.2667 -2.7513
 2715TIP3    H229561   4.808   2.276   2.584  1.1806  2.4611 -0.6853
 2716TIP3   OH229562   3.025   1.183  14.489 -0.2612  0.6943 -0.0248
 2716TIP3    H129563   2.961   1.168  14.558  0.1462 -0.0136  0.1990
 2716TIP3    H229564   3.105   1.140  14.519 -0.3231 -0.3720 -1.3140
 2717TIP3   OH229565   3.265   5.689  12.400 -0.1790  0.3557 -0.2114
 2717TIP3    H129566   3.348   5.712  12.441 -0.4481 -1.2748  1.3500
 2717TIP3    H229567   3.221   5.773  12.387 -0.3200  1.0253  3.4575
 2718TIP3   OH229568   0.651   4.481   0.360  0.2074 -0.1281 -0.3557
 2718TIP3    H129569   0.626   4.399   0.318  0.7943 -0.9868  0.9034
 2718TIP3    H229570   0.672   4.456   0.450 -0.4802  1.5568  0.3096
 2719TIP3   OH229571   6.331   0.197  10.680  0.3246  0.1311 -0.1928
 2719TIP3    H129572   6.392   0.133  10.716  0.4071  0.5195  0.3678
 2719TIP3    H229573   6.387   0.264  10.640  0.2367 -0.1920 -0.8692
 2720TIP3   OH229574   2.514   3.182  13.284  0.8402  0.4376  0.0252
 2720TIP3    H129575   2.559   3.265  13.265  1.4221  0.4604  1.4338
 2720TIP3    H229576   2.582   3.126  13.321 -0.1465  0.2959  1.7203
 2721TIP3   OH229577   0.951   3.640   2.350 -0.2344 -0.3493 -0.4566
 2721TIP3    H129578   0.989   3.558   2.380 -0.4793 -0.9226 -1.6845
 2721TIP3    H229579   1.026   3.694   2.325 -0.1450 -0.9477 -1.5255
 2722TIP3   OH229580   1.901   6.231  12.474 -0.4310  0.9829  0.3063
 2722TIP3    H129581   1.868   6.240  12.385 -0.3079  1.9927  0.3553
 2722TIP3    H229582   1.822   6.235  12.529 -0.6041 -0.5276  0.2157
 2723TIP3   OH229583   5.646   3.138   0.010  0.0135  0.1056  0.0826
 2723TIP3    H129584   5.692   3.119   0.091 -0.1399 -0.3266  0.0720
 2723TIP3    H229585   5.715   3.161  -0.052  0.6004 -3.6100 -0.8359
 2724TIP3   OH229586   6.747   6.512   0.972 -0.7557  0.0042  0.2519
 2724TIP3    H129587   6.673   6.458   1.000 -0.3486 -0.9613 -0.4972
 2724TIP3    H229588   6.723   6.541   0.884 -1.5200  2.0917  1.0853
 2725TIP3   OH229589   2.601   3.850  11.595  0.3946  0.5223  0.0806
 2725TIP3    H129590   2.674   3.902  11.628  0.7139 -0.0238  0.2549
 2725TIP3    H229591   2.633   3.813  11.512  0.3527  0.2068  0.2034
 2726TIP3   OH229592   2.302   6.318  15.106 -0.1528 -0.1541  0.3263
 2726TIP3    H129593   2.211   6.296  15.087  0.3107 -0.6914 -1.4370
 2726TIP3    H229594   2.297   6.377  15.182 -2.0287  0.6153 -0.3270
 2727TIP3   OH229595   2.026   1.642   4.177  0.0533 -0.2539 -0.0286
 2727TIP3    H129596   1.936   1.622   4.154 -0.2284 -0.2727  1.0303
 2727TIP3    H229597   2.078   1.581   4.125 -0.5997 -0.9859  0.1631
 2728TIP3   OH229598   5.420   6.250  11.821 -0.3159 -0.6278  0.0509
 2728TIP3    H129599   5.473   6.265  11.899 -0.7284  0.4840  0.1363
 2728TIP3    H229600   5.358   6.323  11.820  0.5243  0.1138 -2.0385
 2729TIP3   OH229601   6.674   2.409  17.043  0.1015 -0.0752 -0.3313
 2729TIP3    H129602   6.618   2.451  17.108  2.6837  0.4836  1.6814
 2729TIP3    H229603   6.724   2.481  17.005  0.8988 -0.7755 -0.6229
 2730TIP3   OH229604   3.974   5.943  16.185  1.1313  0.1828 -0.6697
 2730TIP3    H129605   3.984   5.924  16.092  0.9975 -0.3541 -0.5801
 2730TIP3    H229606   4.062   5.932  16.221  1.0248 -0.4680 -0.5893
 2731TIP3   OH229607   6.571   0.205  16.910  0.3739  0.4229  0.1971
 2731TIP3    H129608   6.585   0.180  16.818  2.6509  2.8914 -0.2673
 2731TIP3    H229609   6.509   0.279  16.905  2.0140  1.8769  0.3537
 2732TIP3   OH229610   4.878   3.575  11.462  0.0226 -0.3141  0.6250
 2732TIP3    H129611   4.819   3.647  11.441  0.1357 -0.1537  0.8508
 2732TIP3    H229612   4.948   3.582  11.398 -0.9381 -1.4061 -0.6071
 2733TIP3   OH229613   2.242   3.287  13.333 -0.4570 -0.3244 -0.3487
 2733TIP3    H129614   2.281   3.369  13.302 -0.5376 -0.5297 -1.0063
 2733TIP3    H229615   2.310   3.222  13.318 -0.2462 -0.3200  0.5344
 2734TIP3   OH229616   3.711   0.023   3.496  0.3004  0.7879  0.1882
 2734TIP3    H129617   3.782   0.015   3.560 -2.1054 -0.7814  2.9025
 2734TIP3    H229618   3.718  -0.056   3.443 -0.5417 -0.4025  1.7794
 2735TIP3   OH229619   0.678   1.330  15.276 -0.5399  0.2390 -0.0963
 2735TIP3    H129620   0.728   1.289  15.347 -1.6466 -2.3736 -0.7207
 2735TIP3    H229621   0.722   1.301  15.196 -0.2954  1.7950 -0.5561
 2736TIP3   OH229622   6.381   0.067  13.580 -0.4213 -0.8117 -0.0726
 2736TIP3    H129623   6.474   0.089  13.581 -0.8224  1.7383 -2.7627
 2736TIP3    H229624   6.338   0.142  13.622 -1.4268  0.1206 -2.5787
 2737TIP3   OH229625   6.698   1.965  11.761 -0.5162 -0.1095 -0.6081
 2737TIP3    H129626   6.753   1.956  11.839 -0.4171  1.0663 -0.5162
 2737TIP3    H229627   6.692   1.877  11.725  1.5428 -0.2611 -0.7033
 2738TIP3   OH229628   1.929   3.239  11.797 -0.3651 -0.0927  0.0826
 2738TIP3    H129629   1.997   3.225  11.730 -0.6981  2.5802 -0.9195
 2738TIP3    H229630   1.957   3.317  11.844 -1.9523  0.1117  0.7315
 2739TIP3   OH229631   4.408   5.001  11.877 -0.2512 -0.5889  0.5314
 2739TIP3    H129632   4.410   4.945  11.800  0.1631  0.9668 -0.6298
 2739TIP3    H229633   4.448   5.083  11.849 -1.8075  0.6962  1.8478
 2740TIP3   OH229634   5.252   5.242  12.689 -0.6098  0.2186 -0.1749
 2740TIP3    H129635   5.206   5.222  12.770 -0.8908  0.7804 -0.1870
 2740TIP3    H229636   5.329   5.293  12.717 -0.1119 -0.5220 -0.1736
 2741TIP3   OH229637   2.383   4.661  12.500 -0.4920 -0.0431 -0.3609
 2741TIP3    H129638   2.469   4.678  12.462 -0.6373 -1.9351 -1.7007
 2741TIP3    H229639   2.370   4.731  12.564  1.5330  0.9346 -0.9461
 2742TIP3   OH229640   2.069   3.360  12.483  0.6060 -0.2302  0.3735
 2742TIP3    H129641   2.011   3.319  12.418 -1.2242  0.9676  1.1515
 2742TIP3    H229642   2.065   3.453  12.462  2.3674 -0.1181  0.4221
 2743TIP3   OH229643   2.385   2.079   3.807  0.1190 -0.2579  0.0381
 2743TIP3    H129644   2.372   2.060   3.900  0.0345 -0.9576 -0.1124
 2743TIP3    H229645   2.347   2.166   3.796 -1.9509 -1.0788  0.2170
 2744TIP3   OH229646   0.662   5.093  15.841  0.2813 -0.5580 -0.0149
 2744TIP3    H129647   0.632   5.174  15.883  0.4663 -0.3165 -0.3465
 2744TIP3    H229648   0.720   5.053  15.906 -1.1179 -1.2925  0.8505
 2745TIP3   OH229649   4.091   5.883   1.102  0.0990 -0.3249  0.3182
 2745TIP3    H129650   4.071   5.909   1.012 -1.1235 -0.0207  0.6630
 2745TIP3    H229651   4.016   5.913   1.153  0.8338 -0.3864  1.4668
 2746TIP3   OH229652   1.644   5.515   3.887  0.2870  0.5933  0.1941
 2746TIP3    H129653   1.686   5.436   3.920  1.0526  0.8499 -0.1320
 2746TIP3    H229654   1.645   5.505   3.792  2.1395  1.8215  0.0369
 2747TIP3   OH229655   0.209   2.602  16.540  0.1675 -0.0140 -0.5560
 2747TIP3    H129656   0.141   2.544  16.574 -0.3407  0.5652 -0.5793
 2747TIP3    H229657   0.271   2.611  16.612 -0.7721  1.0103  0.1563
 2748TIP3   OH229658   1.674   6.226  13.026  0.4318  0.2605 -0.1684
 2748TIP3    H129659   1.621   6.279  12.966  0.2166 -1.1501 -1.2741
 2748TIP3    H229660   1.611   6.192  13.090  0.4122  0.5564 -0.0288
 2749TIP3   OH229661   3.305   6.005   1.916 -0.4696  0.7823  0.3069
 2749TIP3    H129662   3.225   6.057   1.928 -1.4814 -0.9995  1.7845
 2749TIP3    H229663   3.274   5.915   1.907  1.2979  0.2647 -1.1371
 2750TIP3   OH229664   4.528   2.950  16.903 -0.2999  0.2483  0.0730
 2750TIP3    H129665   4.477   2.978  16.980  0.0146  0.0570  0.3543
 2750TIP3    H229666   4.505   3.014  16.835 -3.0189 -1.3607 -0.6532
 2751TIP3   OH229667   3.121   3.131  12.683  0.6311 -0.4027 -0.5159
 2751TIP3    H129668   3.131   3.071  12.757 -0.3767  0.7010  0.5713
 2751TIP3    H229669   3.050   3.094  12.631  1.3433 -1.1856 -0.9555
 2752TIP3   OH229670   4.576   3.702   4.152 -0.1444 -0.2280 -0.3862
 2752TIP3    H129671   4.541   3.709   4.241  1.6842  0.2743  0.3409
 2752TIP3    H229672   4.542   3.618   4.120 -0.5727 -0.5758  0.8963
 2753TIP3   OH229673   4.872   4.442  14.484  0.3355  0.0551 -0.2804
 2753TIP3    H129674   4.889   4.416  14.575  0.6366  0.6010 -0.1785
 2753TIP3    H229675   4.815   4.373  14.450 -2.4815  1.4198  1.3112
 2754TIP3   OH229676   2.938   1.029   1.272 -0.4168 -0.2239 -0.1446
 2754TIP3    H129677   2.883   1.095   1.229 -1.6127 -0.2433  1.2480
 2754TIP3    H229678   3.023   1.071   1.280 -0.1160 -0.2385 -2.4944
 2755TIP3   OH229679   2.226   4.541   2.320  0.0357  0.4840  0.1400
 2755TIP3    H129680   2.154   4.524   2.381  0.0183 -1.2946 -0.3031
 2755TIP3    H229681   2.300   4.563   2.376 -0.3219  0.1798  0.7435
 2756TIP3   OH229682   1.754   6.240   3.060 -0.2675 -0.5426  0.1868
 2756TIP3    H129683   1.700   6.192   3.123 -1.9113  1.2863  0.2942
 2756TIP3    H229684   1.835   6.258   3.107  0.5005 -3.2470  0.0767
 2757TIP3   OH229685   4.744   5.072   3.075  0.0337 -1.0007 -0.2868
 2757TIP3    H129686   4.746   5.146   3.013 -0.3706 -1.0420 -0.3524
 2757TIP3    H229687   4.823   5.083   3.127 -0.4913  0.0396  0.3412
 2758TIP3   OH229688   5.824   2.720  17.249 -0.3389 -0.0438  0.0933
 2758TIP3    H129689   5.897   2.772  17.280  0.8937  0.0548 -2.7266
 2758TIP3    H229690   5.771   2.780  17.197  0.9107 -1.3656 -2.9042
 2759TIP3   OH229691   4.081   3.927   3.587  0.1740  0.2923 -0.4604
 2759TIP3    H129692   4.172   3.935   3.616 -0.3999 -2.1192  2.5387
 2759TIP3    H229693   4.029   3.933   3.667 -2.4160  1.7884 -2.0989
 2760TIP3   OH229694   1.898   2.743   0.916  0.5343 -0.5093 -0.0527
 2760TIP3    H129695   1.825   2.775   0.968  0.7627  0.6346 -0.3970
 2760TIP3    H229696   1.857   2.702   0.840  0.2191 -1.6380  0.7098
 2761TIP3   OH229697   4.289   3.833  13.574  0.4067  0.3925  0.1930
 2761TIP3    H129698   4.319   3.743  13.565  0.1891  0.3065  0.3149
 2761TIP3    H229699   4.216   3.828  13.636 -0.0481  0.5584 -0.3235
 2762TIP3   OH229700   0.027   1.653   3.529  0.2515 -0.0071 -0.0454
 2762TIP3    H129701   0.054   1.561   3.532 -0.9787 -0.3693  0.3752
 2762TIP3    H229702   0.068   1.687   3.449 -2.7074 -2.0902 -2.7023
 2763TIP3   OH229703   3.954   6.198   2.672 -0.1556 -0.1022  0.2715
 2763TIP3    H129704   3.907   6.160   2.746 -0.5655  1.4061  0.8266
 2763TIP3    H229705   3.890   6.199   2.601 -0.3947  0.2797  0.4907
 2764TIP3   OH229706   6.693   4.720   0.849  0.5085 -0.1391  0.0631
 2764TIP3    H129707   6.698   4.805   0.806  0.8269 -0.0062  0.3626
 2764TIP3    H229708   6.718   4.737   0.940 -1.7395 -0.0915  0.7531
 2765TIP3   OH229709   4.743   4.428   5.181  0.2019  0.8190 -0.4951
 2765TIP3    H129710   4.803   4.359   5.155  2.1267  1.9606  0.5918
 2765TIP3    H229711   4.768   4.504   5.128 -0.3823  1.2724 -0.1456
 2766TIP3   OH229712   2.665   1.771  11.228 -0.5557  0.1696  0.0792
 2766TIP3    H129713   2.606   1.695  11.220  0.8057 -0.9911  0.5567
 2766TIP3    H229714   2.747   1.734  11.262 -0.8102  2.2768  3.4584
 2767TIP3   OH229715   3.198   6.658   3.714  0.1604 -0.6659 -0.3939
 2767TIP3    H129716   3.157   6.725   3.659  1.4247  0.0979 -0.4434
 2767TIP3    H229717   3.171   6.575   3.676 -3.4242 -0.3355  1.0476
 2768TIP3   OH229718   2.148   1.102  14.198 -0.2498  0.3612 -0.1365
 2768TIP3    H129719   2.103   1.019  14.208 -0.4286  0.4924  0.1779
 2768TIP3    H229720   2.127   1.131  14.109  1.6023 -0.9723 -1.0897
 2769TIP3   OH229721   4.157   5.232   4.155 -0.0797  0.3563  0.2383
 2769TIP3    H129722   4.201   5.163   4.206  0.9506  0.2607 -0.7371
 2769TIP3    H229723   4.133   5.298   4.220 -0.5390 -0.6386  1.1081
 2770TIP3   OH229724   2.048   5.179   5.071 -0.3562 -0.0178  0.1554
 2770TIP3    H129725   2.007   5.247   5.123 -2.6026 -0.2590 -1.1566
 2770TIP3    H229726   2.065   5.108   5.132 -0.3783  0.7300  1.0479
 2771TIP3   OH229727   3.707   0.513  14.394  0.2754  0.6690  0.0267
 2771TIP3    H129728   3.713   0.417  14.392 -3.1585  0.3058  1.1865
 2771TIP3    H229729   3.797   0.542  14.408  1.3133 -2.4161  0.5271
 2772TIP3   OH229730   0.655   2.885   3.619 -0.1690  0.1297 -0.4465
 2772TIP3    H129731   0.724   2.821   3.600 -0.3682  0.4425 -2.3767
 2772TIP3    H229732   0.683   2.965   3.575 -1.3156  0.5405 -0.4634
 2773TIP3   OH229733   5.417   3.783   1.376  0.0258 -0.1548  0.0209
 2773TIP3    H129734   5.395   3.860   1.427  0.9555 -1.4329  2.5142
 2773TIP3    H229735   5.510   3.793   1.355 -0.0855 -0.1584 -0.4949
 2774TIP3   OH229736   2.431   0.556  16.108 -0.3432  0.2339  0.2021
 2774TIP3    H129737   2.351   0.587  16.150  0.3428  0.3356  1.5005
 2774TIP3    H229738   2.427   0.590  16.019 -1.5537  0.5596  0.3680
 2775TIP3   OH229739   3.606   0.915   4.868 -0.9575 -0.2268  0.2285
 2775TIP3    H129740   3.687   0.923   4.817  0.7647  1.2418  2.9052
 2775TIP3    H229741   3.548   0.981   4.831  0.0587  0.4639 -0.2000
 2776TIP3   OH229742   2.089   4.316  17.210 -0.4265 -0.1942  0.3079
 2776TIP3    H129743   2.058   4.363  17.287 -1.1497  0.8991 -0.6222
 2776TIP3    H229744   2.158   4.372  17.174 -0.5182 -0.3999 -0.1941
 2777TIP3   OH229745   6.400   5.848   4.213 -0.1520 -0.0252 -0.0442
 2777TIP3    H129746   6.366   5.816   4.297 -1.7966 -0.9323 -0.9992
 2777TIP3    H229747   6.366   5.937   4.206 -0.2659 -0.0533  0.1203
 2778TIP3   OH229748   2.294   5.231   4.238 -0.2324  0.5183 -0.4526
 2778TIP3    H129749   2.323   5.284   4.312  1.6022  0.9664 -1.4290
 2778TIP3    H229750   2.356   5.159   4.235 -0.4825  0.3276 -1.3585
 2779TIP3   OH229751   2.713   0.407   0.933 -0.4409  0.5103  0.1943
 2779TIP3    H129752   2.760   0.481   0.894  0.6069 -0.5264 -0.6001
 2779TIP3    H229753   2.781   0.358   0.979 -0.8071 -0.7749 -0.5869
 2780TIP3   OH229754   3.481   1.389  11.188  0.0993 -0.2597  0.0881
 2780TIP3    H129755   3.472   1.483  11.170 -0.1857 -0.4587 -0.8185
 2780TIP3    H229756   3.404   1.349  11.149  1.0167 -1.0609 -0.9644
 2781TIP3   OH229757   6.273   4.262  13.195 -0.2906 -0.1509  0.2148
 2781TIP3    H129758   6.350   4.277  13.250 -0.4528 -0.0349  0.4118
 2781TIP3    H229759   6.229   4.347  13.192  0.0284 -0.0067 -0.5727
 2782TIP3   OH229760   5.096   0.045  13.702 -0.0412 -0.1600 -0.0486
 2782TIP3    H129761   5.072  -0.047  13.687  0.9545 -0.4077 -0.1617
 2782TIP3    H229762   5.169   0.041  13.763 -0.7746  0.6322  0.9176
 2783TIP3   OH229763   5.381   2.391  14.239 -0.2458  0.4047  0.1085
 2783TIP3    H129764   5.325   2.440  14.179 -0.5031  0.0599  0.0724
 2783TIP3    H229765   5.356   2.300  14.228  0.2953  0.2507  0.1201
 2784TIP3   OH229766   6.244   5.003   4.488 -0.5661 -0.7479  0.5018
 2784TIP3    H129767   6.200   4.927   4.448 -1.4472  0.7318 -1.5162
 2784TIP3    H229768   6.276   5.054   4.413 -0.9550  1.4315  1.7496
 2785TIP3   OH229769   1.451   5.688  13.211  1.1436  0.5816  0.4385
 2785TIP3    H129770   1.536   5.733  13.207  1.0230  0.7440 -0.3877
 2785TIP3    H229771   1.412   5.720  13.293  1.6373  0.9424  0.5426
 2786TIP3   OH229772   1.416   0.584   1.115 -0.0062  0.3401  0.3241
 2786TIP3    H129773   1.492   0.557   1.063 -0.3945 -1.2544  0.5324
 2786TIP3    H229774   1.416   0.679   1.110  0.1541  0.2601 -2.2907
 2787TIP3   OH229775   1.621   4.962  11.853 -0.0872 -0.5494 -0.3010
 2787TIP3    H129776   1.712   4.935  11.841 -0.5840 -1.9290 -1.3439
 2787TIP3    H229777   1.595   4.997  11.768 -0.5521 -0.2312 -0.0298
 2788TIP3   OH229778   6.435   2.424   4.785  0.3111 -0.4126  0.2698
 2788TIP3    H129779   6.346   2.446   4.814  0.7116  0.4284  0.8965
 2788TIP3    H229780   6.422   2.369   4.708 -0.7623 -0.9067  0.7821
 2789TIP3   OH229781   3.103   3.739   5.245 -0.1806  0.2082  1.0230
 2789TIP3    H129782   3.018   3.780   5.257 -0.3152 -0.1538  1.3218
 2789TIP3    H229783   3.102   3.663   5.303  0.2168  0.0095  0.7771
 2790TIP3   OH229784   2.408   5.134  16.632 -0.6897 -0.4288  0.2443
 2790TIP3    H129785   2.398   5.120  16.538  0.6436 -1.1575  0.1794
 2790TIP3    H229786   2.471   5.066  16.659  0.0107  0.6384  1.3919
 2791TIP3   OH229787   1.710   6.628  14.782  0.7567 -0.3854 -0.3741
 2791TIP3    H129788   1.657   6.585  14.849  1.6760 -0.2531  0.4722
 2791TIP3    H229789   1.660   6.707  14.759 -0.5387 -1.4431 -1.3393
 2792TIP3   OH229790   5.780   6.540   3.252 -0.9975  0.5439 -0.6115
 2792TIP3    H129791   5.739   6.509   3.332 -0.4526  0.2966 -0.4275
 2792TIP3    H229792   5.812   6.628   3.274  2.1657 -0.7776  0.5261
 2793TIP3   OH229793   3.810   0.783   4.116 -0.0026 -0.2538 -0.3477
 2793TIP3    H129794   3.824   0.812   4.206 -0.7517  2.1210 -0.9063
 2793TIP3    H229795   3.803   0.864   4.066 -0.6069 -1.4934 -2.3983
 2794TIP3   OH229796   5.521   2.278   1.664 -0.1104  0.0655 -0.0986
 2794TIP3    H129797   5.611   2.246   1.660  0.0979  0.7446 -2.6691
 2794TIP3    H229798   5.486   2.240   1.745  2.0943 -1.2060  0.3561
 2795TIP3   OH229799   3.738   0.982   5.926  0.4711 -0.5434 -0.6541
 2795TIP3    H129800   3.833   0.985   5.914  0.3703  2.1737 -1.5076
 2795TIP3    H229801   3.706   1.058   5.878 -2.0741 -0.8969  0.3382
 2796TIP3   OH229802   0.501   3.942   3.717  0.0209  0.0745 -0.0580
 2796TIP3    H129803   0.567   3.873   3.707 -0.6717 -0.6395  0.1751
 2796TIP3    H229804   0.455   3.919   3.798 -0.8374  0.2877 -0.4735
 2797TIP3   OH229805   3.156   1.589  13.996  0.1111 -0.6764  0.4419
 2797TIP3    H129806   3.077   1.637  14.024  0.4671 -1.0113  2.1426
 2797TIP3    H229807   3.158   1.600  13.901 -1.3304  0.3480  0.4897
 2798TIP3   OH229808   5.111   0.062   3.898  0.1236  0.6573 -0.0681
 2798TIP3    H129809   5.172   0.074   3.971 -2.3790  3.3653  1.8121
 2798TIP3    H229810   5.031   0.031   3.939 -0.8427  0.5680 -1.9429
 2799TIP3   OH229811   3.713   5.989  12.092  0.2560 -0.2408  0.0332
 2799TIP3    H129812   3.722   6.065  12.150  1.3702 -1.1098  1.0458
 2799TIP3    H229813   3.773   5.924  12.128 -0.1703 -1.3713 -1.2144
 2800TIP3   OH229814   0.121   1.481  14.521 -0.1684  0.1823 -0.4260
 2800TIP3    H129815   0.076   1.468  14.604 -0.2897 -0.0315 -0.5235
 2800TIP3    H229816   0.135   1.576  14.516 -0.7636  0.2765 -0.4729
 2801TIP3   OH229817   0.400   1.280  12.860  0.1723 -0.6288  0.5855
 2801TIP3    H129818   0.430   1.195  12.828  0.1958 -0.6319  0.6161
 2801TIP3    H229819   0.343   1.313  12.790  0.8313 -0.2914  0.2024
 2802TIP3   OH229820   2.132   5.953  16.494  0.9914 -0.0742  0.1213
 2802TIP3    H129821   2.070   5.887  16.525  1.3964 -0.5508 -0.0871
 2802TIP3    H229822   2.099   5.977  16.407  0.0397  1.0314  0.7521
 2803TIP3   OH229823   3.459   2.856  16.779 -0.0766 -0.0211 -0.2849
 2803TIP3    H129824   3.494   2.808  16.704  0.8654  1.2174 -0.6688
 2803TIP3    H229825   3.415   2.933  16.741  1.4078  1.2413  0.4429
 2804TIP3   OH229826   0.677   5.357  16.016 -0.6014  0.3894  0.2345
 2804TIP3    H129827   0.740   5.386  16.082  0.3033 -1.4015  0.1996
 2804TIP3    H229828   0.596   5.343  16.064 -0.4746  0.9449  0.6118
 2805TIP3   OH229829   0.168   0.807  12.630 -0.1615 -0.2039  0.2492
 2805TIP3    H129830   0.125   0.723  12.648 -0.6268 -0.1772 -0.6999
 2805TIP3    H229831   0.204   0.833  12.715 -2.2607 -0.0933  1.1910
 2806TIP3   OH229832   1.725   6.265  14.937 -0.2949  0.1503 -0.2567
 2806TIP3    H129833   1.679   6.268  14.853 -0.3642  0.2553 -0.2156
 2806TIP3    H229834   1.660   6.231  14.998 -0.7473  1.5928  0.0801
 2807TIP3   OH229835   5.360   5.013  12.204 -0.0503  0.0110  0.3209
 2807TIP3    H129836   5.306   5.000  12.126 -0.3062  1.2301  0.2727
 2807TIP3    H229837   5.344   5.104  12.230  0.2495 -0.2852  1.6333
 2808TIP3   OH229838   1.879   6.138   0.589 -0.5203  0.4568  0.5075
 2808TIP3    H129839   1.891   6.106   0.679 -0.2561 -0.5575  0.1242
 2808TIP3    H229840   1.788   6.116   0.568 -0.7589  1.2058  0.7109
 2809TIP3   OH229841   6.488   2.474  12.040  0.3720  0.5807  0.1332
 2809TIP3    H129842   6.518   2.495  11.952 -0.9584  1.6442 -0.0823
 2809TIP3    H229843   6.393   2.470  12.033  0.1827  1.5576  1.6934
 2810TIP3   OH229844   3.610   4.570   4.177  0.1212  0.3829 -0.3618
 2810TIP3    H129845   3.622   4.594   4.085 -0.4967 -1.6355 -1.0298
 2810TIP3    H229846   3.664   4.492   4.187 -1.9264 -1.0353  0.2082
 2811TIP3   OH229847   5.478   5.800   0.877 -0.0176  1.0076 -0.2387
 2811TIP3    H129848   5.498   5.888   0.906  1.3974  0.5782  0.1467
 2811TIP3    H229849   5.514   5.795   0.788  0.8483  0.5119  0.1253
 2812TIP3   OH229850   1.729   5.545  12.374 -0.2252 -0.0957 -0.1865
 2812TIP3    H129851   1.783   5.615  12.339 -0.8939  0.5218 -0.0033
 2812TIP3    H229852   1.724   5.563  12.468  0.9537 -1.3243  0.1524
 2813TIP3   OH229853   2.540   0.509   2.856 -0.0939 -0.1595 -0.0556
 2813TIP3    H129854   2.548   0.601   2.831 -0.3359  0.1309  0.8849
 2813TIP3    H229855   2.504   0.512   2.945  0.2057 -1.1528  0.1054
 2814TIP3   OH229856   6.252   2.412  15.889 -0.6563  0.4741 -0.6296
 2814TIP3    H129857   6.294   2.455  15.814  0.6117  2.0833  0.9071
 2814TIP3    H229858   6.325   2.376  15.940 -1.2213  1.7744  1.1900
 2815TIP3   OH229859   4.011   2.933   1.656 -0.1816 -0.1785  0.3459
 2815TIP3    H129860   4.009   2.992   1.581  0.2549 -0.2831  0.2473
 2815TIP3    H229861   3.969   2.852   1.625 -1.4085  0.3054  0.6908
 2816TIP3   OH229862   1.896   4.381   0.057  0.1464 -0.4223 -0.0837
 2816TIP3    H129863   1.850   4.300   0.081 -1.2424 -0.2947 -2.0974
 2816TIP3    H229864   1.876   4.442   0.128 -0.9293 -1.0770  0.2088
 2817TIP3   OH229865   6.610   4.228  14.124 -0.0553 -0.1655 -0.4651
 2817TIP3    H129866   6.591   4.312  14.083 -1.1199 -0.7850 -1.2994
 2817TIP3    H229867   6.564   4.231  14.208  0.4934  0.3361 -0.1688
 2818TIP3   OH229868   0.557   4.543   4.252  0.3707 -0.2465  0.7272
 2818TIP3    H129869   0.562   4.630   4.212  0.9319 -0.7568 -0.3469
 2818TIP3    H229870   0.533   4.560   4.343  1.6010  1.1124  0.8423
 2819TIP3   OH229871   5.671   5.156  13.513 -0.3040  0.7244  0.4197
 2819TIP3    H129872   5.640   5.211  13.440 -0.1190  0.4570  0.1341
 2819TIP3    H229873   5.636   5.069  13.493 -0.2558  0.6521  0.6537
 2820TIP3   OH229874   4.664   0.808  12.605 -0.7959 -0.5926  0.4340
 2820TIP3    H129875   4.756   0.830  12.591 -0.9182 -1.2002 -1.7443
 2820TIP3    H229876   4.661   0.772  12.694  0.9419  0.0040  0.7695
 2821TIP3   OH229877   4.911   4.977  13.345  0.2399  0.5149  0.3423
 2821TIP3    H129878   4.857   4.898  13.340  1.6552 -0.4899 -0.0792
 2821TIP3    H229879   4.907   5.003  13.437 -1.2337  0.6933  0.2465
 2822TIP3   OH229880   6.483   1.005  15.605  0.1581  0.1469 -0.0275
 2822TIP3    H129881   6.429   1.025  15.529  1.2487  1.0543 -0.5987
 2822TIP3    H229882   6.447   1.057  15.676 -0.6641 -0.4491 -0.0028
 2823TIP3   OH229883   3.776   6.140   5.355  0.5833 -0.2030 -0.2642
 2823TIP3    H129884   3.864   6.166   5.329  0.0630 -1.6209 -4.0672
 2823TIP3    H229885   3.768   6.050   5.325 -1.7448 -0.5617  1.2040
 2824TIP3   OH229886   5.681   3.413  11.395  0.0354 -0.5226 -0.4190
 2824TIP3    H129887   5.754   3.350  11.392 -0.7590 -1.4334 -1.6570
 2824TIP3    H229888   5.604   3.360  11.377 -1.0303  0.3390  1.3562
 2825TIP3   OH229889   0.222   1.510  13.602 -0.3430  0.0077 -0.3272
 2825TIP3    H129890   0.249   1.453  13.674  1.3826  1.7275  0.4782
 2825TIP3    H229891   0.127   1.518  13.613 -0.3576 -1.1641  0.6758
 2826TIP3   OH229892   6.002   5.155   3.116 -0.1915 -0.4832 -0.0335
 2826TIP3    H129893   6.018   5.205   3.036 -0.8525  1.8185  1.1800
 2826TIP3    H229894   6.088   5.142   3.155 -0.1187  0.9385  0.3046
 2827TIP3   OH229895   5.046   2.004   5.328 -0.7957 -0.0675  0.6622
 2827TIP3    H129896   5.045   2.061   5.405  0.1642  1.2255 -0.2286
 2827TIP3    H229897   5.047   1.915   5.363  0.0405  0.4998  2.1491
 2828TIP3   OH229898   4.218   4.517   1.891 -0.4094 -0.2571  0.5045
 2828TIP3    H129899   4.173   4.440   1.926 -0.5456 -0.6315 -0.4712
 2828TIP3    H229900   4.173   4.536   1.808  0.0464  0.4755  0.4135
 2829TIP3   OH229901   6.144   4.615   1.211 -0.4276  0.4605  0.3004
 2829TIP3    H129902   6.114   4.536   1.255 -2.5522  1.6609  1.1892
 2829TIP3    H229903   6.234   4.628   1.243 -0.4630 -0.9269  1.0346
 2830TIP3   OH229904   1.800   1.270  12.506 -0.5807  0.3678  0.4456
 2830TIP3    H129905   1.889   1.253  12.475 -1.6644 -2.7460 -1.4245
 2830TIP3    H229906   1.791   1.212  12.583 -0.9183  0.8935  0.8051
 2831TIP3   OH229907   3.547   1.292  13.324  0.7869 -0.1645 -0.5876
 2831TIP3    H129908   3.558   1.327  13.235  0.6051  0.6083 -0.3159
 2831TIP3    H229909   3.455   1.310  13.345  0.5844 -1.1520 -0.5714
 2832TIP3   OH229910   2.107   5.061  11.441  0.3918 -0.4314 -0.3934
 2832TIP3    H129911   2.182   5.120  11.438  0.0965 -0.0189  0.0823
 2832TIP3    H229912   2.059   5.079  11.360 -0.4035  0.9560  0.3415
 2833TIP3   OH229913   1.337   3.042   0.449  0.0994  0.0447  0.1610
 2833TIP3    H129914   1.259   3.002   0.410  1.8971 -1.4706 -2.1569
 2833TIP3    H229915   1.371   3.100   0.381 -0.2245  2.5835  2.0256
 2834TIP3   OH229916   3.171   2.678   3.487 -0.1128 -0.1915  0.0158
 2834TIP3    H129917   3.078   2.666   3.506 -0.3945 -0.7020 -1.5478
 2834TIP3    H229918   3.209   2.590   3.493  0.0450 -0.1578 -0.4331
 2835TIP3   OH229919   1.304   3.491  15.716  0.6077 -0.5233  0.0751
 2835TIP3    H129920   1.359   3.447  15.650  0.0771 -0.6101 -0.3157
 2835TIP3    H229921   1.359   3.561  15.750  0.4957  0.2617 -1.2911
 2836TIP3   OH229922   5.993   0.329  13.029 -0.0371  0.2947 -0.4279
 2836TIP3    H129923   5.899   0.347  13.031 -0.3727 -1.2673 -0.6288
 2836TIP3    H229924   6.009   0.280  13.109  0.3995 -0.2984 -0.8688
 2837TIP3   OH229925   1.047   1.946   6.171 -0.0403  0.0338 -0.1332
 2837TIP3    H129926   0.970   1.997   6.146 -0.4801 -0.0756  0.9470
 2837TIP3    H229927   1.048   1.948   6.266 -0.1029 -2.0095 -0.0283
 2838TIP3   OH229928   2.650   5.854  14.052  0.4847  0.1200 -0.1145
 2838TIP3    H129929   2.651   5.918  13.980  1.7286 -0.7721 -0.9327
 2838TIP3    H229930   2.573   5.799  14.034  1.4048 -0.7897 -1.4323
 2839TIP3   OH229931   5.254   2.595   0.243  0.5488 -0.3247  0.0958
 2839TIP3    H129932   5.160   2.605   0.233  0.2946 -1.0094  1.6246
 2839TIP3    H229933   5.285   2.574   0.155 -0.7779 -0.5744 -0.3347
 2840TIP3   OH229934   1.535   4.469  15.012 -0.5931  0.0619 -0.0603
 2840TIP3    H129935   1.522   4.464  14.917 -0.2626 -1.8870 -0.0355
 2840TIP3    H229936   1.525   4.563  15.032 -1.0765  0.4643 -1.9401
 2841TIP3   OH229937   1.377   6.491  13.766  0.9984  0.0992  0.6191
 2841TIP3    H129938   1.311   6.480  13.834 -1.0003 -3.2246 -1.5467
 2841TIP3    H229939   1.359   6.577  13.729 -0.7986  0.1135  1.4195
 2842TIP3   OH229940   1.466   2.482  14.503  0.0540  0.2130  0.4988
 2842TIP3    H129941   1.516   2.455  14.579  0.5600  0.6701  0.3333
 2842TIP3    H229942   1.531   2.510  14.439 -0.2849 -1.3422 -0.5973
 2843TIP3   OH229943   4.219   5.153   6.238  0.1748  0.7087  0.4235
 2843TIP3    H129944   4.255   5.068   6.260 -0.9608 -0.2662 -1.2395
 2843TIP3    H229945   4.172   5.181   6.316  3.4578  1.5464  2.2864
 2844TIP3   OH229946   5.836   6.538  15.750  0.2670  0.2349  0.1805
 2844TIP3    H129947   5.900   6.569  15.814  0.3768 -0.7702  0.5674
 2844TIP3    H229948   5.763   6.506  15.802 -0.7693  1.7308 -0.2569
 2845TIP3   OH229949   3.501   0.329  14.160 -0.6802  0.0212 -0.0043
 2845TIP3    H129950   3.514   0.337  14.066  2.4937 -0.1354  0.3267
 2845TIP3    H229951   3.527   0.414  14.195  1.0449 -0.8332  0.9047
 2846TIP3   OH229952   4.377   3.059   5.149 -0.7965 -0.0791 -0.5238
 2846TIP3    H129953   4.468   3.088   5.152 -1.2603  1.3939  0.4241
 2846TIP3    H229954   4.382   2.963   5.159  0.6256  0.0136 -0.0749
 2847TIP3   OH229955   1.941   3.636   4.042 -0.5090 -0.4679 -0.5733
 2847TIP3    H129956   1.983   3.552   4.056 -0.4058 -0.4150 -0.5611
 2847TIP3    H229957   1.889   3.651   4.121  2.3080  1.1666  1.1546
 2848TIP3   OH229958   1.768   6.728  13.092 -0.0625 -0.0381  0.0253
 2848TIP3    H129959   1.681   6.688  13.099 -1.3102  2.6077  1.2488
 2848TIP3    H229960   1.799   6.732  13.183  1.2370 -0.6879 -0.3717
 2849TIP3   OH229961   0.321   0.904  11.333 -0.3916 -0.3894 -0.1265
 2849TIP3    H129962   0.259   0.858  11.276  0.5127 -0.9278 -0.7198
 2849TIP3    H229963   0.377   0.953  11.272  1.2516 -1.7906  0.1519
 2850TIP3   OH229964   5.930   3.322  15.559  0.4937  0.6426 -0.9037
 2850TIP3    H129965   5.930   3.393  15.495  0.2533  1.4984  0.0124
 2850TIP3    H229966   5.850   3.337  15.610  0.8432  0.1696 -0.2071
 2851TIP3   OH229967   0.035   0.256  12.847 -0.2522 -0.2071  0.6559
 2851TIP3    H129968   0.111   0.308  12.821  0.2342 -2.0781 -2.1722
 2851TIP3    H229969  -0.037   0.288  12.792 -1.4911  1.1583  2.9004
 2852TIP3   OH229970   4.493   6.251  12.136  0.5064 -0.1321 -0.0307
 2852TIP3    H129971   4.499   6.156  12.130 -0.4421 -0.1487 -0.9192
 2852TIP3    H229972   4.576   6.278  12.176  0.9502 -1.2905 -0.1426
 2853TIP3   OH229973   2.035   1.510   6.714 -0.3598 -0.2832  0.3544
 2853TIP3    H129974   2.084   1.453   6.773 -1.4135 -0.6613  0.8850
 2853TIP3    H229975   2.098   1.534   6.646  0.9610  0.3983  1.7675
 2854TIP3   OH229976   5.721   2.166   0.714  0.0327 -0.2388 -0.0826
 2854TIP3    H129977   5.699   2.251   0.675 -0.7898  0.1410  1.1639
 2854TIP3    H229978   5.684   2.102   0.653 -0.0300  0.3067 -0.6284
 2855TIP3   OH229979   0.942   3.790   2.637  0.2253  0.2118 -0.1253
 2855TIP3    H129980   0.961   3.871   2.684 -2.3077  1.5571 -1.1977
 2855TIP3    H229981   0.976   3.720   2.694  0.9028  1.9293  1.6887
 2856TIP3   OH229982   5.949   4.390  12.738 -0.6616  0.5555 -0.2383
 2856TIP3    H129983   6.028   4.443  12.731 -1.7900  2.2884 -0.4986
 2856TIP3    H229984   5.906   4.398  12.652  0.7113 -3.5730 -1.5469
 2857TIP3   OH229985   6.165   5.145  12.872  0.3875 -0.1644  0.2299
 2857TIP3    H129986   6.116   5.130  12.954  1.2193 -0.9457  0.6038
 2857TIP3    H229987   6.103   5.124  12.803  0.0860 -0.8817  0.6982
 2858TIP3   OH229988   3.103   5.336  14.232 -0.0098  0.1866 -0.2169
 2858TIP3    H129989   3.024   5.296  14.197  0.4869 -0.2725 -0.8274
 2858TIP3    H229990   3.075   5.373  14.316 -0.6208 -0.9370  0.0983
 2859TIP3   OH229991   0.945   4.622   0.805  0.0406  0.2763 -0.0611
 2859TIP3    H129992   0.983   4.556   0.748 -0.8949 -0.7298  0.4437
 2859TIP3    H229993   0.973   4.705   0.768 -1.7919 -0.2635 -2.9005
 2860TIP3   OH229994   1.475   1.512  15.107 -0.4077  0.3497  0.7447
 2860TIP3    H129995   1.549   1.558  15.145  0.1570  1.2232 -1.2982
 2860TIP3    H229996   1.510   1.426  15.083 -0.1477  0.6153  0.1551
 2861TIP3   OH229997   5.966   3.835  12.667 -0.1941 -0.6552 -0.3574
 2861TIP3    H129998   5.908   3.908  12.689 -3.7913 -3.4267  0.5350
 2861TIP3    H229999   5.981   3.843  12.573  3.2820  3.4262  0.2455
 2862TIP3   OH230000   2.143   4.689   2.997 -0.0072  0.3086  0.5718
 2862TIP3    H130001   2.102   4.633   3.063  0.9110  0.4263  1.2562
 2862TIP3    H230002   2.207   4.741   3.046  1.0489  0.0409 -0.5025
 2863TIP3   OH230003   5.654   2.973  16.457  0.2498 -0.3412 -0.2033
 2863TIP3    H130004   5.747   2.956  16.466  0.3705 -0.5611 -1.5906
 2863TIP3    H230005   5.646   3.069  16.462  0.2017 -0.4035  2.3981
 2864TIP3   OH230006   3.158   0.055   0.765  0.0138 -0.3755  0.4154
 2864TIP3    H130007   3.245   0.019   0.750 -0.4464 -1.1811 -0.4473
 2864TIP3    H230008   3.098  -0.012   0.731 -0.8822  2.1151 -3.4804
 2865TIP3   OH230009   2.696   6.521   1.116 -0.6035 -0.0555 -0.2809
 2865TIP3    H130010   2.681   6.516   1.211 -0.0281 -0.0004 -0.1840
 2865TIP3    H230011   2.762   6.589   1.106 -0.1625 -0.5284 -0.6646
 2866TIP3   OH230012   5.455   4.648  14.601  0.4499  0.0580  0.3376
 2866TIP3    H130013   5.399   4.687  14.534  1.3541  1.5366  0.4178
 2866TIP3    H230014   5.480   4.563  14.564  0.0323  0.3670 -0.6996
 2867TIP3   OH230015   0.258   0.868  12.116 -0.1560 -0.2537  0.1551
 2867TIP3    H130016   0.237   0.911  12.199  2.5399  1.3933  0.1010
 2867TIP3    H230017   0.183   0.885  12.060 -0.6582  1.4069  1.2657
 2868TIP3   OH230018   1.813   4.303  12.202  0.3080 -0.4641  0.1985
 2868TIP3    H130019   1.728   4.332  12.170  0.8242 -0.3282 -1.1223
 2868TIP3    H230020   1.794   4.256  12.283 -1.2849 -2.4603 -1.2316
 2869TIP3   OH230021   0.029   0.206  14.466 -0.1692 -0.6711 -0.3965
 2869TIP3    H130022  -0.041   0.217  14.531  1.2026  0.6447  0.9385
 2869TIP3    H230023  -0.000   0.133  14.411 -2.5253 -0.2314  0.1652
 2870TIP3   OH230024   0.877   6.260   3.468  0.4855  0.1792 -0.0400
 2870TIP3    H130025   0.787   6.278   3.496  0.5530  0.4768 -0.0050
 2870TIP3    H230026   0.877   6.275   3.374  0.1873 -1.1136 -0.2630
 2871TIP3   OH230027   1.605   0.125  10.453 -0.1129  0.0123 -1.2138
 2871TIP3    H130028   1.550   0.138  10.376 -1.8492 -0.7971 -0.1589
 2871TIP3    H230029   1.597   0.031  10.473  1.4682 -0.0802 -0.8779
 2872TIP3   OH230030   5.416   6.552  15.540 -0.2615 -0.7627 -0.1765
 2872TIP3    H130031   5.389   6.461  15.523 -2.1534 -0.6144  1.6285
 2872TIP3    H230032   5.502   6.559  15.499 -0.5976 -2.9855 -1.4720
 2873TIP3   OH230033   5.319   3.217  11.858 -0.0373 -0.2315  0.6650
 2873TIP3    H130034   5.244   3.207  11.800  0.6216  3.1318 -1.0619
 2873TIP3    H230035   5.355   3.129  11.866 -1.7188 -1.2805 -1.9110
 2874TIP3   OH230036   6.743   3.498   5.612  0.0945 -0.5439 -0.5484
 2874TIP3    H130037   6.783   3.511   5.698 -2.6939 -0.9578  0.9053
 2874TIP3    H230038   6.757   3.405   5.594  2.0050 -0.1595 -1.3349
 2875TIP3   OH230039   0.713   5.330  11.870 -0.3420 -0.1131  0.3196
 2875TIP3    H130040   0.704   5.247  11.916 -0.1300 -0.4698 -0.2715
 2875TIP3    H230041   0.802   5.328  11.835 -0.2353  0.4900  0.5446
 2876TIP3   OH230042   4.717   3.852   2.599  0.6370 -0.5780 -0.4014
 2876TIP3    H130043   4.708   3.758   2.615 -0.6402 -0.5399 -0.8087
 2876TIP3    H230044   4.691   3.863   2.508 -1.2776  0.4358  0.2353
 2877TIP3   OH230045   4.625   3.964  16.921 -0.1785 -0.2684 -0.6308
 2877TIP3    H130046   4.597   3.993  17.008 -0.7787 -2.7444  0.0863
 2877TIP3    H230047   4.702   4.018  16.902  1.2380 -0.9642  2.3603
 2878TIP3   OH230048   2.424   4.722   5.620  0.2014  0.5951 -0.1395
 2878TIP3    H130049   2.515   4.696   5.601  0.0050 -0.0049 -0.2646
 2878TIP3    H230050   2.433   4.791   5.687  0.7120 -0.1783  0.6220
 2879TIP3   OH230051   0.605   2.136  11.174 -0.1552 -0.0850  0.0490
 2879TIP3    H130052   0.669   2.159  11.107  0.4056  0.0321  0.6087
 2879TIP3    H230053   0.547   2.073  11.132 -0.8643  1.2845 -1.0720
 2880TIP3   OH230054   5.663   3.826   1.237 -0.0829  0.9769  0.1062
 2880TIP3    H130055   5.730   3.802   1.173  0.2027 -0.1469  0.8053
 2880TIP3    H230056   5.674   3.920   1.249  1.0223  0.8973 -0.1938
 2881TIP3   OH230057   6.174   3.807   0.464  0.2085  0.2272 -0.2451
 2881TIP3    H130058   6.083   3.836   0.464  0.2606  0.4400 -1.2988
 2881TIP3    H230059   6.173   3.726   0.515 -0.4788  0.4890  0.1694
 2882TIP3   OH230060   4.112   2.023  16.972  0.3450  0.4988  0.0081
 2882TIP3    H130061   4.107   1.979  17.057  0.5505 -0.5968 -0.5321
 2882TIP3    H230062   4.143   2.111  16.992  1.9043 -0.2294  0.9138
 2883TIP3   OH230063   4.703   6.142  16.288  0.1537 -0.1738 -0.4373
 2883TIP3    H130064   4.718   6.237  16.293  2.0694 -0.4903  0.8197
 2883TIP3    H230065   4.686   6.116  16.379 -1.0331 -0.9657 -0.8643
 2884TIP3   OH230066   0.105   5.712  16.829  0.5040 -0.2747  0.5709
 2884TIP3    H130067   0.084   5.661  16.907  0.5151 -0.6160  0.3517
 2884TIP3    H230068   0.040   5.685  16.764  1.3294 -0.9915  0.0375
 2885TIP3   OH230069   3.191   1.275   2.285 -0.0762 -0.3124  0.2328
 2885TIP3    H130070   3.241   1.319   2.354 -0.5008 -1.0931  1.0694
 2885TIP3    H230071   3.251   1.212   2.248 -0.2857 -0.9368  0.9308
 2886TIP3   OH230072   6.598   3.327   4.456  0.3033 -0.5441 -0.0104
 2886TIP3    H130073   6.617   3.256   4.517  0.0370  0.6564  1.5454
 2886TIP3    H230074   6.661   3.316   4.385  0.8756 -1.7797  0.6574
 2887TIP3   OH230075   0.425   2.685  12.147  0.2354  0.0271 -0.5351
 2887TIP3    H130076   0.464   2.769  12.171 -0.8733  0.6475 -0.8314
 2887TIP3    H230077   0.399   2.696  12.056 -0.9182 -0.2339 -0.2504
 2888TIP3   OH230078   0.300   4.240  16.163 -0.4893 -0.0235 -0.6725
 2888TIP3    H130079   0.335   4.237  16.251  1.2127 -0.9762 -1.3416
 2888TIP3    H230080   0.239   4.167  16.158  2.9019 -3.0645 -1.5930
 2889TIP3   OH230081   3.939   3.401   4.989 -0.6820 -0.0153 -0.7856
 2889TIP3    H130082   4.024   3.358   4.977 -1.9042 -2.2426 -1.9859
 2889TIP3    H230083   3.946   3.483   4.939  0.7853 -0.0699 -0.7098
 2890TIP3   OH230084   6.464   6.570   5.926  0.3536 -0.4516  0.4554
 2890TIP3    H130085   6.396   6.573   5.859 -0.2900 -0.9579  1.0765
 2890TIP3    H230086   6.546   6.563   5.877 -0.1096 -0.7751 -0.2754
 2891TIP3   OH230087   4.983   2.299  12.219  0.0449  0.7225  0.5056
 2891TIP3    H130088   4.920   2.229  12.201 -1.8077  1.9327  1.8412
 2891TIP3    H230089   5.054   2.256  12.266 -0.7544 -0.3836  0.7347
 2892TIP3   OH230090   6.348   0.161  11.497 -0.4800  0.2250 -0.0725
 2892TIP3    H130091   6.350   0.118  11.411 -1.9789  1.7479 -0.9329
 2892TIP3    H230092   6.440   0.184  11.514 -0.0036 -1.0998 -0.7061
 2893TIP3   OH230093   2.922   4.811  14.280 -0.0865 -0.0347 -0.0133
 2893TIP3    H130094   2.920   4.787  14.188  1.2118 -0.8092  0.1351
 2893TIP3    H230095   2.892   4.902  14.283 -1.8608 -0.5431 -0.9815
 2894TIP3   OH230096   2.570   0.078  13.805 -0.4585  0.8057  0.1070
 2894TIP3    H130097   2.595   0.146  13.868  0.2055  0.4872  0.1910
 2894TIP3    H230098   2.612  -0.001  13.838  0.3134  0.7358 -1.0158
 2895TIP3   OH230099   4.031   5.675   2.965  0.0562 -0.4557  0.3445
 2895TIP3    H130100   4.022   5.763   2.929 -0.9257  0.1472  1.9247
 2895TIP3    H230101   3.961   5.624   2.923 -0.5426  0.0152  0.7528
 2896TIP3   OH230102   1.151   6.561  11.478  0.7614  0.5562 -0.2587
 2896TIP3    H130103   1.100   6.603  11.548  0.7249  1.2535 -0.6964
 2896TIP3    H230104   1.230   6.615  11.471  0.9838  0.2048 -0.4256
 2897TIP3   OH230105   0.484   0.758  17.052  0.2369  0.1567  0.5669
 2897TIP3    H130106   0.548   0.800  16.995 -0.3720  2.3052  1.3535
 2897TIP3    H230107   0.527   0.752  17.137  0.1984 -0.5562  0.5421
 2898TIP3   OH230108   2.015   6.199   3.233  0.6077 -0.3850  0.4038
 2898TIP3    H130109   1.990   6.115   3.194 -0.9068 -1.1049  2.7497
 2898TIP3    H230110   2.086   6.177   3.293  2.1193  0.5278 -0.9697
 2899TIP3   OH230111   3.744   0.949  15.098 -0.2279  0.1898  0.1038
 2899TIP3    H130112   3.754   0.858  15.127 -0.7910  0.2086  0.3689
 2899TIP3    H230113   3.656   0.952  15.059 -0.0495  0.5237 -0.2746
 2900TIP3   OH230114   2.901   2.858   4.603  0.5517 -0.0759 -0.1683
 2900TIP3    H130115   2.880   2.857   4.510 -0.8772 -0.1689  0.1236
 2900TIP3    H230116   2.974   2.919   4.611  0.6946 -0.0731 -1.3379
 2901TIP3   OH230117   1.953   0.251   4.308  0.4382 -0.0797 -0.2085
 2901TIP3    H130118   2.004   0.308   4.250  0.8451  1.0862  1.2092
 2901TIP3    H230119   1.950   0.299   4.391  0.4634 -1.9813  0.9438
 2902TIP3   OH230120   5.246   5.327   2.822 -0.6557  0.0664  0.9850
 2902TIP3    H130121   5.299   5.401   2.851 -0.2462  0.4073 -0.5597
 2902TIP3    H230122   5.166   5.366   2.788  0.0872 -0.0486 -1.0186
 2903TIP3   OH230123   1.181   5.639   0.447  0.3691  0.2534  0.0014
 2903TIP3    H130124   1.182   5.568   0.511  2.3816 -0.8664 -1.1742
 2903TIP3    H230125   1.247   5.614   0.382 -0.3916  2.1720 -1.6092
 2904TIP3   OH230126   6.686   5.747  11.358  0.1489 -0.1370  0.5446
 2904TIP3    H130127   6.704   5.781  11.270  2.8688 -0.7423  0.7729
 2904TIP3    H230128   6.687   5.652  11.347 -1.6982 -0.2466  0.9136
 2905TIP3   OH230129   6.184   2.081  12.225 -0.3669 -0.2106  0.0052
 2905TIP3    H130130   6.180   2.176  12.213 -1.6101 -0.0716  1.2807
 2905TIP3    H230131   6.174   2.046  12.136 -1.3442  0.8440 -0.3309
 2906TIP3   OH230132   0.620   4.355  15.052  0.1378  0.6063 -0.3292
 2906TIP3    H130133   0.543   4.369  14.998 -1.4977 -0.8873  1.4439
 2906TIP3    H230134   0.652   4.443  15.074 -1.7117  1.2874 -0.2599
 2907TIP3   OH230135   0.993   2.792  16.943 -0.4609 -0.1209  0.3234
 2907TIP3    H130136   0.930   2.848  16.987  0.6553  0.5755  1.0703
 2907TIP3    H230137   0.943   2.749  16.874 -1.3889  1.6867 -0.1892
 2908TIP3   OH230138   4.394   1.690  13.118 -0.6761  0.3858  0.3903
 2908TIP3    H130139   4.308   1.657  13.093 -0.5061  1.1115 -1.2641
 2908TIP3    H230140   4.448   1.612  13.129 -0.9053  0.0012 -1.0698
 2909TIP3   OH230141   3.588   4.251   5.211 -0.0946  0.0440  0.0376
 2909TIP3    H130142   3.593   4.254   5.116  1.1009 -2.0719 -0.0275
 2909TIP3    H230143   3.495   4.253   5.231 -0.3587  0.3229 -1.1814
 2910TIP3   OH230144   5.521   5.841  13.334 -0.4170 -0.3700  0.1486
 2910TIP3    H130145   5.433   5.836  13.371 -0.6740 -1.8103 -0.5798
 2910TIP3    H230146   5.569   5.770  13.377  0.4841  0.5711  0.7389
 2911TIP3   OH230147   3.134   6.453  12.700  0.4621 -0.0989  0.4208
 2911TIP3    H130148   3.071   6.389  12.668  0.3783  0.3751 -0.4036
 2911TIP3    H230149   3.080   6.524  12.735  0.4267  1.3369 -2.3059
 2912TIP3   OH230150   6.734   2.643  13.027  0.1284 -0.1189 -0.1427
 2912TIP3    H130151   6.744   2.601  12.941 -0.6213 -0.9423  0.1512
 2912TIP3    H230152   6.643   2.626  13.051  0.6420 -0.9534  1.3416
 2913TIP3   OH230153   5.316   4.188  16.175  0.8408 -0.2083  0.5338
 2913TIP3    H130154   5.405   4.175  16.142  0.4374  1.1718 -1.2455
 2913TIP3    H230155   5.262   4.131  16.121  0.4352  0.2722  0.4347
 2914TIP3   OH230156   1.877   2.146   2.584  0.0996  0.3087 -0.0565
 2914TIP3    H130157   1.912   2.125   2.671 -0.2179 -0.0237 -0.0071
 2914TIP3    H230158   1.806   2.207   2.601  0.7334  1.0869 -0.1668
 2915TIP3   OH230159   4.005   3.509  15.964  0.0154 -0.3006 -0.5398
 2915TIP3    H130160   4.040   3.511  15.875  0.4795 -1.5510 -0.4158
 2915TIP3    H230161   4.075   3.467  16.016 -0.7820 -0.8254  0.1456
 2916TIP3   OH230162   2.978   0.536  15.488 -0.1114 -0.5525  0.1190
 2916TIP3    H130163   3.010   0.548  15.398 -0.8064  1.3110  0.0752
 2916TIP3    H230164   2.969   0.625  15.522 -1.7020 -1.1506  1.3862
 2917TIP3   OH230165   4.282   1.221   3.790 -0.0754 -0.7523  0.0630
 2917TIP3    H130166   4.336   1.202   3.714 -1.0284  1.6795 -1.3210
 2917TIP3    H230167   4.207   1.269   3.755 -0.0738  1.3117  2.6013
 2918TIP3   OH230168   2.275   5.670   2.060  0.4117  0.4465  1.3409
 2918TIP3    H130169   2.240   5.756   2.083  0.4744  0.2176  2.3279
 2918TIP3    H230170   2.199   5.612   2.061  0.4325  0.4153  1.0783
 2919TIP3   OH230171   0.317   5.201  12.298  0.2078 -0.0803  0.2871
 2919TIP3    H130172   0.286   5.140  12.231 -0.2719 -2.3476  2.4068
 2919TIP3    H230173   0.257   5.188  12.372  2.0396  0.5912  1.9865
 2920TIP3   OH230174   1.935   4.187  15.100  0.0703  0.0497 -0.2158
 2920TIP3    H130175   1.884   4.179  15.181  0.2229  0.7488 -0.0419
 2920TIP3    H230176   2.025   4.166  15.126  0.1270  0.3197 -0.1985
 2921TIP3   OH230177   2.388   2.715   0.360  0.1166  0.1572  0.1264
 2921TIP3    H130178   2.473   2.710   0.316 -0.2775  0.5569 -0.6888
 2921TIP3    H230179   2.324   2.695   0.292 -0.5365  1.2508  0.3899
 2922TIP3   OH230180   5.674   3.300  12.689 -0.1466 -0.1911 -0.2554
 2922TIP3    H130181   5.609   3.360  12.725  0.7749 -0.0573  1.2558
 2922TIP3    H230182   5.700   3.340  12.606  0.8539  1.8592  0.9662
 2923TIP3   OH230183   4.797   1.921   5.140 -0.0307  0.2411 -0.1797
 2923TIP3    H130184   4.788   1.905   5.046 -1.8025 -1.5091  0.2107
 2923TIP3    H230185   4.763   1.841   5.180 -2.4685  2.2093  1.9902
 2924TIP3   OH230186   3.114   3.163  11.480 -0.6270 -0.3855  0.0715
 2924TIP3    H130187   3.202   3.128  11.467  0.0099  1.6664 -1.7928
 2924TIP3    H230188   3.085   3.188  11.392 -1.0076  3.5093  1.1026
 2925TIP3   OH230189   0.955   3.776   4.683 -0.0436  0.6816 -0.4306
 2925TIP3    H130190   0.947   3.754   4.590 -0.7464  0.2067 -0.2709
 2925TIP3    H230191   0.927   3.696   4.728  0.5070  0.8345  0.1953
 2926TIP3   OH230192   3.057   0.065   3.508  0.0649  0.1985 -0.5825
 2926TIP3    H130193   3.075   0.117   3.430  1.0974 -0.1235 -0.5759
 2926TIP3    H230194   2.972   0.097   3.539  0.3230  1.3425 -1.0053
 2927TIP3   OH230195   4.506   1.218  15.899  0.4970 -0.1136  0.7093
 2927TIP3    H130196   4.480   1.244  15.988 -3.1924 -3.0136  0.7081
 2927TIP3    H230197   4.553   1.294  15.865 -0.7947  2.4217  4.0016
 2928TIP3   OH230198   5.469   3.442  15.840 -0.0636  0.9354 -0.5603
 2928TIP3    H130199   5.506   3.454  15.927 -1.8182 -0.0389  0.3572
 2928TIP3    H230200   5.450   3.531  15.810 -0.0734  1.2477  0.3463
 2929TIP3   OH230201   4.803   1.963  15.855  0.3891  0.1412 -0.1430
 2929TIP3    H130202   4.879   2.004  15.813  0.1595  0.9997  0.2697
 2929TIP3    H230203   4.756   2.035  15.897  0.4272 -0.6292  1.3158
 2930TIP3   OH230204   4.503   0.353   4.904 -0.2407  0.2355 -0.0498
 2930TIP3    H130205   4.540   0.338   4.817 -1.0293 -0.2509 -0.3101
 2930TIP3    H230206   4.530   0.443   4.926 -1.1304  0.8471 -1.3570
 2931TIP3   OH230207   2.564   2.999   6.178  0.3407  0.2779  0.8759
 2931TIP3    H130208   2.612   3.040   6.106 -0.5430  1.2420  0.8068
 2931TIP3    H230209   2.621   3.007   6.254  0.1139  1.8471  0.9062
 2932TIP3   OH230210   2.318   5.563  10.905 -0.1554 -0.1392  0.1238
 2932TIP3    H130211   2.343   5.650  10.875  0.5577 -0.8945 -1.6312
 2932TIP3    H230212   2.245   5.538  10.849  0.2575 -1.0237 -0.0453
 2933TIP3   OH230213   4.213   4.263  15.782  0.3113  0.7757  0.2128
 2933TIP3    H130214   4.260   4.240  15.862 -0.3592  0.9771  0.6711
 2933TIP3    H230215   4.173   4.348  15.800 -0.5186  0.4503 -0.0305
 2934TIP3   OH230216   2.731   0.204  11.646 -0.2406 -0.2162  1.1783
 2934TIP3    H130217   2.784   0.255  11.708 -2.2837  0.1826  2.7041
 2934TIP3    H230218   2.682   0.270  11.596  2.9988 -0.3585 -2.6924
 2935TIP3   OH230219   6.137   4.899  14.966  0.0304 -0.3434  0.0544
 2935TIP3    H130220   6.145   4.821  15.020 -1.1844 -0.7129 -0.2735
 2935TIP3    H230221   6.043   4.910  14.953 -0.0186  2.4906  1.9735
 2936TIP3   OH230222   5.002   4.735  16.339  0.3567  0.3540  0.6510
 2936TIP3    H130223   5.075   4.797  16.337  0.6771  0.0083  1.4885
 2936TIP3    H230224   5.023   4.672  16.269  0.7350  0.3971  0.7224
 2937TIP3   OH230225   5.631   3.086   1.212 -0.2370 -0.0943 -0.1573
 2937TIP3    H130226   5.723   3.060   1.215 -0.0057  0.7739  0.5315
 2937TIP3    H230227   5.591   3.044   1.288 -0.7913 -1.7732 -1.3099
 2938TIP3   OH230228   0.858   0.209  12.697  0.1586 -0.4328  0.3605
 2938TIP3    H130229   0.877   0.171  12.611  0.0621 -0.1784  0.2263
 2938TIP3    H230230   0.900   0.150  12.759 -2.2848 -2.3537  0.3628
 2939TIP3   OH230231   3.596   2.209   1.308  0.1029 -1.0118  0.5251
 2939TIP3    H130232   3.651   2.230   1.384  1.4814 -1.2984 -0.3558
 2939TIP3    H230233   3.659   2.197   1.236 -1.2297  1.1267 -1.1286
 2940TIP3   OH230234   0.728   6.193  11.332 -0.2659  0.5869  0.5351
 2940TIP3    H130235   0.742   6.197  11.238  1.2925  2.2018  0.7766
 2940TIP3    H230236   0.685   6.109  11.347  2.3089 -1.1953 -1.2733
 2941TIP3   OH230237   5.972   1.642   3.170 -0.5059  0.1569 -0.4147
 2941TIP3    H130238   5.990   1.656   3.263  1.5056 -0.0724 -0.7230
 2941TIP3    H230239   5.932   1.556   3.166  0.2105 -0.2185  0.1899
 2942TIP3   OH230240   2.540   3.255  13.758 -0.2825 -0.0512 -0.0046
 2942TIP3    H130241   2.569   3.325  13.817  1.0597 -0.9474  0.4454
 2942TIP3    H230242   2.507   3.186  13.816  0.5653 -0.7255 -0.2933
 2943TIP3   OH230243   3.182   3.893   2.702 -0.1609  0.2515  0.5980
 2943TIP3    H130244   3.165   3.935   2.786 -0.7693  1.2786 -0.0230
 2943TIP3    H230245   3.108   3.833   2.690 -1.3756  1.8594 -0.2891
 2944TIP3   OH230246   2.113   5.755   0.874 -0.0224  0.5524  0.1754
 2944TIP3    H130247   2.035   5.709   0.906  0.1131 -0.7589 -1.2474
 2944TIP3    H230248   2.079   5.838   0.840 -0.4602  0.9948  1.6410
 2945TIP3   OH230249   2.493   2.698   6.561  0.2444 -0.2335  0.1094
 2945TIP3    H130250   2.400   2.718   6.551  0.0055 -1.0809  0.5489
 2945TIP3    H230251   2.495   2.627   6.626  1.0936 -1.1499 -0.8948
 2946TIP3   OH230252   0.830   0.177  11.594  0.0974 -0.2022 -0.2098
 2946TIP3    H130253   0.818   0.133  11.679 -0.2358 -1.2599 -0.7871
 2946TIP3    H230254   0.921   0.161  11.572  0.2821  0.3798  0.1021
 2947TIP3   OH230255   3.917   4.182   1.783  0.5011 -0.6295  1.0356
 2947TIP3    H130256   3.865   4.180   1.702  1.5865 -0.4742  0.3080
 2947TIP3    H230257   3.944   4.092   1.797  1.5364 -0.4401  0.3818
 2948TIP3   OH230258   2.098   3.859   3.926  0.1715  0.3641 -0.1103
 2948TIP3    H130259   2.165   3.810   3.973  0.5360  1.0136  0.0655
 2948TIP3    H230260   2.022   3.802   3.926  0.8250 -0.5306 -0.6095
 2949TIP3   OH230261   2.123   4.694  12.383 -0.2203  0.0971 -0.0801
 2949TIP3    H130262   2.089   4.637  12.452 -0.5370  0.2295 -0.1280
 2949TIP3    H230263   2.217   4.700  12.402 -0.4074  0.6935  0.7643
 2950TIP3   OH230264   0.472   2.041  14.679 -0.7526  0.0629 -0.2727
 2950TIP3    H130265   0.538   2.019  14.613 -0.5859  2.0666 -0.8524
 2950TIP3    H230266   0.389   2.043  14.630 -0.9171 -0.2352 -0.0142
 2951TIP3   OH230267   4.168   3.835   3.165 -0.3541 -0.2889 -0.3830
 2951TIP3    H130268   4.173   3.931   3.163  0.1562 -0.2909  0.5802
 2951TIP3    H230269   4.082   3.817   3.203  0.2166 -0.1978  0.9879
 2952TIP3   OH230270   1.300   3.706   5.047  0.0192 -0.4957  0.1893
 2952TIP3    H130271   1.356   3.629   5.055  1.0134 -0.1365 -2.3650
 2952TIP3    H230272   1.358   3.774   5.012 -1.9374 -0.1816 -2.8564
 2953TIP3   OH230273   0.353   3.650  14.628  0.5720  0.5671 -0.1990
 2953TIP3    H130274   0.431   3.695  14.594  0.3278  1.1751  0.0395
 2953TIP3    H230275   0.356   3.664  14.722 -0.1422  1.1074 -0.2472
 2954TIP3   OH230276   3.840   3.129  12.292  0.0834  0.0076  0.0673
 2954TIP3    H130277   3.825   3.090  12.378 -0.0563  0.6960  0.3661
 2954TIP3    H230278   3.762   3.183  12.277  1.0783  1.6722  0.5269
 2955TIP3   OH230279   6.517   2.529  17.238  0.1175 -0.1791  0.0829
 2955TIP3    H130280   6.507   2.476  17.316 -1.1046 -0.3763 -0.1887
 2955TIP3    H230281   6.434   2.577  17.230  0.3640  0.1173 -0.8790
 2956TIP3   OH230282   1.245   4.824   1.983 -0.1853 -0.0295  0.1921
 2956TIP3    H130283   1.271   4.916   1.979  0.6012 -0.2009  1.1102
 2956TIP3    H230284   1.294   4.783   1.912 -0.6399  0.2755 -0.3065
 2957TIP3   OH230285   1.685   5.188  15.249 -0.2475  0.0729 -0.3660
 2957TIP3    H130286   1.636   5.261  15.286  0.1922  0.2149 -0.0636
 2957TIP3    H230287   1.738   5.154  15.321 -1.5499 -1.5092 -0.0991
 2958TIP3   OH230288   5.016   0.835   2.721 -0.2805 -0.7780  0.1906
 2958TIP3    H130289   4.949   0.771   2.699 -1.2954  0.8134 -1.7513
 2958TIP3    H230290   4.967   0.916   2.739  1.0443  0.4099 -1.1909
 2959TIP3   OH230291   6.626   6.010   4.191  0.2502 -0.8581 -0.2973
 2959TIP3    H130292   6.637   6.045   4.103 -1.3624  0.3669 -0.0479
 2959TIP3    H230293   6.568   5.935   4.179 -1.4042  0.3417 -0.1221
 2960TIP3   OH230294   4.906   3.630   1.981 -0.0771 -0.2854 -0.0265
 2960TIP3    H130295   4.945   3.576   2.050 -1.8662 -0.6806  0.7158
 2960TIP3    H230296   4.848   3.691   2.027 -2.0875 -1.2065 -1.1963
 2961TIP3   OH230297   5.160   2.845  11.555 -0.5193  0.3274 -0.1255
 2961TIP3    H130298   5.065   2.836  11.544 -0.7647  1.7470  0.6282
 2961TIP3    H230299   5.180   2.788  11.629 -0.6170 -0.6659 -0.8358
 2962TIP3   OH230300   0.155   2.071   3.808 -0.1372 -0.3037 -0.3258
 2962TIP3    H130301   0.159   1.975   3.807  0.0670 -0.2988 -0.0795
 2962TIP3    H230302   0.063   2.091   3.821 -0.0076 -0.4798  0.9829
 2963TIP3   OH230303   4.697   1.017  11.988  0.2835  0.5036 -0.2725
 2963TIP3    H130304   4.713   1.037  11.895 -0.8616  0.1146 -0.5673
 2963TIP3    H230305   4.608   1.048  12.004 -1.4503 -3.6925 -0.6073
 2964TIP3   OH230306   5.629   5.856   1.527 -0.0394 -0.1632 -0.6645
 2964TIP3    H130307   5.554   5.880   1.582  0.0217 -0.3380 -0.5032
 2964TIP3    H230308   5.593   5.849   1.439 -0.4242 -1.2408 -0.4391
 2965TIP3   OH230309   4.532   0.028  16.325  0.2791 -0.1135  0.2197
 2965TIP3    H130310   4.522   0.087  16.250 -0.0982  0.4129  0.6779
 2965TIP3    H230311   4.472  -0.044  16.306  0.9668 -0.5247 -0.4914
 2966TIP3   OH230312   2.205   2.494   6.577 -0.2360 -0.5688 -0.3396
 2966TIP3    H130313   2.265   2.486   6.652  1.0638  1.3844 -1.0987
 2966TIP3    H230314   2.233   2.424   6.518 -0.4155 -1.2884  0.3934
 2967TIP3   OH230315   6.021   0.517  11.035  0.3438  0.2662 -0.4690
 2967TIP3    H130316   6.080   0.496  10.963  1.8988  1.4087  0.3872
 2967TIP3    H230317   5.996   0.608  11.020  3.4598  1.7581  2.0790
 2968TIP3   OH230318   3.209   3.579   2.740 -0.1581 -0.0082 -0.6588
 2968TIP3    H130319   3.253   3.664   2.734  2.6793 -1.3434 -0.6340
 2968TIP3    H230320   3.242   3.530   2.665 -2.2788 -0.9199 -1.0665
 2969TIP3   OH230321   5.524   3.033  14.376 -0.3252 -0.3479  0.7910
 2969TIP3    H130322   5.442   3.080  14.362  0.6714  1.5297  1.0715
 2969TIP3    H230323   5.503   2.969  14.445 -1.9800 -1.1187 -0.3607
 2970TIP3   OH230324   1.294   4.867   5.052 -0.5381 -0.0656  0.2173
 2970TIP3    H130325   1.347   4.789   5.070 -2.3471 -1.5221 -0.3506
 2970TIP3    H230326   1.335   4.937   5.102  1.9701 -1.0547 -0.3123
 2971TIP3   OH230327   0.307   3.014   2.955  0.5692 -0.0623 -0.0130
 2971TIP3    H130328   0.400   3.023   2.977  0.7039 -0.6642 -0.3415
 2971TIP3    H230329   0.306   2.963   2.875  0.0489  1.6079 -1.1243
 2972TIP3   OH230330   5.307   3.124   5.033  0.3365 -0.5922 -0.2673
 2972TIP3    H130331   5.377   3.059   5.027  0.0113 -1.0590  0.7398
 2972TIP3    H230332   5.226   3.073   5.028  0.0740 -0.3952  1.4284
 2973TIP3   OH230333   1.346   1.218  16.727 -0.5100  0.0516 -0.2662
 2973TIP3    H130334   1.339   1.309  16.699 -2.6013 -0.0715 -0.2376
 2973TIP3    H230335   1.395   1.223  16.810  0.0152  1.0507 -0.6160
 2974TIP3   OH230336   5.021   2.362  13.337  0.1429 -0.5430  0.0597
 2974TIP3    H130337   5.060   2.431  13.283  0.4168 -0.9920 -0.3227
 2974TIP3    H230338   4.955   2.321  13.281  1.3657 -1.9038 -0.4283
 2975TIP3   OH230339   0.523   4.421  13.015 -0.0360 -0.0256  0.6806
 2975TIP3    H130340   0.449   4.448  12.961  0.2243  1.3959  1.0142
 2975TIP3    H230341   0.578   4.368  12.957 -0.9622 -0.5250  0.2416
 2976TIP3   OH230342   2.128   4.834  16.715 -0.2815  0.0381  0.1382
 2976TIP3    H130343   2.072   4.788  16.778 -1.9297  2.3958  0.5285
 2976TIP3    H230344   2.069   4.859  16.644  0.9233  0.1029 -0.8726
 2977TIP3   OH230345   2.164   3.165  12.223  0.5274  0.0367 -0.0311
 2977TIP3    H130346   2.152   3.256  12.197 -0.0011 -0.1504 -0.4768
 2977TIP3    H230347   2.112   3.115  12.159  3.4995 -0.8445 -2.0150
 2978TIP3   OH230348   6.182   0.390   3.851 -0.2908  0.2342 -0.1424
 2978TIP3    H130349   6.223   0.359   3.770  0.1508 -0.3115  0.2820
 2978TIP3    H230350   6.240   0.459   3.882 -0.8264  0.9258 -0.6428
 2979TIP3   OH230351   2.430   3.147  17.235  0.3076  0.0961  0.0569
 2979TIP3    H130352   2.435   3.243  17.227 -1.1185  0.2222  0.4036
 2979TIP3    H230353   2.339   3.126  17.215  0.1456 -1.0029  1.7534
 2980TIP3   OH230354   1.228   5.267  16.983  0.2055  0.0426  0.5130
 2980TIP3    H130355   1.234   5.362  16.976 -0.4384  0.2958  2.7271
 2980TIP3    H230356   1.236   5.236  16.892  1.9448  2.0827 -0.1198
 2981TIP3   OH230357   1.639   3.691   3.824  0.1195 -0.0050 -0.3591
 2981TIP3    H130358   1.580   3.758   3.792 -0.1052  0.8967  1.7918
 2981TIP3    H230359   1.602   3.663   3.908  1.9733 -0.4117  0.3889
 2982TIP3   OH230360   1.823   2.865  14.592  0.0189 -0.0619 -0.3012
 2982TIP3    H130361   1.826   2.956  14.563 -1.9295  0.3324  0.5641
 2982TIP3    H230362   1.757   2.865  14.662 -0.3953 -2.2335 -0.6406
 2983TIP3   OH230363   4.666   0.828  14.933  0.0060 -0.1744  0.0604
 2983TIP3    H130364   4.638   0.847  14.844 -0.8982  0.5186  0.4783
 2983TIP3    H230365   4.619   0.748  14.957 -1.4936  0.8595  0.6789
 2984TIP3   OH230366   6.524   0.583  10.522  0.8177  0.4735 -0.3923
 2984TIP3    H130367   6.539   0.500  10.568  1.2346 -0.6652 -2.4658
 2984TIP3    H230368   6.611   0.612  10.495  0.4119 -1.2097 -4.1714
 2985TIP3   OH230369   0.626   2.799   4.803  0.4301  0.0756 -0.1176
 2985TIP3    H130370   0.593   2.835   4.721 -1.2043 -1.9281 -0.4455
 2985TIP3    H230371   0.567   2.832   4.870  0.3985 -0.0583 -0.0779
 2986TIP3   OH230372   2.899   1.996  12.482 -0.0628 -0.3830 -0.2289
 2986TIP3    H130373   2.926   2.057  12.550 -0.0358  0.6218 -1.1072
 2986TIP3    H230374   2.808   2.020  12.463 -0.6600 -1.8044  0.6439
 2987TIP3   OH230375   4.349   2.289  16.357 -0.1772  0.7737  0.2727
 2987TIP3    H130376   4.433   2.273  16.315  0.0262 -0.7576  1.1680
 2987TIP3    H230377   4.371   2.333  16.439 -0.3725  1.6407 -0.1374
 2988TIP3   OH230378   5.708   5.132   2.052 -0.6166 -0.0010 -0.1169
 2988TIP3    H130379   5.618   5.104   2.034 -0.0924 -2.0627  0.1737
 2988TIP3    H230380   5.762   5.067   2.007  0.7103  0.1399  1.2028
 2989TIP3   OH230381   5.871   2.168  17.179  0.3225 -0.6223 -0.3896
 2989TIP3    H130382   5.925   2.148  17.255 -0.2308 -1.0546 -0.1056
 2989TIP3    H230383   5.870   2.264  17.176 -0.1164 -0.5857  0.4955
 2990TIP3   OH230384   2.898   3.123  16.379 -0.0301  0.3361 -0.0367
 2990TIP3    H130385   2.832   3.130  16.309  1.1372 -0.1228 -1.2218
 2990TIP3    H230386   2.861   3.174  16.451 -1.9216 -0.3253 -0.4652
 2991TIP3   OH230387   5.963   0.523  13.242  0.2220 -0.0662 -0.6115
 2991TIP3    H130388   6.023   0.453  13.217  0.6707  0.6615 -1.6704
 2991TIP3    H230389   5.881   0.501  13.198 -0.2409 -0.9485  0.6623
 2992TIP3   OH230390   2.367   1.992  14.130  0.2856  0.7334  0.0843
 2992TIP3    H130391   2.325   1.933  14.191 -0.3200  1.0533 -0.0173
 2992TIP3    H230392   2.300   2.058  14.109  0.7725  1.1488 -0.2117
 2993TIP3   OH230393   1.251   3.873   1.435 -0.2168  0.0745 -0.5183
 2993TIP3    H130394   1.204   3.862   1.517 -1.5824  1.2410 -1.0987
 2993TIP3    H230395   1.338   3.903   1.461  0.5000 -2.6769  0.5959
 2994TIP3   OH230396   5.597   6.403  12.305 -0.3529 -0.2081  0.2959
 2994TIP3    H130397   5.666   6.338  12.318  0.3089  0.6602  1.2404
 2994TIP3    H230398   5.642   6.481  12.274 -1.1066 -0.0961 -0.5632
 2995TIP3   OH230399   6.406   1.171  16.241  0.0441  0.0283  0.4513
 2995TIP3    H130400   6.371   1.246  16.193  2.0768  1.3415  0.8657
 2995TIP3    H230401   6.490   1.153  16.198 -0.0498 -1.4960  0.8734
 2996TIP3   OH230402   3.499   0.861  12.339 -0.5946 -0.2093  0.2479
 2996TIP3    H130403   3.438   0.925  12.300  0.1657 -0.4607 -1.4437
 2996TIP3    H230404   3.502   0.790  12.275  0.2020 -0.9693  1.1104
 2997TIP3   OH230405   3.207   4.373  17.240  0.1395 -0.6596 -0.1229
 2997TIP3    H130406   3.157   4.296  17.267 -0.3567 -0.3916 -0.2506
 2997TIP3    H230407   3.172   4.395  17.153  1.1207 -1.0137 -0.6260
 2998TIP3   OH230408   2.514   6.687  11.195  0.4573 -0.1461  0.5397
 2998TIP3    H130409   2.573   6.761  11.210  0.8379 -0.6536  1.7109
 2998TIP3    H230410   2.492   6.657  11.283 -0.3710 -0.8952  0.0856
 2999TIP3   OH230411   2.395   2.202   0.425 -0.1561 -0.3370  0.1601
 2999TIP3    H130412   2.332   2.152   0.477  0.1082 -0.8455 -0.0128
 2999TIP3    H230413   2.361   2.292   0.428  0.4290 -0.1443  2.1200
 3000TIP3   OH230414   1.941   4.842  16.501  0.1936  0.0338  0.1961
 3000TIP3    H130415   1.935   4.750  16.525 -0.6240 -0.7816 -2.7112
 3000TIP3    H230416   1.873   4.854  16.435  0.5114  2.6509  0.2248
 3001TIP3   OH230417   2.971   1.152  16.365 -0.0437 -0.5359 -0.2414
 3001TIP3    H130418   3.025   1.215  16.414  1.1849 -1.4056 -0.4483
 3001TIP3    H230419   3.028   1.120  16.296 -1.0093 -1.0974 -0.7935
 3002TIP3   OH230420   2.541   2.605  16.264  0.7501  0.1539 -0.0478
 3002TIP3    H130421   2.493   2.688  16.256 -0.5932 -0.7131 -1.5277
 3002TIP3    H230422   2.516   2.572  16.350 -0.7497  0.1114 -0.4592
 3003TIP3   OH230423   1.790   2.449  12.283  0.0444 -0.6509 -0.0253
 3003TIP3    H130424   1.699   2.473  12.295 -0.4074 -2.4197  0.4203
 3003TIP3    H230425   1.817   2.414  12.368  0.8027 -1.1401 -0.4570
 3004TIP3   OH230426   3.923   2.604   5.443  0.4580 -0.7636  0.1798
 3004TIP3    H130427   3.943   2.582   5.533 -0.8657 -1.2192  0.3908
 3004TIP3    H230428   3.836   2.566   5.428  1.1340 -1.7230 -1.6477
 3005TIP3   OH230429   2.885   0.331   4.173  0.7007  0.1338 -0.1333
 3005TIP3    H130430   2.833   0.267   4.125  1.4378 -0.9560  0.5019
 3005TIP3    H230431   2.929   0.281   4.242  0.0385  1.5684  1.4103
 3006TIP3   OH230432   4.399   4.140  12.888  0.1141  0.5051 -0.7192
 3006TIP3    H130433   4.362   4.052  12.876  0.7953  0.3091 -1.5281
 3006TIP3    H230434   4.439   4.137  12.975 -1.1978  0.5269 -0.0918
 3007TIP3   OH230435   3.763   6.040   2.490  0.1333 -0.0879 -0.1143
 3007TIP3    H130436   3.707   6.077   2.559  1.9747  1.1797  0.7829
 3007TIP3    H230437   3.719   6.064   2.408  0.1470  2.3596  0.5107
 3008TIP3   OH230438   0.428   5.242   2.759  0.0644  0.7963  0.0361
 3008TIP3    H130439   0.472   5.326   2.751  4.1392 -1.0308  0.7015
 3008TIP3    H230440   0.495   5.178   2.735 -2.5695 -2.3420  0.3635
 3009TIP3   OH230441   3.932   0.180  11.852  0.4225  0.2767 -0.1337
 3009TIP3    H130442   3.888   0.147  11.930 -0.8319  0.1234 -0.8585
 3009TIP3    H230443   4.024   0.162  11.866  0.1593 -0.1997  1.0877
 3010TIP3   OH230444   0.963   0.383   0.857 -0.6525  0.4485  0.6213
 3010TIP3    H130445   0.886   0.418   0.902 -1.1728  0.9148 -0.6060
 3010TIP3    H230446   1.036   0.435   0.890 -0.9085  0.3078  1.4500
 3011TIP3   OH230447   2.131   2.199   5.829 -0.7146 -0.5425 -0.1275
 3011TIP3    H130448   2.127   2.252   5.750 -0.1381 -0.8362 -0.3592
 3011TIP3    H230449   2.088   2.117   5.806  0.8541 -1.2530 -0.6541
 3012TIP3   OH230450   5.624   2.031  15.080  0.2722  0.2150 -0.2366
 3012TIP3    H130451   5.694   1.990  15.030  0.9973  0.3524  0.6347
 3012TIP3    H230452   5.624   2.122  15.052  0.9696  0.3934  0.3050
 3013TIP3   OH230453   5.033   3.297  16.843  0.1713  0.4530  0.1185
 3013TIP3    H130454   5.122   3.316  16.873  0.7000 -1.1972 -0.2992
 3013TIP3    H230455   4.978   3.360  16.890  1.7587  3.2172 -1.5117
 3014TIP3   OH230456   3.644   1.263   3.598  0.1251 -0.0035  0.2190
 3014TIP3    H130457   3.550   1.277   3.608  0.4586  0.7889  3.2936
 3014TIP3    H230458   3.678   1.349   3.573  0.1248 -0.1241 -0.2069
 3015TIP3   OH230459   1.042   6.559   2.062  0.4447  0.3332 -0.4515
 3015TIP3    H130460   1.033   6.464   2.050  0.0192  0.2816  0.2018
 3015TIP3    H230461   1.014   6.597   1.979  1.3303 -0.1387 -0.9785
 3016TIP3   OH230462   2.303   2.295  16.494 -0.4535  0.2533  0.1797
 3016TIP3    H130463   2.326   2.204  16.475 -0.6466  0.4776 -1.2365
 3016TIP3    H230464   2.212   2.304  16.465 -0.3641  0.9482  0.0927
 3017TIP3   OH230465   3.631   3.269   5.129  0.0022  0.2860 -0.2857
 3017TIP3    H130466   3.549   3.313   5.151  0.1732  0.3741  0.1679
 3017TIP3    H230467   3.637   3.196   5.190 -0.6421 -0.8335 -1.4950
 3018TIP3   OH230468   3.069   4.946   3.661  0.8772 -0.1427  0.4312
 3018TIP3    H130469   3.097   4.920   3.749  1.8763 -0.5636 -0.0059
 3018TIP3    H230470   3.130   5.015   3.636  0.2570  0.3594  0.2706
 3019TIP3   OH230471   3.541   0.506   0.361  0.0173  0.3175  0.4279
 3019TIP3    H130472   3.517   0.560   0.437  0.6031  0.0036  0.8456
 3019TIP3    H230473   3.562   0.421   0.399  0.0922  0.0931 -0.1183
 3020TIP3   OH230474   0.097   3.551   3.360 -0.2707  0.1814 -0.3541
 3020TIP3    H130475   0.139   3.613   3.420 -0.3437  0.3908 -0.5171
 3020TIP3    H230476   0.037   3.605   3.308  0.6301  0.2085 -1.4176
 3021TIP3   OH230477   2.912   2.706  17.334 -0.1726  0.1783 -0.2742
 3021TIP3    H130478   2.886   2.650  17.407 -1.0022  0.1281 -0.5978
 3021TIP3    H230479   3.007   2.710  17.340 -0.2857  1.7519  1.9882
 3022TIP3   OH230480   6.013   3.071   2.377  0.2257  0.4463 -0.1284
 3022TIP3    H130481   6.107   3.083   2.389  0.5313 -1.9811  0.4536
 3022TIP3    H230482   5.981   3.045   2.464 -1.0178  1.3862 -0.2837
 3023TIP3   OH230483   2.622   0.914  10.725 -0.5418  0.1345  0.1118
 3023TIP3    H130484   2.645   0.827  10.691 -1.3946  0.0241 -0.2134
 3023TIP3    H230485   2.706   0.954  10.748  0.0041 -0.1303 -1.3119
 3024TIP3   OH230486   6.528   2.506  16.456 -0.1741  0.0932  0.1639
 3024TIP3    H130487   6.469   2.528  16.529  0.2945 -0.0251  0.5896
 3024TIP3    H230488   6.473   2.460  16.393 -0.4070 -0.5454  0.8255
 3025TIP3   OH230489   4.491   2.841  13.333  0.4137  0.0797  0.0622
 3025TIP3    H130490   4.449   2.756  13.345 -0.7708  0.7249  0.7120
 3025TIP3    H230491   4.489   2.881  13.420  1.1623  0.6823 -0.1901
 3026TIP3   OH230492   3.006   6.599  16.960  0.4769 -0.3248  0.8980
 3026TIP3    H130493   2.917   6.572  16.940  0.7690 -0.9111  0.3858
 3026TIP3    H230494   3.061   6.550  16.899  0.9919  1.8305 -0.5095
 3027TIP3   OH230495   5.788   0.313  13.893 -0.0982  0.2881  0.1234
 3027TIP3    H130496   5.779   0.384  13.829 -0.8981 -0.8882 -1.1112
 3027TIP3    H230497   5.779   0.233  13.842 -0.9275 -0.7001  1.7365
 3028TIP3   OH230498   4.053   1.428  12.815  0.4041 -0.2281 -0.0209
 3028TIP3    H130499   3.958   1.437  12.822  0.4820 -0.1750  1.1672
 3028TIP3    H230500   4.086   1.456  12.900  1.6329  1.5692 -1.0101
 3029TIP3   OH230501   1.583   6.079   3.205  0.0442 -0.3055  0.1072
 3029TIP3    H130502   1.575   6.083   3.300  1.4198 -0.8088  0.2656
 3029TIP3    H230503   1.500   6.113   3.173 -0.7404 -0.8547  1.4822
 3030TIP3   OH230504   6.574   3.052   2.044 -0.1355 -0.1103 -0.6155
 3030TIP3    H130505   6.633   3.008   2.105 -1.5604 -1.4229 -0.1174
 3030TIP3    H230506   6.526   2.981   2.002 -2.7779  0.9265  0.4660
 3031TIP3   OH230507   6.379   1.520   1.408 -0.2371 -0.3928  0.4013
 3031TIP3    H130508   6.349   1.487   1.493 -1.1905 -0.5439  0.0187
 3031TIP3    H230509   6.472   1.538   1.421 -0.0587 -1.6670  1.0946
 3032TIP3   OH230510   0.625   1.165  11.286 -0.4529 -0.5744 -0.0926
 3032TIP3    H130511   0.714   1.149  11.317 -0.2113  0.2883 -0.3214
 3032TIP3    H230512   0.610   1.258  11.302 -0.0211  0.1651 -3.1513
 3033TIP3   OH230513   1.578   1.911  15.820 -0.3318  0.3896  0.2685
 3033TIP3    H130514   1.496   1.862  15.820 -0.3036  0.1957  2.8907
 3033TIP3    H230515   1.633   1.866  15.885  2.0703  0.2266 -1.7353
 3034TIP3   OH230516   4.225   4.848   4.053  0.5990  0.1294  0.4003
 3034TIP3    H130517   4.220   4.940   4.030  1.4334  0.4391  1.3511
 3034TIP3    H230518   4.319   4.829   4.055  0.4491 -0.6274  0.5962
 3035TIP3   OH230519   0.426   2.203   0.986  0.3913  0.3158 -0.7251
 3035TIP3    H130520   0.500   2.217   1.045 -0.7730  0.3173  0.7940
 3035TIP3    H230521   0.424   2.109   0.971 -0.3065  0.0977  0.6302
 3036TIP3   OH230522   4.683   3.543  11.151  0.5279 -0.0246  0.3668
 3036TIP3    H130523   4.626   3.589  11.213 -0.5944  0.3430 -0.8782
 3036TIP3    H230524   4.633   3.464  11.128  0.1889  0.6131 -1.2159
 3037TIP3   OH230525   0.342   4.160   2.798 -0.2028  0.5216 -0.5964
 3037TIP3    H130526   0.315   4.244   2.835  0.7613  1.4427 -1.8707
 3037TIP3    H230527   0.263   4.127   2.753 -0.7389  0.4559  0.3778
 3038TIP3   OH230528   4.605   5.832   5.205 -0.4961 -0.4002 -0.1158
 3038TIP3    H130529   4.668   5.893   5.165 -0.9890 -0.3842 -0.8885
 3038TIP3    H230530   4.519   5.868   5.184 -0.7899 -1.1406 -0.2352
 3039TIP3   OH230531   4.400   3.123  17.221  0.3138  0.0407 -0.0816
 3039TIP3    H130532   4.332   3.066  17.256  0.9433 -1.6074 -1.3690
 3039TIP3    H230533   4.358   3.166  17.146 -0.1334  1.2490  0.8359
 3040TIP3   OH230534   6.078   1.680   5.495  0.2747  0.1419 -0.2172
 3040TIP3    H130535   6.109   1.770   5.484  3.1331 -0.8193 -1.0472
 3040TIP3    H230536   6.123   1.649   5.574 -1.9026 -0.1573  0.9877
 3041TIP3   OH230537   3.273   4.662  16.225 -0.6706  0.0397 -0.1464
 3041TIP3    H130538   3.219   4.614  16.163 -0.2010 -2.2742  1.1340
 3041TIP3    H230539   3.349   4.606  16.240 -0.6978  0.5480  2.3746
 3042TIP3   OH230540   3.590   4.745  15.350 -0.2909  0.1817  0.0168
 3042TIP3    H130541   3.518   4.797  15.313 -0.8881  0.8132  1.9345
 3042TIP3    H230542   3.662   4.757  15.289 -1.0032  1.7824 -0.5722
 3043TIP3   OH230543   5.746   2.910  13.738  0.3585 -0.0677 -0.0474
 3043TIP3    H130544   5.776   2.995  13.705 -0.9999 -0.0524 -1.3578
 3043TIP3    H230545   5.659   2.898  13.699  0.3659 -1.8949  0.3954
 3044TIP3   OH230546   5.834   2.237  16.720  0.0020  0.5236  0.3085
 3044TIP3    H130547   5.749   2.193  16.726  0.7948 -0.9675  1.2060
 3044TIP3    H230548   5.819   2.309  16.659 -1.1187 -1.5886 -2.0904
 3045TIP3   OH230549   4.145   4.646   3.852 -0.0945  0.1001  0.6350
 3045TIP3    H130550   4.075   4.595   3.892 -1.4612  0.4769 -1.1389
 3045TIP3    H230551   4.141   4.731   3.895  0.6203 -0.5005  1.9333
 3046TIP3   OH230552   6.290   2.707  13.810 -0.0286  0.4340 -0.4545
 3046TIP3    H130553   6.202   2.707  13.848  0.3300  0.0691  0.3943
 3046TIP3    H230554   6.307   2.798  13.787 -0.3309  0.6217  0.0766
 3047TIP3   OH230555   5.921   4.121  16.399  0.2602 -0.2438 -0.8880
 3047TIP3    H130556   5.973   4.181  16.347  1.1072  0.3353  0.5697
 3047TIP3    H230557   5.830   4.139  16.374  0.4852  1.6787 -0.4859
 3048TIP3   OH230558   3.878   1.465  13.675  0.1699 -0.2815 -0.3187
 3048TIP3    H130559   3.813   1.458  13.606 -0.8588  1.7872  0.3656
 3048TIP3    H230560   3.920   1.549  13.660  2.0723 -1.1489 -0.1773
 3049TIP3   OH230561   5.855   2.870  14.819  0.2130 -0.1797  0.0378
 3049TIP3    H130562   5.776   2.881  14.765 -0.1282  0.1855  0.5957
 3049TIP3    H230563   5.914   2.939  14.790  0.5932 -0.8717 -0.8411
 3050TIP3   OH230564   5.824   6.718   2.938  0.0502 -0.0931  0.7214
 3050TIP3    H130565   5.804   6.802   2.981  0.7712 -0.2150  1.3228
 3050TIP3    H230566   5.920   6.717   2.932 -0.0249  0.3501 -1.7849
 3051TIP3   OH230567   4.031   2.629  13.727  0.3228 -1.1362 -0.3614
 3051TIP3    H130568   4.054   2.538  13.707  0.3526 -0.9776 -1.0523
 3051TIP3    H230569   3.986   2.661  13.649 -0.1124 -0.6982  0.0564
 3052TIP3   OH230570   0.116   0.680  13.629  0.0992 -0.0346 -0.4171
 3052TIP3    H130571   0.120   0.727  13.546 -1.1934  1.8937  0.5303
 3052TIP3    H230572   0.142   0.590  13.608  3.0909  1.1093 -2.2852
 3053TIP3   OH230573   5.797   6.525  13.837 -0.2315 -1.1181 -0.0831
 3053TIP3    H130574   5.705   6.544  13.819  0.3462  0.8466 -1.1148
 3053TIP3    H230575   5.817   6.575  13.916  0.0899 -1.1659 -0.1319
 3054TIP3   OH230576   2.823   6.742   1.421 -0.0435 -0.0781  0.2642
 3054TIP3    H130577   2.848   6.657   1.385 -1.5683 -1.6683  2.5954
 3054TIP3    H230578   2.807   6.724   1.514  1.2465  3.1694  1.2543
 3055TIP3   OH230579   0.215   1.320  17.014  0.1412  0.3129  0.2484
 3055TIP3    H130580   0.277   1.276  16.956  0.1289 -0.7452  1.0043
 3055TIP3    H230581   0.135   1.329  16.963  0.3392  0.0059 -0.1139
 3056TIP3   OH230582   0.485   1.576  10.594  0.5095  0.1678  0.0373
 3056TIP3    H130583   0.528   1.515  10.654 -0.9920  0.9253  1.9582
 3056TIP3    H230584   0.392   1.556  10.601  0.2146  0.7988 -1.4964
 3057TIP3   OH230585   6.011   1.057  11.557 -0.2529 -0.4163 -0.1214
 3057TIP3    H130586   5.977   0.982  11.605 -2.9525  0.6940 -0.1368
 3057TIP3    H230587   5.935   1.114  11.544  1.4937  1.8815 -0.9461
 3058TIP3   OH230588   2.917   3.705  10.647 -0.3548 -0.1178  0.3442
 3058TIP3    H130589   2.856   3.754  10.591 -2.1354  0.0772  2.3023
 3058TIP3    H230590   3.002   3.718  10.607 -1.4882  0.2422 -2.1248
 3059TIP3   OH230591   4.948   1.883  11.236  0.2254 -0.3277  0.5513
 3059TIP3    H130592   4.912   1.798  11.211 -1.5891  1.0380 -1.9389
 3059TIP3    H230593   4.890   1.946  11.194  2.1192  2.1498  1.4605
 3060TIP3   OH230594   0.681   0.623   0.863  0.3289  0.2855  0.4039
 3060TIP3    H130595   0.631   0.700   0.889  0.7593  0.4561  0.7541
 3060TIP3    H230596   0.702   0.579   0.946  0.5698  0.1053  0.2491
 3061TIP3   OH230597   2.666   6.010   0.396 -0.2447 -0.1870  0.5671
 3061TIP3    H130598   2.590   5.998   0.340 -0.6251  0.5673  0.9101
 3061TIP3    H230599   2.636   5.988   0.484 -0.0463  0.0600  0.6979
 3062TIP3   OH230600   4.422   2.990  15.401  0.2614 -0.0026  0.3130
 3062TIP3    H130601   4.453   2.903  15.424 -1.1161 -0.3271  0.9965
 3062TIP3    H230602   4.453   3.046  15.472  3.4270  0.6473 -1.3679
 3063TIP3   OH230603   5.715   1.974   6.085  0.0454 -0.0719  0.1492
 3063TIP3    H130604   5.763   2.056   6.070  2.4935 -1.4314  0.0060
 3063TIP3    H230605   5.749   1.943   6.169 -1.0712 -0.8118  0.3352
 3064TIP3   OH230606   0.608   6.294   5.922 -0.3224 -0.0475 -0.3486
 3064TIP3    H130607   0.657   6.375   5.911 -0.5359  0.0311 -0.7477
 3064TIP3    H230608   0.674   6.230   5.949  0.3161 -0.3061 -2.3549
 3065TIP3   OH230609   3.785   4.625  15.887 -0.3248  0.2655  0.9175
 3065TIP3    H130610   3.750   4.686  15.822 -0.4872  0.3118  1.0459
 3065TIP3    H230611   3.793   4.678  15.967 -1.0143 -0.0241  1.1859
 3066TIP3   OH230612   4.748   2.100  11.743 -0.1772 -0.8390  0.3363
 3066TIP3    H130613   4.790   2.116  11.658  1.0881 -1.5408  0.8079
 3066TIP3    H230614   4.769   2.009  11.764 -0.4182 -0.6596  1.4328
 3067TIP3   OH230615   3.711   0.238   5.600  0.4112 -0.4243 -0.4682
 3067TIP3    H130616   3.619   0.264   5.597  0.2139 -0.7963  1.2941
 3067TIP3    H230617   3.713   0.150   5.562  0.1184 -0.2604 -0.8733
 3068TIP3   OH230618   1.394   2.422  16.707  0.1681 -0.2406 -0.2408
 3068TIP3    H130619   1.467   2.413  16.645 -0.7208  0.5258 -1.4339
 3068TIP3    H230620   1.323   2.372  16.667 -0.1924 -0.3918  0.5662
 3069TIP3   OH230621   4.233   0.697   0.078 -0.0448 -0.4221 -0.4637
 3069TIP3    H130622   4.234   0.785   0.042  1.3584 -0.2772 -0.1257
 3069TIP3    H230623   4.280   0.704   0.161 -1.6200 -1.1090  0.5414
 3070TIP3   OH230624   4.808   2.421   1.046  0.2001 -0.7466 -0.5157
 3070TIP3    H130625   4.747   2.416   1.119  2.6928 -2.7698  1.6237
 3070TIP3    H230626   4.788   2.344   0.993  1.4596 -1.9938  0.7514
 3071TIP3   OH230627   1.452   5.131  12.237  0.1434  0.4280  0.1907
 3071TIP3    H130628   1.472   5.038  12.237  1.5245  0.6995  0.6779
 3071TIP3    H230629   1.438   5.153  12.145 -0.3643 -0.2808  0.0915
 3072TIP3   OH230630   5.244   4.955  15.823 -0.0366 -0.7454 -0.0859
 3072TIP3    H130631   5.165   4.995  15.786  1.1781  2.0492  0.0416
 3072TIP3    H230632   5.302   4.941  15.748  0.2212 -0.5555  0.0746
 3073TIP3   OH230633   6.410   1.172  15.806 -0.7402 -0.1173  0.2235
 3073TIP3    H130634   6.444   1.249  15.852 -0.1302 -1.7118  2.7036
 3073TIP3    H230635   6.315   1.185  15.804 -0.6044  0.9153  0.1895
 3074TIP3   OH230636   4.237   3.350  13.300  0.4402  0.7196  0.1314
 3074TIP3    H130637   4.279   3.338  13.215 -0.0244  0.2899 -0.0448
 3074TIP3    H230638   4.191   3.434  13.292 -1.3240 -0.2703 -0.8045
 3075TIP3   OH230639   2.412   3.874  12.232  0.2297  0.1166  0.4628
 3075TIP3    H130640   2.501   3.852  12.258  0.9420  1.0491 -1.0611
 3075TIP3    H230641   2.361   3.869  12.313  1.1541 -2.7635  0.9695
 3076TIP3   OH230642   4.327   1.885   2.546  0.1395  0.2482  0.1819
 3076TIP3    H130643   4.319   1.891   2.451  0.8641 -0.7915  0.0370
 3076TIP3    H230644   4.413   1.844   2.560 -0.3522 -0.4567  1.2502
 3077TIP3   OH230645   2.745   1.921   4.069 -0.6243  0.2045 -0.4055
 3077TIP3    H130646   2.811   1.972   4.022  0.1240 -1.6555 -1.5171
 3077TIP3    H230647   2.787   1.899   4.152 -0.5132  0.4437 -0.3972
 3078TIP3   OH230648   0.574   6.609  15.978 -0.1973 -0.2936 -0.3149
 3078TIP3    H130649   0.537   6.521  15.988 -2.2923  0.6741  0.9677
 3078TIP3    H230650   0.523   6.648  15.907 -2.5863  1.4151  2.1519
 3079TIP3   OH230651   5.742   6.322   5.048 -0.3677  0.4743 -0.3904
 3079TIP3    H130652   5.728   6.231   5.076 -0.0425  0.7368  0.6593
 3079TIP3    H230653   5.658   6.364   5.062 -0.7150  0.1974 -1.5072
 3080TIP3   OH230654   3.439   1.574  16.486  0.1169  0.7552  0.0176
 3080TIP3    H130655   3.374   1.557  16.553  1.0021  0.9349  0.9378
 3080TIP3    H230656   3.389   1.606  16.411 -0.9142  0.2001  0.4529
 3081TIP3   OH230657   1.393   6.605   4.033  0.0206 -0.3691 -0.3454
 3081TIP3    H130658   1.443   6.675   3.991 -1.0488  1.2857  1.0262
 3081TIP3    H230659   1.307   6.608   3.992 -0.8265  0.8325  1.4108
 3082TIP3   OH230660   6.480   4.382  16.774 -0.1522  0.4062 -0.1310
 3082TIP3    H130661   6.417   4.315  16.802  1.3215 -0.0883  2.3047
 3082TIP3    H230662   6.524   4.343  16.699  0.9571 -1.6247  1.4794
 3083TIP3   OH230663   2.431   4.146   0.965  0.7289  0.0004  0.4387
 3083TIP3    H130664   2.501   4.102   1.013  0.6289 -2.4645 -1.4171
 3083TIP3    H230665   2.360   4.155   1.028 -0.0343 -4.6272  0.6313
 3084TIP3   OH230666   0.470   6.336  15.978  0.0412  0.1812 -0.3048
 3084TIP3    H130667   0.562   6.316  15.962 -0.1669 -0.5519 -0.6351
 3084TIP3    H230668   0.435   6.258  16.022 -0.5833  0.1380 -0.8461
 3085TIP3   OH230669   2.762   3.534  14.250  0.3169  0.1041 -0.2638
 3085TIP3    H130670   2.683   3.589  14.252 -1.2878 -2.0636  0.8736
 3085TIP3    H230671   2.782   3.518  14.342  1.1524 -0.6275 -0.5634
 3086TIP3   OH230672   6.415   0.317   0.689 -0.1632 -0.5452  0.1979
 3086TIP3    H130673   6.332   0.358   0.712  0.6204  1.8157 -0.7829
 3086TIP3    H230674   6.448   0.370   0.616  2.4210 -1.0405  0.8969
 3087TIP3   OH230675   1.897   0.336  15.392 -0.1882  0.0983  0.4308
 3087TIP3    H130676   1.969   0.360  15.334 -0.1225  1.0287  0.8830
 3087TIP3    H230677   1.841   0.279  15.338 -1.0535  2.2912 -1.1532
 3088TIP3   OH230678   4.624   0.758  12.895 -0.1033 -0.1950  0.5308
 3088TIP3    H130679   4.687   0.723  12.958 -0.7122  1.8390  2.3894
 3088TIP3    H230680   4.576   0.824  12.944 -0.5986  1.5192 -2.0986
 3089TIP3   OH230681   0.856   1.620  16.485  1.1774 -1.0374  0.0799
 3089TIP3    H130682   0.913   1.608  16.561 -0.2412 -0.2578  1.3117
 3089TIP3    H230683   0.771   1.585  16.512  0.3706  0.1693 -0.7570
 3090TIP3   OH230684   2.209   1.230   5.518 -0.4576 -0.6090 -0.1569
 3090TIP3    H130685   2.208   1.317   5.478  2.3133 -0.0083  0.8380
 3090TIP3    H230686   2.256   1.175   5.456  1.3343 -0.3570  0.8964
 3091TIP3   OH230687   5.546   2.248   4.995 -0.1445 -0.5638 -0.0829
 3091TIP3    H130688   5.508   2.236   5.082  0.5888 -0.6326  0.2367
 3091TIP3    H230689   5.601   2.325   5.003  0.0755 -0.6804 -0.4343
 3092TIP3   OH230690   3.098   1.488   4.174  0.1047 -0.1861  0.3563
 3092TIP3    H130691   3.190   1.464   4.180 -0.0331 -1.1939 -0.9985
 3092TIP3    H230692   3.063   1.472   4.262  1.0722 -0.4700  0.7007
 3093TIP3   OH230693   1.549   2.022   0.461  0.2493 -0.1609 -0.0899
 3093TIP3    H130694   1.562   1.927   0.466  0.5046 -0.0959  0.6439
 3093TIP3    H230695   1.497   2.035   0.382  0.0355 -0.9322 -0.0875
 3094TIP3   OH230696   5.564   2.923   4.353  0.0825  0.4244  0.1817
 3094TIP3    H130697   5.598   2.834   4.338 -0.1959  0.5843 -1.6542
 3094TIP3    H230698   5.620   2.979   4.298  1.0027  1.5862  2.1915
 3095TIP3   OH230699   5.873   5.432   0.308  0.0826  0.0128 -0.1350
 3095TIP3    H130700   5.903   5.523   0.317  0.1722 -0.1175  0.9968
 3095TIP3    H230701   5.778   5.440   0.295  0.2165  0.3007 -1.0278
 3096TIP3   OH230702   2.963   3.858   1.435 -0.4360  0.1415  0.0879
 3096TIP3    H130703   2.876   3.896   1.423 -1.0518 -0.9372  0.9521
 3096TIP3    H230704   2.973   3.851   1.530  0.2214 -0.5789 -0.0210
 3097TIP3   OH230705   1.883   3.311   4.287  0.3319  0.3574  0.0960
 3097TIP3    H130706   1.904   3.404   4.290 -0.9832  0.8728 -3.0373
 3097TIP3    H230707   1.872   3.286   4.379 -0.7383  3.6341  0.9835
 3098TIP3   OH230708   1.333   3.726  12.982  0.2195 -0.1159  0.2815
 3098TIP3    H130709   1.359   3.700  13.070  0.5449  0.2976  0.3100
 3098TIP3    H230710   1.388   3.672  12.924 -1.1146 -1.5597  0.2957
 3099TIP3   OH230711   5.667   4.572  16.991 -0.3208  0.4758  0.2464
 3099TIP3    H130712   5.695   4.548  16.903 -1.3887 -0.5332  0.1675
 3099TIP3    H230713   5.722   4.648  17.013 -0.0061  0.7219 -1.2578
 3100TIP3   OH230714   0.114   0.606  15.722 -0.0846 -0.0706  0.0133
 3100TIP3    H130715   0.033   0.657  15.727  0.2876  0.4682  0.7616
 3100TIP3    H230716   0.089   0.518  15.750 -0.6378 -0.2076 -0.8540
 3101TIP3   OH230717   0.405   4.751  15.976 -0.3112  0.5146 -0.0487
 3101TIP3    H130718   0.361   4.714  16.053  0.2035  0.4604  0.2225
 3101TIP3    H230719   0.391   4.845  15.983 -1.7156  0.3870 -0.7955
 3102TIP3   OH230720   0.907   6.663   0.534  0.1763  0.2776  0.0699
 3102TIP3    H130721   0.856   6.583   0.540  0.3032  0.0749 -1.3024
 3102TIP3    H230722   0.967   6.649   0.461  0.0830  1.6781 -0.3143
 3103TIP3   OH230723   3.714   3.224  11.067 -0.3990  0.0901  0.3331
 3103TIP3    H130724   3.688   3.166  10.996 -1.7694  0.8276  0.1822
 3103TIP3    H230725   3.805   3.248  11.047 -0.1931 -1.0874 -0.2043
 3104TIP3   OH230726   6.293   2.982  15.776  0.5855  0.2944  0.2351
 3104TIP3    H130727   6.337   2.941  15.702  1.1760 -0.2036  0.8495
 3104TIP3    H230728   6.235   3.048  15.737  1.7209  0.8243 -0.6059
 3105TIP3   OH230729   6.518   2.477   0.111  0.6691 -0.0475  0.0511
 3105TIP3    H130730   6.480   2.409   0.167  1.0199 -1.0655 -0.9171
 3105TIP3    H230731   6.611   2.474   0.130  0.8964 -0.9196 -1.0999
 3106TIP3   OH230732   2.970   3.885  16.988 -0.1661 -0.1526  0.3917
 3106TIP3    H130733   2.995   3.907  16.898  0.4194 -1.6680  0.1439
 3106TIP3    H230734   2.874   3.882  16.985 -0.1664  0.1159 -0.1036
 3107TIP3   OH230735   3.617   5.701  17.094 -0.4102  0.0185 -0.3504
 3107TIP3    H130736   3.552   5.767  17.117  1.3677  2.0753 -0.8577
 3107TIP3    H230737   3.630   5.711  17.000 -0.0991 -1.0608 -0.4356
 3108TIP3   OH230738   0.952   2.787   3.541  0.5665  0.4458  0.5996
 3108TIP3    H130739   0.998   2.817   3.619 -0.4695  0.8123  1.0867
 3108TIP3    H230740   1.022   2.764   3.479  1.3925  1.1929  1.2328
 3109TIP3   OH230741   0.252   3.854  15.660  0.4419 -0.0042 -0.0312
 3109TIP3    H130742   0.256   3.798  15.737  1.0797  1.5557  1.1140
 3109TIP3    H230743   0.162   3.847  15.629 -0.4376  0.9964  2.1503
 3110TIP3   OH230744   1.862   5.529   4.294 -0.8861 -0.1667  0.0144
 3110TIP3    H130745   1.885   5.572   4.212 -0.7191 -0.1647  0.0615
 3110TIP3    H230746   1.900   5.441   4.286 -1.4956 -0.4154 -0.2145
 3111TIP3   OH230747   4.465   6.749  16.580  0.1147  0.7097 -0.3047
 3111TIP3    H130748   4.449   6.745  16.486  0.7267  0.3453 -0.4003
 3111TIP3    H230749   4.481   6.841  16.598  0.6645  0.6933 -0.6800
 3112TIP3   OH230750   4.920   0.109  17.105 -0.2596 -0.1029 -0.0505
 3112TIP3    H130751   4.953   0.026  17.071 -1.6693  0.3881 -2.9125
 3112TIP3    H230752   4.918   0.167  17.030 -0.6542  2.1339  1.5772
 3113TIP3   OH230753   5.788   4.724  16.020 -0.2615 -0.2774 -0.3775
 3113TIP3    H130754   5.883   4.708  16.017  0.2128  2.1481 -1.0456
 3113TIP3    H230755   5.766   4.719  16.113  0.9606  0.9773  0.0304
 3114TIP3   OH230756   0.193   6.566   1.947 -0.0235  0.2446  0.3060
 3114TIP3    H130757   0.118   6.543   2.002  0.2455  0.2405  0.6730
 3114TIP3    H230758   0.251   6.489   1.951  0.5511  0.6996  0.9766
 3115TIP3   OH230759   6.577   1.071  12.101  0.1476 -0.5598 -0.6305
 3115TIP3    H130760   6.485   1.076  12.076 -0.9702  0.7093  2.9768
 3115TIP3    H230761   6.614   1.154  12.071 -0.6654  0.1568  0.2588
 3116TIP3   OH230762   6.461   3.884   1.258 -0.0603 -0.2623  0.5976
 3116TIP3    H130763   6.517   3.819   1.217  1.0371  1.2286 -0.3794
 3116TIP3    H230764   6.439   3.945   1.188 -1.9952 -0.1696  1.2151
 3117TIP3   OH230765   4.412   5.318  13.322  0.3075  0.0406  0.0382
 3117TIP3    H130766   4.376   5.241  13.279  1.0017 -0.5979  0.5796
 3117TIP3    H230767   4.483   5.285  13.377 -1.2395  0.6112  2.5682
 3118TIP3   OH230768   6.372   4.979   2.791  0.3475 -0.2896  0.2307
 3118TIP3    H130769   6.328   4.899   2.819  0.7723 -0.4693  0.3987
 3118TIP3    H230770   6.444   4.990   2.854  0.0492  0.4437  0.4616
 3119TIP3   OH230771   4.095   4.807  14.123 -0.4516 -0.6079  0.4852
 3119TIP3    H130772   4.000   4.810  14.137 -0.4947 -3.0939  1.4462
 3119TIP3    H230773   4.109   4.848  14.038 -2.1199  1.5529  1.1607
 3120TIP3   OH230774   3.179   0.625  11.526  0.1430 -0.0822 -0.0282
 3120TIP3    H130775   3.120   0.619  11.601  0.2873  1.1074  0.1885
 3120TIP3    H230776   3.123   0.606  11.450 -0.3129  0.1262  0.2529
 3121TIP3   OH230777   0.163   2.126  11.973 -0.2938  0.5401 -0.2352
 3121TIP3    H130778   0.090   2.180  12.003 -0.5539 -0.1373  0.3880
 3121TIP3    H230779   0.161   2.049  12.031 -0.8841 -0.8734 -2.0389
 3122TIP3   OH230780   1.092   5.014   3.769 -0.2492 -0.3316  0.0037
 3122TIP3    H130781   1.128   5.095   3.734 -2.7166  0.6093 -0.6079
 3122TIP3    H230782   1.025   4.989   3.705 -1.2084 -1.4982  1.4108
 3123TIP3   OH230783   5.841   2.853   5.208 -0.4437  0.6820 -0.1716
 3123TIP3    H130784   5.842   2.947   5.226  0.6835  0.3156  2.1532
 3123TIP3    H230785   5.761   2.821   5.249 -0.5551  0.5744 -0.4774
 3124TIP3   OH230786   0.985   5.447  15.651  0.0819  0.1194 -0.0445
 3124TIP3    H130787   0.974   5.352  15.650 -0.8431  0.1340  2.1090
 3124TIP3    H230788   0.984   5.473  15.559 -1.2920 -1.7961 -0.6260
 3125TIP3   OH230789   4.126   2.149  16.405 -0.1327 -0.2538  0.1560
 3125TIP3    H130790   4.201   2.188  16.359  0.7854 -0.3180  1.5251
 3125TIP3    H230791   4.053   2.156  16.343  0.4190  2.0204 -0.3318
 3126TIP3   OH230792   0.969   2.544  12.950  0.3962  0.6347  0.4353
 3126TIP3    H130793   1.013   2.529  12.867  1.1110  0.5763  0.8146
 3126TIP3    H230794   1.008   2.480  13.010  0.1031  0.8705  0.8914
 3127TIP3   OH230795   5.136   0.733   4.548  0.2002  0.2479 -0.1310
 3127TIP3    H130796   5.202   0.689   4.494  0.0034 -0.1433 -0.0542
 3127TIP3    H230797   5.091   0.792   4.487 -0.9689 -1.2227 -0.7242
 3128TIP3   OH230798   6.370   2.901  12.181 -0.3573 -0.0565 -0.4079
 3128TIP3    H130799   6.293   2.856  12.215 -1.3536  2.1216  0.3839
 3128TIP3    H230800   6.339   2.949  12.105  0.3595  0.4049 -0.4180
 3129TIP3   OH230801   2.999   2.574   4.855 -0.3716  0.4700 -0.0232
 3129TIP3    H130802   3.081   2.574   4.904 -0.6803 -2.0581  0.6369
 3129TIP3    H230803   2.932   2.594   4.920 -0.3841  1.5942 -0.3680
 3130TIP3   OH230804   2.167   0.539   1.522  0.4081  0.0937 -0.7744
 3130TIP3    H130805   2.207   0.506   1.603 -1.9231 -0.3683  0.2716
 3130TIP3    H230806   2.158   0.633   1.535  1.4236  0.2526 -1.1598
 3131TIP3   OH230807   0.765   5.037  12.212  0.0056 -0.1052 -0.2088
 3131TIP3    H130808   0.795   5.127  12.221  0.1854 -0.2184  0.3647
 3131TIP3    H230809   0.677   5.038  12.251  0.3205 -0.3473  0.5087
 3132TIP3   OH230810   1.317   1.719  14.692  0.2827  0.2655 -0.6441
 3132TIP3    H130811   1.319   1.780  14.618  2.1427  0.4798 -0.4534
 3132TIP3    H230812   1.311   1.776  14.769 -0.1925  0.1029 -0.5595
 3133TIP3   OH230813   2.966   1.836  11.228 -0.4210 -0.1406  0.2713
 3133TIP3    H130814   2.948   1.913  11.282  1.0204  0.8402 -0.5729
 3133TIP3    H230815   3.026   1.784  11.279  2.0974  1.4829 -0.8171
 3134TIP3   OH230816   4.166   5.955  13.117 -0.2731 -0.3093 -0.2342
 3134TIP3    H130817   4.140   5.989  13.203 -2.1376 -0.8049 -0.5481
 3134TIP3    H230818   4.247   6.002  13.096 -0.5497  0.8809  1.1520
 3135TIP3   OH230819   0.228   2.146  12.431 -0.2996 -0.4397 -0.0076
 3135TIP3    H130820   0.165   2.216  12.414  0.6389  0.3638 -0.2997
 3135TIP3    H230821   0.270   2.132  12.346 -0.2309 -1.1066  0.1355
 3136TIP3   OH230822   1.286   2.176  11.573  0.1593 -0.0931 -0.1903
 3136TIP3    H130823   1.352   2.107  11.571 -0.2650 -0.4904 -1.0553
 3136TIP3    H230824   1.286   2.212  11.484 -0.9196 -0.2301 -0.2624
 3137TIP3   OH230825   6.078   2.284  13.543  0.4346  0.7264  0.1316
 3137TIP3    H130826   6.111   2.254  13.628 -0.7710 -0.2332  0.2797
 3137TIP3    H230827   6.084   2.379  13.547  1.2063  0.6500  0.9527
 3138TIP3   OH230828   6.448   4.773  12.286  0.1979 -0.6980 -0.0193
 3138TIP3    H130829   6.487   4.686  12.284  2.6017  0.2998 -0.2902
 3138TIP3    H230830   6.432   4.790  12.379  0.2197 -1.2195  0.0823
 3139TIP3   OH230831   5.424   3.369   1.387 -0.1215 -0.4623  0.0090
 3139TIP3    H130832   5.381   3.401   1.467  1.3896  0.5999  0.4500
 3139TIP3    H230833   5.472   3.292   1.415  0.2008 -0.2394  0.0752
 3140TIP3   OH230834   1.796   3.106  16.956 -0.2065  0.1855  0.4478
 3140TIP3    H130835   1.784   3.151  16.873  0.7554 -0.5133 -0.0835
 3140TIP3    H230836   1.887   3.125  16.981 -0.7328  1.1069  1.7805
 3141TIP3   OH230837   0.801   0.601  16.369 -0.1934 -0.2697  0.3384
 3141TIP3    H130838   0.810   0.563  16.282 -1.0367 -0.7494  0.4532
 3141TIP3    H230839   0.780   0.693  16.353  0.1110 -0.2491  0.0458
 3142TIP3   OH230840   4.309   3.374  16.681 -0.7008 -0.0779 -0.3627
 3142TIP3    H130841   4.392   3.394  16.723  0.1067 -1.0734 -1.4076
 3142TIP3    H230842   4.262   3.457  16.680  0.4876  0.6219 -0.1746
 3143TIP3   OH230843   4.627   5.378   4.937 -0.1981  0.1251 -0.3350
 3143TIP3    H130844   4.607   5.449   4.997  0.3835  0.3249 -0.3745
 3143TIP3    H230845   4.582   5.302   4.975  0.5630  0.1324  0.6265
 3144TIP3   OH230846   5.932   3.540  17.275 -0.3725  0.1273 -0.5700
 3144TIP3    H130847   6.007   3.500  17.320 -0.2290  0.3576 -0.6027
 3144TIP3    H230848   5.971   3.607  17.219 -0.5255 -0.3307 -1.2404
 3145TIP3   OH230849   4.353   5.890  17.094  0.4562 -0.4511  0.1119
 3145TIP3    H130850   4.427   5.938  17.057 -0.7733  1.3617 -0.1174
 3145TIP3    H230851   4.320   5.946  17.164 -2.6543  0.4616 -1.8583
 3146TIP3   OH230852   1.761   6.201   1.624 -0.6517  0.1474 -0.0953
 3146TIP3    H130853   1.798   6.280   1.662  1.2444 -0.2922 -0.8759
 3146TIP3    H230854   1.783   6.132   1.686  0.1847 -0.1706 -0.7182
 3147TIP3   OH230855   1.370   1.907  14.509  0.0823  0.3546  0.0491
 3147TIP3    H130856   1.428   1.953  14.570  0.5975  1.6396 -1.3534
 3147TIP3    H230857   1.393   1.942  14.423  1.0500 -3.0584 -1.2626
 3148TIP3   OH230858   2.580   5.295   3.205  0.2228  0.6254 -0.1269
 3148TIP3    H130859   2.592   5.299   3.299  1.6266  2.6120 -0.3104
 3148TIP3    H230860   2.668   5.305   3.169 -0.4343  1.4308 -1.6272
 3149TIP3   OH230861   2.435   5.558   0.261  0.1405 -0.1679  0.5271
 3149TIP3    H130862   2.348   5.529   0.286  0.7257 -0.6866  2.1527
 3149TIP3    H230863   2.473   5.592   0.343  0.5343  2.5283 -0.6726
 3150TIP3   OH230864   5.813   0.608   4.830  0.5125 -0.4934 -0.1857
 3150TIP3    H130865   5.807   0.633   4.738  0.9551 -3.1614 -1.0276
 3150TIP3    H230866   5.830   0.690   4.876  0.2256  0.9258 -2.4549
 3151TIP3   OH230867   6.040   1.009  14.297 -0.3080  0.3514 -0.0263
 3151TIP3    H130868   5.996   0.927  14.321  1.1245 -0.5583 -0.4009
 3151TIP3    H230869   6.036   1.062  14.377  1.6195 -1.3872  1.3401
 3152TIP3   OH230870   0.589   2.306  17.178  0.6669 -0.2457  0.0206
 3152TIP3    H130871   0.517   2.326  17.117  2.0049  2.2243 -0.8994
 3152TIP3    H230872   0.547   2.258  17.250 -2.2010  2.1856  0.1587
 3153TIP3   OH230873   5.800   1.645  17.209 -0.2519 -0.4737  0.5438
 3153TIP3    H130874   5.879   1.591  17.205 -1.4906 -2.2944 -0.6812
 3153TIP3    H230875   5.829   1.732  17.181  1.3300 -1.0607  0.2534
 3154TIP3   OH230876   2.969   3.901   3.597 -0.2317 -0.8745 -0.0444
 3154TIP3    H130877   3.031   3.848   3.646  0.4270 -0.8466 -0.8310
 3154TIP3    H230878   2.915   3.943   3.664 -0.9743 -2.7492  0.6113
 3155TIP3   OH230879   2.279   1.052   2.124 -0.0694 -0.7038 -0.6337
 3155TIP3    H130880   2.254   0.997   2.198  0.8625  1.7338  1.6846
 3155TIP3    H230881   2.373   1.038   2.114 -0.3306 -1.6807 -2.0310
 3156TIP3   OH230882   4.754   0.601  13.854  0.1940 -0.3304  0.1259
 3156TIP3    H130883   4.725   0.681  13.811 -1.0417  0.3350  2.0455
 3156TIP3    H230884   4.841   0.585  13.819  0.1493  1.4147 -0.8887
 3157TIP3   OH230885   1.820   1.948  14.885  0.4261 -0.2484  0.1363
 3157TIP3    H130886   1.802   2.042  14.880 -0.4099 -0.4749 -1.8524
 3157TIP3    H230887   1.779   1.920  14.967 -2.3538  0.5389 -0.8749
 3158TIP3   OH230888   3.514   1.102  11.874 -0.4279  0.4480  0.2192
 3158TIP3    H130889   3.522   1.174  11.812  0.6833  1.1928  1.2088
 3158TIP3    H230890   3.570   1.126  11.947 -0.4304 -1.1856  0.7972
 3159TIP3   OH230891   0.382   4.317  14.625  0.3010 -0.2416 -0.2290
 3159TIP3    H130892   0.465   4.341  14.583  0.0246  1.0813 -0.0662
 3159TIP3    H230893   0.337   4.400  14.637 -0.2520 -0.7444  1.3770
 3160TIP3   OH230894   0.413   2.307  12.061 -1.1691 -0.0205  0.5189
 3160TIP3    H130895   0.407   2.215  12.084 -1.9722 -0.5493 -1.6147
 3160TIP3    H230896   0.370   2.314  11.976 -1.7591  2.4539  0.9391
 3161TIP3   OH230897   2.513   1.306   6.303 -0.1282 -0.0725  0.1176
 3161TIP3    H130898   2.499   1.229   6.248 -0.3757 -0.2862  0.4752
 3161TIP3    H230899   2.485   1.380   6.248  0.9498 -0.1425 -0.5518
 3162TIP3   OH230900   5.855   0.580   6.359  0.2802 -0.0152 -0.3966
 3162TIP3    H130901   5.911   0.617   6.428 -0.4426 -1.7243  1.1801
 3162TIP3    H230902   5.772   0.627   6.368 -0.5916 -1.7750  1.5150
 3163TIP3   OH230903   4.091   6.605   4.272  0.0445  0.3015 -0.5627
 3163TIP3    H130904   4.096   6.685   4.324 -0.9787 -0.2616  0.4484
 3163TIP3    H230905   4.053   6.540   4.331 -0.3032 -0.6072 -1.7465
 3164TIP3   OH230906   0.819   2.095  11.753 -0.3395 -0.2881  0.2089
 3164TIP3    H130907   0.827   2.190  11.756 -2.8845 -0.0061  0.2085
 3164TIP3    H230908   0.863   2.069  11.672 -1.5276  1.1797 -0.9704
 3165TIP3   OH230909   3.396   5.887   5.256 -0.1783  0.4137 -0.2210
 3165TIP3    H130910   3.448   5.811   5.230 -1.7850 -1.2105  1.0079
 3165TIP3    H230911   3.401   5.947   5.182 -0.1088 -1.5710 -1.8988
 3166TIP3   OH230912   2.685   0.809   6.111  0.3022 -0.6104  0.3417
 3166TIP3    H130913   2.620   0.755   6.156 -2.3301  1.4143 -0.7584
 3166TIP3    H230914   2.728   0.858   6.181 -0.0917 -1.1960  1.0082
 3167TIP3   OH230915   2.535   2.170  14.750  0.4043 -0.3614  0.0073
 3167TIP3    H130916   2.467   2.212  14.802 -0.3835 -1.2990 -0.2355
 3167TIP3    H230917   2.606   2.234  14.747  0.0351  0.1462  1.3069
 3168TIP3   OH230918   3.819   3.053  14.831 -0.6056  0.0213 -0.4263
 3168TIP3    H130919   3.726   3.031  14.833 -0.9839  1.5233  0.3367
 3168TIP3    H230920   3.838   3.084  14.919  0.3111  0.8688 -0.9000
 3169TIP3   OH230921   2.496   1.061  15.249  0.1671  0.5504 -0.0884
 3169TIP3    H130922   2.414   1.016  15.267  0.8350 -0.6861 -0.0397
 3169TIP3    H230923   2.504   1.126  15.320 -1.0641  1.1503 -0.4686
 3170TIP3   OH230924   4.211   1.106  13.579  0.0026 -0.3036  0.3512
 3170TIP3    H130925   4.165   1.112  13.496  0.6496  0.3012  0.0204
 3170TIP3    H230926   4.167   1.169  13.636  1.7602  1.9696 -0.6496
 3171TIP3   OH230927   4.204   4.987   1.263  0.4867 -0.6219  0.7090
 3171TIP3    H130928   4.287   5.034   1.267  0.8738 -1.3141  1.0268
 3171TIP3    H230929   4.139   5.054   1.239  1.3155 -0.3022 -0.7368
 3172TIP3   OH230930   6.415   3.253  12.362  0.2858 -0.1336 -0.3369
 3172TIP3    H130931   6.402   3.278  12.453 -2.2279  1.6514 -1.0650
 3172TIP3    H230932   6.499   3.207  12.361  0.8303  0.5939  2.6846
 3173TIP3   OH230933   3.213   4.993  12.648 -0.7782 -0.4004 -0.2960
 3173TIP3    H130934   3.208   4.961  12.558 -0.0889 -2.1462  0.2516
 3173TIP3    H230935   3.190   5.086  12.641  0.5891 -0.1418 -2.4680
 3174TIP3   OH230936   6.598   0.928   0.193  0.2092  0.4960 -0.1120
 3174TIP3    H130937   6.630   0.942   0.282 -1.2249  0.7379  0.3831
 3174TIP3    H230938   6.642   0.996   0.141 -0.6882  1.8552  0.8465
 3175TIP3   OH230939   6.520   0.378  15.607  0.2260  0.2239  0.2759
 3175TIP3    H130940   6.468   0.424  15.673  1.2586  2.2762 -0.2619
 3175TIP3    H230941   6.595   0.343  15.655  0.8779  1.5540  0.2710
 3176TIP3   OH230942   5.557   4.958  10.761 -0.9810  0.6822  0.3065
 3176TIP3    H130943   5.594   4.915  10.684 -0.5795 -1.5102  1.6317
 3176TIP3    H230944   5.617   5.029  10.780 -0.4725  0.5541 -0.7406
 3177TIP3   OH230945   6.262   3.401  12.894  0.0578  0.0430 -0.2178
 3177TIP3    H130946   6.187   3.457  12.915 -0.2425 -0.5102  0.2327
 3177TIP3    H230947   6.337   3.444  12.936 -0.0564  0.4549 -0.4354
 3178TIP3   OH230948   4.399   0.755   6.024 -0.4829  0.4993 -0.0431
 3178TIP3    H130949   4.485   0.758   5.982 -0.9591  0.9318 -1.0159
 3178TIP3    H230950   4.388   0.664   6.051 -0.5913 -0.0418 -1.8071
 3179TIP3   OH230951   6.267   1.934  12.543  0.6206 -0.6372  0.3790
 3179TIP3    H130952   6.312   1.879  12.608  0.8057 -2.2717 -1.0516
 3179TIP3    H230953   6.178   1.943  12.578  1.3357  0.5724  2.0236
 3180TIP3   OH230954   5.407   5.038   5.666  0.5625 -0.0571  0.0187
 3180TIP3    H130955   5.489   5.006   5.629  0.1280 -1.8342  0.5426
 3180TIP3    H230956   5.350   5.049   5.590  1.4209  1.8159 -0.4337
 3181TIP3   OH230957   0.833   2.294   6.266 -0.2861 -0.3476  0.0345
 3181TIP3    H130958   0.798   2.326   6.349  0.3320 -1.1829  0.6376
 3181TIP3    H230959   0.905   2.236   6.291 -1.1567 -1.9769 -1.0004
 3182TIP3   OH230960   0.738   1.251   4.768  0.0513 -0.6480  0.1727
 3182TIP3    H130961   0.674   1.321   4.756  0.6263 -0.5236 -3.4213
 3182TIP3    H230962   0.705   1.179   4.714  1.8943 -1.3280 -0.1323
 3183TIP3   OH230963   6.386   1.272  11.161 -0.2119  0.0708 -0.5968
 3183TIP3    H130964   6.356   1.224  11.084 -1.7265 -2.0020  1.1823
 3183TIP3    H230965   6.313   1.330  11.183 -0.5550 -0.6913  0.3212
 3184TIP3   OH230966   4.854   6.545   0.379  0.1518  0.4161  0.4206
 3184TIP3    H130967   4.830   6.530   0.470  1.7118  0.9740  0.9552
 3184TIP3    H230968   4.773   6.529   0.330 -0.0895 -2.5761  1.5952
 3185TIP3   OH230969   6.618   1.324  11.038 -0.6309  1.1602 -0.1419
 3185TIP3    H130970   6.535   1.298  11.077 -1.5612  1.4854 -1.8512
 3185TIP3    H230971   6.641   1.405  11.084 -1.0501  0.8608  0.6118
 3186TIP3   OH230972   1.433   4.899   5.392  0.4476  0.7876 -0.3814
 3186TIP3    H130973   1.476   4.943   5.319  1.2592  0.1518 -0.2902
 3186TIP3    H230974   1.370   4.840   5.351 -0.0625  1.4044 -0.5192
 3187TIP3   OH230975   4.901   5.373   4.889 -0.3353 -0.3424  0.1158
 3187TIP3    H130976   4.817   5.331   4.902 -0.6537  0.4783  0.7764
 3187TIP3    H230977   4.962   5.323   4.944 -0.7932  0.3099  1.2382
 3188TIP3   OH230978   4.330   6.277   0.658 -0.3259  0.4763 -0.1931
 3188TIP3    H130979   4.390   6.285   0.584 -1.3946 -1.2728 -1.3379
 3188TIP3    H230980   4.311   6.183   0.663  0.1078  0.4620  2.6696
 3189TIP3   OH230981   5.070   4.520   5.084 -0.1132 -0.0819 -0.3051
 3189TIP3    H130982   5.160   4.509   5.055 -0.4409 -0.1235 -1.3699
 3189TIP3    H230983   5.040   4.431   5.104  0.1896 -0.0271  0.4064
 3190TIP3   OH230984   6.687   4.947   4.847  0.0412 -0.2943 -0.3481
 3190TIP3    H130985   6.690   5.028   4.898 -0.7321 -1.1415  1.1025
 3190TIP3    H230986   6.741   4.965   4.771  1.2720  1.0178  0.7758
 3191TIP3   OH230987   3.577   3.911  14.939 -0.5073  0.1450 -0.4425
 3191TIP3    H130988   3.503   3.900  14.998 -1.2206 -0.1545 -1.3779
 3191TIP3    H230989   3.578   3.831  14.887 -0.8180  1.0479 -1.8671
 3192TIP3   OH230990   5.760   5.731  13.897  0.3787  0.2155 -0.0112
 3192TIP3    H130991   5.819   5.765  13.964  0.0012 -0.0038  0.4423
 3192TIP3    H230992   5.745   5.640  13.922 -0.7020  0.4597  0.2930
 3193TIP3   OH230993   6.647   1.125   6.304 -0.7013 -0.1804 -0.1401
 3193TIP3    H130994   6.737   1.097   6.319 -0.9541  0.0158  2.0732
 3193TIP3    H230995   6.605   1.050   6.261  0.5285 -0.2022 -1.3760
 3194TIP3   OH230996   1.680   2.568  11.237  0.0991 -0.1468 -0.1650
 3194TIP3    H130997   1.615   2.611  11.182 -0.0308 -0.2051 -0.0571
 3194TIP3    H230998   1.752   2.547  11.177  0.1806  0.2545 -0.2104
 3195TIP3   OH230999   0.722   3.216  16.460  0.3824 -0.3824  0.1740
 3195TIP3    H131000   0.724   3.311  16.477  1.1656 -0.4485  0.4958
 3195TIP3    H231001   0.808   3.197  16.423  0.5166 -1.0995  0.8249
 3196TIP3   OH231002   2.523   2.270  12.586  0.1204 -0.4186 -0.1089
 3196TIP3    H131003   2.515   2.341  12.649 -1.3610 -1.5398  1.0316
 3196TIP3    H231004   2.435   2.260  12.550  0.9708  0.3636 -2.6152
 3197TIP3   OH231005   5.616   0.902  13.043 -0.0748 -0.3653  0.5754
 3197TIP3    H131006   5.654   0.901  12.955  0.8131  1.0835  0.8967
 3197TIP3    H231007   5.686   0.937  13.099 -1.1445  0.2808  1.5740
 3198TIP3   OH231008   6.527   4.977  16.614  0.5379 -0.6781  0.2991
 3198TIP3    H131009   6.520   4.881  16.615 -1.5925 -0.5747  1.3078
 3198TIP3    H231010   6.436   5.007  16.621  1.2781  1.3998  1.8131
 3199TIP3   OH231011   4.499   3.733  15.296 -0.3762  0.1558  0.8521
 3199TIP3    H131012   4.536   3.768  15.214  0.2319  0.7904  1.3810
 3199TIP3    H231013   4.574   3.695  15.342 -0.8085 -0.6758  0.8864
 3200TIP3   OH231014   6.335   3.111  16.594 -0.5634  0.2228  0.1748
 3200TIP3    H131015   6.350   3.170  16.668  0.6239  0.9766 -0.6137
 3200TIP3    H231016   6.424   3.089  16.564 -0.7764 -4.0986  1.9910
 3201TIP3   OH231017   6.568   5.528   5.020  0.1196  0.0255 -0.3526
 3201TIP3    H131018   6.593   5.597   4.958  3.1417 -0.6986 -0.0989
 3201TIP3    H231019   6.535   5.458   4.965 -2.3170  1.3227 -0.6638
 3202TIP3   OH231020   0.870   3.388   3.855  0.6318 -0.8379  0.0765
 3202TIP3    H131021   0.925   3.446   3.907  1.3132 -0.5315 -0.9487
 3202TIP3    H231022   0.884   3.416   3.765 -0.1936 -1.6215 -0.3142
 3203TIP3   OH231023   5.180   5.926   4.530 -1.0023  0.0293 -0.2062
 3203TIP3    H131024   5.235   5.994   4.571 -0.6579  0.3142 -1.1224
 3203TIP3    H231025   5.238   5.851   4.521 -0.1112  0.9547 -2.9898
 3204TIP3   OH231026   3.956   6.381  16.947 -0.6454 -0.0804  0.0466
 3204TIP3    H131027   3.902   6.441  16.997  0.6520  0.5513  0.7444
 3204TIP3    H231028   4.044   6.418  16.952 -0.0223 -1.4145 -0.5012
 3205TIP3   OH231029   1.169   1.478  14.697  0.1809 -0.1949  0.2015
 3205TIP3    H131030   1.224   1.426  14.638  1.0029  0.6393  0.2003
 3205TIP3    H231031   1.210   1.565  14.698 -1.5657  0.6947 -0.3953
 3206TIP3   OH231032   0.248   4.019  16.681  0.0782 -0.0897 -0.3134
 3206TIP3    H131033   0.272   3.992  16.592 -1.0127  0.2060 -0.7171
 3206TIP3    H231034   0.192   3.947  16.713 -2.8601  1.5510 -1.3979
 3207TIP3   OH231035   2.710   4.695  16.015  0.1681 -0.9443  0.1816
 3207TIP3    H131036   2.756   4.745  15.947  0.5992 -1.1588  0.3086
 3207TIP3    H231037   2.666   4.625  15.967 -0.1734 -0.6377  0.0389
 3208TIP3   OH231038   1.300   0.346   0.286  0.6684 -0.0983 -0.1452
 3208TIP3    H131039   1.306   0.424   0.232  0.0244 -0.7620 -1.2176
 3208TIP3    H231040   1.390   0.314   0.292  0.7447 -0.0346 -0.8781
 3209TIP3   OH231041   2.949   4.051  17.339  0.5778 -0.2250 -0.2580
 3209TIP3    H131042   2.919   3.964  17.367 -1.1410  0.6328  0.6934
 3209TIP3    H231043   3.018   4.074  17.400  1.3958 -1.1071 -0.8199
 3210TIP3   OH231044   6.218   1.960   2.307 -0.1600 -0.1335 -0.0920
 3210TIP3    H131045   6.180   2.014   2.237  0.8099  0.2270 -0.3542
 3210TIP3    H231046   6.160   1.975   2.382 -1.6388 -1.0860 -0.9889
 3211TIP3   OH231047   3.364   6.338  12.470 -0.1970  0.3830  0.2190
 3211TIP3    H131048   3.344   6.248  12.494  0.2522  0.0815 -0.5114
 3211TIP3    H231049   3.313   6.391  12.531  2.1849 -0.3250  3.0148
 3212TIP3   OH231050   1.560   5.534   5.657 -0.2440  0.3042 -0.1982
 3212TIP3    H131051   1.525   5.472   5.721 -3.3714  0.6745 -1.3849
 3212TIP3    H231052   1.524   5.618   5.682  1.4678  1.1353 -0.3981
 3213TIP3   OH231053   0.431   2.588  14.501  0.0611 -0.3044  0.2215
 3213TIP3    H131054   0.366   2.518  14.499 -0.0445 -0.3355  2.5299
 3213TIP3    H231055   0.487   2.570  14.425 -2.7046 -0.0930 -2.0686
 3214TIP3   OH231056   0.267   0.902   5.763  0.1546 -0.6122  0.4891
 3214TIP3    H131057   0.191   0.896   5.705  0.1814 -0.3211  0.4227
 3214TIP3    H231058   0.247   0.842   5.835  0.6198 -1.8427 -0.3752
 3215TIP3   OH231059   5.453   6.051   1.907  0.2752  0.6169 -0.5022
 3215TIP3    H131060   5.538   6.027   1.945 -0.5941  2.0109  2.7511
 3215TIP3    H231061   5.391   5.990   1.947 -0.6887  2.1083  0.4217
 3216TIP3   OH231062   4.920   5.833  14.095  0.0522  0.5375  1.0309
 3216TIP3    H131063   4.944   5.922  14.068  0.0281  0.1970 -0.1689
 3216TIP3    H231064   4.846   5.846  14.155  0.1805  1.3284  1.0373
 3217TIP3   OH231065   3.795   5.223  13.477  0.5938  0.2262  0.2178
 3217TIP3    H131066   3.762   5.222  13.567  0.4034 -1.6140  0.1812
 3217TIP3    H231067   3.731   5.170  13.428  0.9161  0.8601 -0.9209
 3218TIP3   OH231068   4.178   0.910   0.407 -0.1180  0.0519  0.5214
 3218TIP3    H131069   4.251   0.959   0.445  0.9056 -1.2447  0.2718
 3218TIP3    H231070   4.100   0.954   0.442  0.7562  1.5450  0.6882
 3219TIP3   OH231071   1.832   0.404  12.920  0.1030 -0.0363 -0.5031
 3219TIP3    H131072   1.795   0.416  12.832 -1.3877  0.1880  0.1361
 3219TIP3    H231073   1.772   0.450  12.978  0.9800 -0.3292  0.6710
 3220TIP3   OH231074   1.466   2.627  14.941  0.3264 -0.0970 -0.4830
 3220TIP3    H131075   1.449   2.720  14.928  3.4553  0.2539 -3.6119
 3220TIP3    H231076   1.406   2.601  15.011 -0.8229  4.1746  0.4176
 3221TIP3   OH231077   5.116   4.109   6.095  0.7182  0.0987  0.4047
 3221TIP3    H131078   5.031   4.068   6.083 -0.0105  2.1322 -2.8415
 3221TIP3    H231079   5.173   4.040   6.127 -1.5466 -2.0530  0.0186
 3222TIP3   OH231080   0.009   2.663  12.535  0.1543  0.1365 -0.7226
 3222TIP3    H131081  -0.009   2.572  12.557  1.1948  0.3553  1.2610
 3222TIP3    H231082   0.072   2.658  12.463 -1.5633 -0.6431 -2.2443
 3223TIP3   OH231083   1.537   1.732   0.539 -0.0140 -0.0832 -0.0098
 3223TIP3    H131084   1.511   1.685   0.619  1.3573 -0.5104  0.2082
 3223TIP3    H231085   1.474   1.703   0.473 -0.1290 -1.0430  0.5066
 3224TIP3   OH231086   0.444   2.043  16.988 -0.1523 -0.1681 -0.3791
 3224TIP3    H131087   0.524   2.004  16.953  0.4826  0.7683 -0.0231
 3224TIP3    H231088   0.450   2.135  16.963 -1.3366 -0.1631 -0.7094
 3225TIP3   OH231089   5.488   4.567   4.158 -0.0536  0.3299  0.4956
 3225TIP3    H131090   5.520   4.625   4.089 -1.7244  0.2779 -0.3967
 3225TIP3    H231091   5.499   4.616   4.239  2.2359  0.2747  0.2867
 3226TIP3   OH231092   0.379   1.472   0.613  0.6777  0.6221 -0.1652
 3226TIP3    H131093   0.422   1.441   0.532  0.6167 -0.3870  0.1680
 3226TIP3    H231094   0.427   1.551   0.636  0.7764  0.8564 -1.1291
 3227TIP3   OH231095   5.649   5.899   4.134 -0.4095 -0.3882 -0.4388
 3227TIP3    H131096   5.594   5.902   4.056  0.0172 -0.3804 -0.7463
 3227TIP3    H231097   5.727   5.951   4.110 -0.5256  0.0907  0.1889
 3228TIP3   OH231098   4.081   5.170   6.482  0.1393  0.5850  0.1719
 3228TIP3    H131099   4.032   5.246   6.515  0.7566 -0.4255  3.8962
 3228TIP3    H231100   4.025   5.095   6.501  0.6849 -0.1404 -0.9684
 3229TIP3   OH231101   1.785   1.598   3.553 -0.1341 -0.2778  0.3553
 3229TIP3    H131102   1.726   1.673   3.557 -0.0279  0.2266 -3.4193
 3229TIP3    H231103   1.731   1.527   3.518  1.0719 -0.1737 -1.8805
 3230TIP3   OH231104   2.292   4.381   1.304  0.1455 -0.2741 -0.1612
 3230TIP3    H131105   2.228   4.394   1.235  1.7593  1.7496 -1.4041
 3230TIP3    H231106   2.367   4.341   1.260  0.6722 -0.2881  0.7228
 3231TIP3   OH231107   1.453   3.642  13.222  0.4523  0.0730 -0.2572
 3231TIP3    H131108   1.488   3.726  13.254  1.6336 -0.2445 -0.6447
 3231TIP3    H231109   1.388   3.617  13.287 -0.3561  1.5742 -0.4506
 3232TIP3   OH231110   2.654   6.374  17.168 -0.2536 -0.1020 -0.5523
 3232TIP3    H131111   2.604   6.450  17.195  0.8673  0.1697  0.8968
 3232TIP3    H231112   2.722   6.365  17.235  1.2624 -0.7953 -2.0882
 3233TIP3   OH231113   3.861   4.769   0.571  0.3906  0.2729 -0.2148
 3233TIP3    H131114   3.915   4.786   0.649  1.5871 -0.1236 -0.9304
 3233TIP3    H231115   3.879   4.678   0.550  2.8754  1.2562 -2.9824
 3234TIP3   OH231116   5.446   4.297   3.799  0.0999 -0.4383 -0.0400
 3234TIP3    H131117   5.396   4.293   3.880  0.9374  2.0697  0.6762
 3234TIP3    H231118   5.399   4.359   3.744  0.5898 -0.6416 -0.7096
 3235TIP3   OH231119   1.590   0.825   2.883  0.4812  0.1437 -0.1075
 3235TIP3    H131120   1.591   0.919   2.900 -2.8486  0.2421  0.1017
 3235TIP3    H231121   1.632   0.786   2.959 -0.6984  1.3573  1.2192
 3236TIP3   OH231122   4.956   5.707  10.611 -0.1674  0.6019  0.1576
 3236TIP3    H131123   5.016   5.762  10.561  1.9560 -1.6283  0.0553
 3236TIP3    H231124   4.869   5.738  10.587  0.8830  3.1253 -0.7087
 3237TIP3   OH231125   6.226   2.560  16.876 -0.6870 -0.2580  0.0338
 3237TIP3    H131126   6.149   2.506  16.896 -0.8554  0.2007  0.6738
 3237TIP3    H231127   6.207   2.644  16.918 -0.0214 -0.0045 -0.1696
 3238TIP3   OH231128   6.070   6.598  15.560  0.3414 -0.4495 -0.0362
 3238TIP3    H131129   6.039   6.649  15.484  0.8870  0.7711  0.5316
 3238TIP3    H231130   5.991   6.582  15.611  0.0798 -0.6563 -0.4928
 3239TIP3   OH231131   2.004   1.957  16.228 -0.3324 -0.3313  0.0433
 3239TIP3    H131132   1.978   2.049  16.225  1.5100  0.2193 -0.7018
 3239TIP3    H231133   2.081   1.956  16.286 -0.1536 -1.3446 -0.1962
 3240TIP3   OH231134   4.912   5.547   4.064 -0.4923  0.6548  0.0681
 3240TIP3    H131135   4.889   5.612   4.131 -0.7366  0.9140 -0.2694
 3240TIP3    H231136   4.841   5.484   4.066 -0.7969  0.9842 -0.3639
 3241TIP3   OH231137   4.939   6.518  15.935  0.4024 -0.1025 -0.8794
 3241TIP3    H131138   4.921   6.483  15.847  1.2518  3.4733 -2.6279
 3241TIP3    H231139   4.853   6.542  15.969  0.2786  1.0202 -1.9326
 3242TIP3   OH231140   5.887   2.404  13.992 -0.2907 -0.6838  0.3981
 3242TIP3    H131141   5.866   2.362  13.909 -0.5664 -0.1061  0.1660
 3242TIP3    H231142   5.801   2.429  14.028 -0.1240 -0.0090  0.3545
 3243TIP3   OH231143   1.400   0.435  13.877 -0.3294 -0.6948 -0.1361
 3243TIP3    H131144   1.445   0.430  13.961 -0.9868 -2.1063  0.1680
 3243TIP3    H231145   1.468   0.455  13.813  0.6285 -2.0810  0.4064
 3244TIP3   OH231146   4.541   2.661  12.948 -0.4149  0.0836 -0.2043
 3244TIP3    H131147   4.595   2.706  13.012  0.3682 -0.2325 -0.6311
 3244TIP3    H231148   4.601   2.603  12.902 -1.6777 -3.2109  1.8537
 3245TIP3   OH231149   5.959   0.701  16.926 -0.4237 -0.3780  0.1663
 3245TIP3    H131150   6.046   0.685  16.891 -0.1364  0.7876  0.2955
 3245TIP3    H231151   5.903   0.637  16.882  0.2810 -0.3060 -0.8793
 3246TIP3   OH231152   3.894   6.557   5.807 -0.3562  0.1751 -0.9203
 3246TIP3    H131153   3.825   6.623   5.798  0.5494  1.1042 -1.2696
 3246TIP3    H231154   3.956   6.596   5.868 -0.3909 -0.8831 -0.1909
 3247TIP3   OH231155   1.076   0.496  17.053 -0.1303  0.5608  0.2588
 3247TIP3    H131156   0.983   0.491  17.077  0.3162  0.4756  2.0498
 3247TIP3    H231157   1.086   0.584  17.017 -0.9411  0.4769 -0.2220
 3248TIP3   OH231158   0.648   2.518   3.967  0.0916  0.1187  0.3861
 3248TIP3    H131159   0.662   2.607   3.936 -0.7769  0.8968  2.0958
 3248TIP3    H231160   0.732   2.474   3.954  0.4796  1.1334 -0.6202
 3249TIP3   OH231161   0.480   1.696   3.240 -0.1071  0.1331 -0.0382
 3249TIP3    H131162   0.521   1.737   3.164  0.1072 -0.3916 -0.2076
 3249TIP3    H231163   0.436   1.768   3.285  0.7607  0.6589 -0.0016
 3250TIP3   OH231164   5.944   1.132   2.024  0.1922 -0.1954  0.2396
 3250TIP3    H131165   6.013   1.118   1.959  0.3015  0.7373  0.1335
 3250TIP3    H231166   5.862   1.127   1.974  0.2513 -0.0280  0.1233
 3251TIP3   OH231167   0.864   1.889   3.558 -1.1391 -0.3428 -0.4377
 3251TIP3    H131168   0.777   1.901   3.597  0.1202 -0.9601  2.9499
 3251TIP3    H231169   0.882   1.971   3.513 -2.3406  0.9461  1.3046
 3252TIP3   OH231170   0.832   0.185  16.741 -0.0091  0.1193  0.4792
 3252TIP3    H131171   0.816   0.139  16.823  1.9057  0.0441  0.8541
 3252TIP3    H231172   0.797   0.127  16.673 -0.8572 -0.2022  1.1742
 3253TIP3   OH231173   3.957   2.239   4.771  0.2430 -0.0598 -0.2059
 3253TIP3    H131174   4.023   2.176   4.800 -0.8636 -0.2008  2.3318
 3253TIP3    H231175   3.974   2.251   4.678  3.2640 -0.7345  0.1493
 3254TIP3   OH231176   0.899   0.311   2.501 -0.2398  0.5621  0.1540
 3254TIP3    H131177   0.863   0.234   2.456 -0.1852 -0.0417  1.1009
 3254TIP3    H231178   0.970   0.341   2.445 -2.1545  1.7838 -1.7738
 3255TIP3   OH231179   2.863   4.571   0.700 -0.2268 -0.0518  0.0357
 3255TIP3    H131180   2.902   4.649   0.740 -0.9575  0.3037  0.0805
 3255TIP3    H231181   2.918   4.553   0.624  0.3483  0.1076  0.4125
 3256TIP3   OH231182   6.481   0.597   6.020  0.0416  0.0755  0.2187
 3256TIP3    H131183   6.441   0.553   5.945  0.5845  1.0973 -0.7064
 3256TIP3    H231184   6.418   0.587   6.090 -1.3622  0.7088 -0.8993
 3257TIP3   OH231185   0.647   6.321  15.043  0.3238 -0.0402  0.4502
 3257TIP3    H131186   0.618   6.402  15.084 -0.3515  0.6941 -1.3805
 3257TIP3    H231187   0.566   6.270  15.031  0.4458 -0.0556 -0.3340
 3258TIP3   OH231188   3.970   3.065   6.189  0.3968  0.2365 -0.3054
 3258TIP3    H131189   3.887   3.058   6.235  1.1892 -1.3508  1.0090
 3258TIP3    H231190   4.025   3.120   6.244  0.5109  0.5294 -0.7051
 3259TIP3   OH231191   4.648   3.482  11.708 -0.9341  0.1326  0.6252
 3259TIP3    H131192   4.627   3.436  11.789 -1.7809 -0.8042 -0.1028
 3259TIP3    H231193   4.566   3.484  11.659  0.0422 -1.4867 -1.2585
 3260TIP3   OH231194   1.873   1.090  12.702 -0.1496 -0.4318 -0.2443
 3260TIP3    H131195   1.804   1.030  12.732  0.7727 -0.4175  2.1270
 3260TIP3    H231196   1.919   1.041  12.635 -1.1957 -1.2498 -0.3931
 3261TIP3   OH231197   6.590   0.613  14.692 -0.0058 -0.4844 -0.6091
 3261TIP3    H131198   6.637   0.695  14.677 -1.1804  0.2291 -0.5210
 3261TIP3    H231199   6.579   0.575  14.605  0.7990 -0.7039 -0.6193
 3262TIP3   OH231200   3.147   6.100  12.693 -0.2138  0.6300  0.1770
 3262TIP3    H131201   3.167   6.178  12.641  1.5591  0.4525  0.5470
 3262TIP3    H231202   3.089   6.133  12.762 -1.3513  1.1542 -0.9810
 3263TIP3   OH231203   4.806   0.387  13.509 -0.5890 -0.0181 -0.6767
 3263TIP3    H131204   4.748   0.409  13.436  2.5239  1.5762 -2.9082
 3263TIP3    H231205   4.834   0.471  13.544 -0.1306 -0.7511  0.7969
 3264TIP3   OH231206   3.799   0.317  13.720  0.6744 -0.0590  0.2823
 3264TIP3    H131207   3.728   0.310  13.656 -0.8024 -0.5748  1.8986
 3264TIP3    H231208   3.876   0.281  13.675 -0.7896 -2.3694 -0.5200
 3265TIP3   OH231209   5.166   6.520   1.368 -0.1501  0.5918 -0.1163
 3265TIP3    H131210   5.146   6.574   1.445  1.3938  1.9294 -0.5944
 3265TIP3    H231211   5.102   6.449   1.371 -2.1696  2.3430  0.6596
 3266TIP3   OH231212   1.460   6.641  10.886  0.0321  0.2094 -0.4457
 3266TIP3    H131213   1.379   6.685  10.860  1.0338  1.1044 -2.3252
 3266TIP3    H231214   1.488   6.686  10.966 -1.7702 -0.7616  0.7868
 3267TIP3   OH231215   5.576   0.604  12.547 -0.2068 -0.2559  0.1840
 3267TIP3    H131216   5.592   0.679  12.490 -1.5225  0.9511  1.3496
 3267TIP3    H231217   5.486   0.614  12.577 -0.2798 -2.0783  0.7183
 3268TIP3   OH231218   3.840   5.370  11.528  0.3432 -0.5790 -0.1700
 3268TIP3    H131219   3.770   5.430  11.553  1.2116 -0.6472  2.8316
 3268TIP3    H231220   3.905   5.425  11.484 -0.2232  0.0621 -0.2178
 3269TIP3   OH231221   5.631   4.996  12.133 -0.0945 -0.2068  0.7449
 3269TIP3    H131222   5.539   5.023  12.130 -0.0744 -0.1915 -0.9857
 3269TIP3    H231223   5.641   4.938  12.058  0.7187 -2.2709  2.3474
 3270TIP3   OH231224   6.239   3.126   2.138  0.8552 -0.2059  0.4405
 3270TIP3    H131225   6.256   3.134   2.044  0.1322 -2.2224  0.0952
 3270TIP3    H231226   6.226   3.216   2.168 -1.5823  0.3207 -1.9077
 3271TIP3   OH231227   5.317   0.441  13.760  0.5544  0.0768 -0.1167
 3271TIP3    H131228   5.250   0.478  13.703  0.0562  0.9974  1.0235
 3271TIP3    H231229   5.353   0.368  13.710  0.2020  0.8948 -1.6326
 3272TIP3   OH231230   4.075   3.579  12.014  0.0505 -0.3177  0.0308
 3272TIP3    H131231   4.086   3.671  11.991  0.7659 -0.1362  1.0458
 3272TIP3    H231232   4.158   3.538  11.987 -0.5223 -0.8183 -1.0528
 3273TIP3   OH231233   1.081   1.100  12.808 -0.0107 -0.0098  0.2879
 3273TIP3    H131234   1.129   1.104  12.891  0.0801  1.0760  0.1868
 3273TIP3    H231235   0.995   1.067  12.831  0.5105 -1.2210  0.5839
 3274TIP3   OH231236   1.394   0.712  13.614 -0.5008  0.5152  0.0410
 3274TIP3    H131237   1.432   0.704  13.527 -0.9377  0.5051 -0.1526
 3274TIP3    H231238   1.447   0.654  13.669 -1.2956 -0.8355 -0.5730
 3275TIP3   OH231239   5.879   2.110  12.212 -0.1391  0.0009  0.2384
 3275TIP3    H131240   5.897   2.044  12.145  1.2312  1.3928 -0.8333
 3275TIP3    H231241   5.912   2.071  12.293 -1.3273 -1.4780  0.0635
 3276TIP3   OH231242   1.415   0.987   4.432  0.0864 -0.3836  0.2019
 3276TIP3    H131243   1.393   0.960   4.521  1.1015  2.4752  1.4424
 3276TIP3    H231244   1.420   1.082   4.436 -1.6960  0.0676 -3.3960
 3277TIP3   OH231245   2.227   2.757   6.538 -0.1319 -0.2042  0.2873
 3277TIP3    H131246   2.174   2.683   6.565 -0.2167 -1.1299 -2.1555
 3277TIP3    H231247   2.168   2.832   6.542 -0.5611 -0.5676  1.0329
 3278TIP3   OH231248   3.632   5.912  14.936  0.1512  0.4910 -0.1063
 3278TIP3    H131249   3.664   5.892  14.848  0.8840  1.0497  0.0280
 3278TIP3    H231250   3.560   5.850  14.949 -0.6036  1.0267 -1.4623
 3279TIP3   OH231251   6.002   4.866   4.851  0.8250  0.1068 -0.1072
 3279TIP3    H131252   5.997   4.782   4.807  0.4352  0.6110 -1.0686
 3279TIP3    H231253   5.935   4.863   4.919 -0.0168  0.0628 -0.9166
 3280TIP3   OH231254   1.188   1.358  14.102 -0.0045  0.0779 -0.1420
 3280TIP3    H131255   1.122   1.289  14.095  0.8434 -0.6427 -1.8663
 3280TIP3    H231256   1.266   1.320  14.061  1.5001  0.9123  1.7912
 3281TIP3   OH231257   5.219   0.458  14.386 -0.1429  0.0363  0.1173
 3281TIP3    H131258   5.250   0.507  14.310 -1.3393  0.1587 -0.3048
 3281TIP3    H231259   5.249   0.509  14.461 -0.1693  0.6638 -0.2922
 3282TIP3   OH231260   5.144   0.574   0.704  0.6311  0.4949  0.3567
 3282TIP3    H131261   5.202   0.562   0.629  0.5736  0.1679  0.3636
 3282TIP3    H231262   5.117   0.485   0.728 -0.0460  0.6588  0.2168
 3283TIP3   OH231263   0.698   3.492  15.343  0.7195 -0.3060  0.1897
 3283TIP3    H131264   0.620   3.534  15.380  0.4154 -0.7889  0.0972
 3283TIP3    H231265   0.669   3.405  15.317  0.8941  0.0648 -1.3016
 3284TIP3   OH231266   3.236   5.507  15.333  0.3325  0.6165  0.3360
 3284TIP3    H131267   3.300   5.476  15.397  1.6921  2.6331  0.0613
 3284TIP3    H231268   3.235   5.439  15.265  1.0751 -0.1493  1.0781
 3285TIP3   OH231269   3.968   0.064  10.871  0.0573 -0.5911  0.2388
 3285TIP3    H131270   4.012  -0.010  10.912  0.8090 -0.8780 -1.0198
 3285TIP3    H231271   3.937   0.029  10.787  0.9760  0.6659 -0.6500
 3286TIP3   OH231272   1.086   0.031   5.538  0.2041  0.3978 -0.3269
 3286TIP3    H131273   1.169   0.037   5.492  1.3696 -2.5361  1.0953
 3286TIP3    H231274   1.095   0.091   5.612  0.0656  1.8628 -1.4776
 3287TIP3   OH231275   1.406   0.834   2.656  0.3896  0.0199  0.1204
 3287TIP3    H131276   1.353   0.757   2.636 -0.1441  0.7370 -1.3536
 3287TIP3    H231277   1.449   0.812   2.739 -3.1206 -0.1224  2.1226
 3288TIP3   OH231278   1.300   0.773   2.986 -0.3199 -0.1418  0.7651
 3288TIP3    H131279   1.218   0.809   2.953  0.2757 -0.1691 -0.8323
 3288TIP3    H231280   1.326   0.833   3.056 -2.4716 -1.0245  2.4299
 3289TIP3   OH231281   1.518   2.657   3.457  0.2976  0.2933  0.0048
 3289TIP3    H131282   1.551   2.568   3.443 -0.5223  0.3727 -3.3052
 3289TIP3    H231283   1.445   2.647   3.518  1.5061 -0.9594  1.2967
 3290TIP3   OH231284   4.456   0.208   0.124 -0.1414  0.1485  0.5110
 3290TIP3    H131285   4.407   0.270   0.178 -0.8415  0.7262 -0.7361
 3290TIP3    H231286   4.488   0.261   0.050  1.4647 -0.4385  0.7366
 3291TIP3   OH231287   2.895   2.469  12.646  0.2887  0.4575 -0.0023
 3291TIP3    H131288   2.865   2.449  12.734  0.0465  2.1724  0.3392
 3291TIP3    H231289   2.830   2.428  12.588 -0.3445  0.5290  0.6491
 3292TIP3   OH231290   6.258   3.576   4.314 -0.5239 -0.8055  0.3113
 3292TIP3    H131291   6.238   3.482   4.310  0.0097 -0.9373  0.5745
 3292TIP3    H231292   6.248   3.607   4.224  1.4316 -1.5857 -0.2343
 3293TIP3   OH231293   3.353   5.399   0.529  0.2627  0.7089 -0.1407
 3293TIP3    H131294   3.345   5.345   0.608  1.3836 -0.4749 -0.8038
 3293TIP3    H231295   3.417   5.466   0.551  0.2590  0.6366  0.0909
 3294TIP3   OH231296   4.696   2.294   3.488  0.0723  0.1830  0.9221
 3294TIP3    H131297   4.612   2.338   3.472  0.5942  1.1209  0.7087
 3294TIP3    H231298   4.677   2.201   3.476 -1.3403  0.2150  2.5757
 3295TIP3   OH231299   3.798   3.750   2.767  0.1556 -0.2669 -0.5337
 3295TIP3    H131300   3.893   3.750   2.779 -0.1071 -1.3944  2.2140
 3295TIP3    H231301   3.765   3.818   2.826 -0.8308 -0.8976 -0.3243
 3296TIP3   OH231302   2.473   3.420  13.000  0.0990  0.4946  0.0703
 3296TIP3    H131303   2.410   3.468  13.054  1.3574  2.0561  0.1972
 3296TIP3    H231304   2.557   3.430  13.045  0.7782 -0.0551 -1.0154
 3297TIP3   OH231305   2.301   4.030   3.122  0.2205  0.6303 -0.3017
 3297TIP3    H131306   2.377   4.028   3.180 -0.6788 -1.0553  0.9048
 3297TIP3    H231307   2.322   3.966   3.053 -0.8068 -1.3365  1.0949
 3298TIP3   OH231308   5.534   0.955   3.788 -0.0605  0.1145 -0.3140
 3298TIP3    H131309   5.618   0.916   3.761 -0.1697  0.1171 -0.6708
 3298TIP3    H231310   5.535   0.952   3.883  0.5479  0.5423 -0.3018
 3299TIP3   OH231311   1.501   6.067  13.145  0.3063 -0.3085  0.3031
 3299TIP3    H131312   1.481   5.976  13.122 -1.6808  0.1321  0.0126
 3299TIP3    H231313   1.418   6.101  13.179  0.6381  1.7265 -0.7513
 3300TIP3   OH231314   5.792   0.318   2.427  0.1681  0.8334 -0.2827
 3300TIP3    H131315   5.850   0.281   2.361 -0.4607  0.1283 -0.4662
 3300TIP3    H231316   5.762   0.401   2.389  0.8683  1.0962 -0.2788
 3301TIP3   OH231317   6.321   2.155  11.163  0.1254  0.5680  0.2036
 3301TIP3    H131318   6.252   2.129  11.225  0.5048  0.6335  0.6646
 3301TIP3    H231319   6.290   2.237  11.125 -0.2037  0.4249  0.1582
 3302TIP3   OH231320   1.754   0.283  11.501  0.1364  0.1598 -0.1184
 3302TIP3    H131321   1.716   0.253  11.584  0.3242 -3.0901 -1.0816
 3302TIP3    H231322   1.829   0.225  11.486  0.7027  1.2948 -2.1002
 3303TIP3   OH231323   1.940   5.322  14.528 -0.7723  0.0461 -0.2441
 3303TIP3    H131324   1.858   5.355  14.492 -0.2814  1.3654 -0.1934
 3303TIP3    H231325   2.003   5.330  14.456 -0.6458 -0.8412 -0.2449
 3304TIP3   OH231326   4.515   2.897   4.785  0.1040 -0.4165  0.6160
 3304TIP3    H131327   4.466   2.816   4.801  1.3345 -1.0304  1.4398
 3304TIP3    H231328   4.607   2.871   4.786  0.4781  0.6536 -1.2302
 3305TIP3   OH231329   5.360   3.257  14.725 -0.0557 -0.2247 -0.1632
 3305TIP3    H131330   5.292   3.189  14.726  0.3103 -0.6164 -1.1247
 3305TIP3    H231331   5.398   3.252  14.637  1.1279  0.0875  0.3146
 3306TIP3   OH231332   4.211   3.392  16.352  0.0238  0.2104 -0.5862
 3306TIP3    H131333   4.193   3.420  16.262 -4.1106  0.2580  0.0574
 3306TIP3    H231334   4.240   3.471  16.397 -0.5599  0.8554 -1.3157
 3307TIP3   OH231335   6.481   6.403   4.156  0.3790  0.2937  0.2258
 3307TIP3    H131336   6.434   6.320   4.145  0.7393  0.0180  0.6977
 3307TIP3    H231337   6.569   6.385   4.123  0.2623  0.6999 -0.3158
 3308TIP3   OH231338   1.337   4.366   3.982 -0.0024  0.1787 -0.4055
 3308TIP3    H131339   1.294   4.281   3.992  1.3681 -0.4373  0.4564
 3308TIP3    H231340   1.426   4.345   3.955  0.5345  1.3181  0.4080
 3309TIP3   OH231341   2.611   1.558  12.826  0.5615 -0.0941 -0.7337
 3309TIP3    H131342   2.576   1.628  12.770  0.1364 -0.5169 -0.9967
 3309TIP3    H231343   2.662   1.503  12.767  1.2761  0.2435 -0.4415
 3310TIP3   OH231344   4.949   4.135  12.478 -0.3295  0.2722 -0.1650
 3310TIP3    H131345   4.970   4.094  12.562 -0.8452 -1.2354 -0.7348
 3310TIP3    H231346   4.862   4.173  12.490 -2.2026 -3.2767 -1.0306
 3311TIP3   OH231347   4.365   2.339   3.915 -0.6301 -0.7389 -0.4349
 3311TIP3    H131348   4.412   2.265   3.878 -0.4804 -0.3718 -0.9897
 3311TIP3    H231349   4.329   2.306   3.998  1.6808 -0.6628  0.6765
 3312TIP3   OH231350   0.459   1.649  17.207  0.7196 -0.7102 -0.5223
 3312TIP3    H131351   0.504   1.645  17.291 -1.1387  0.7135  0.6220
 3312TIP3    H231352   0.373   1.609  17.223  0.2681 -0.2735 -1.7028
 3313TIP3   OH231353   2.603   6.563  12.366 -0.0705  0.0966 -0.4518
 3313TIP3    H131354   2.616   6.653  12.333  2.3225 -0.2585 -0.7165
 3313TIP3    H231355   2.552   6.520  12.298 -1.3063  1.2618 -0.2963
 3314TIP3   OH231356   3.060   3.961  12.652 -0.2571 -0.1042  0.3700
 3314TIP3    H131357   3.094   3.974  12.563 -0.2924 -0.9442  0.2240
 3314TIP3    H231358   2.965   3.968  12.642 -0.3108 -0.9112  0.1961
 3315TIP3   OH231359   1.993   5.149  11.198  0.2263  0.1673 -0.1787
 3315TIP3    H131360   1.928   5.091  11.157 -0.8960 -0.4092  2.2643
 3315TIP3    H231361   1.966   5.237  11.172  0.6391 -0.2331 -2.1136
 3316TIP3   OH231362   1.532   2.259   4.374  0.1919 -0.7791  0.0668
 3316TIP3    H131363   1.460   2.201   4.400  0.4564 -1.7280 -1.2219
 3316TIP3    H231364   1.548   2.237   4.282  0.7934  0.8477 -0.2447
 3317TIP3   OH231365   5.562   3.033   3.062  0.2352  0.1843 -0.8987
 3317TIP3    H131366   5.514   2.957   3.028  0.1545  0.3751 -1.2130
 3317TIP3    H231367   5.652   3.020   3.032  0.1899  0.2890 -1.0821
 3318TIP3   OH231368   6.367   5.344   4.344  0.2096 -0.4478  0.2652
 3318TIP3    H131369   6.366   5.396   4.263 -1.7543  1.5822  1.4892
 3318TIP3    H231370   6.432   5.387   4.400  2.1227 -2.2961 -0.3988
 3319TIP3   OH231371   3.747   4.144   5.387  0.0194  0.2808 -0.3796
 3319TIP3    H131372   3.694   4.167   5.311 -2.3197  0.0911  1.0969
 3319TIP3    H231373   3.731   4.214   5.450 -1.3732 -1.5263  1.4104
 3320TIP3   OH231374   5.333   6.705  11.752  0.0254  0.2079  0.1068
 3320TIP3    H131375   5.296   6.757  11.680 -0.7271  0.8317  0.9216
 3320TIP3    H231376   5.426   6.729  11.753 -0.4213  2.1152  0.8980
 3321TIP3   OH231377   0.788   3.374  11.970 -0.1904  0.1073  0.3377
 3321TIP3    H131378   0.702   3.380  12.012 -1.6869  1.5639 -2.6384
 3321TIP3    H231379   0.844   3.331  12.035 -3.3213 -1.5921  2.1207
 3322TIP3   OH231380   2.606   6.318  14.395 -0.1513  0.8812  0.2812
 3322TIP3    H131381   2.571   6.236  14.427  0.2934  0.8791  0.7768
 3322TIP3    H231382   2.554   6.386  14.439 -0.2468  0.8690  0.1875
 3323TIP3   OH231383   6.610   1.084  16.856  0.1412  0.2673  0.4924
 3323TIP3    H131384   6.683   1.039  16.815  1.9693  1.6444  2.0399
 3323TIP3    H231385   6.590   1.157  16.798  1.3452  1.0276  1.0075
 3324TIP3   OH231386   4.109   4.933  13.881  0.3354  0.3615 -0.4521
 3324TIP3    H131387   4.151   4.955  13.797 -1.5957  1.1145 -1.2718
 3324TIP3    H231388   4.021   4.904  13.857  0.0976 -0.4209  1.2586
 3325TIP3   OH231389   1.584   5.534  10.820  0.1990  0.2396  0.2766
 3325TIP3    H131390   1.505   5.551  10.769  0.6997  0.3666 -0.4767
 3325TIP3    H231391   1.570   5.447  10.859 -0.2840  0.2376  0.0989
 3326TIP3   OH231392   2.769   6.724   0.183 -0.2487  0.4528 -0.2284
 3326TIP3    H131393   2.678   6.744   0.205 -0.4148  0.1875 -0.6714
 3326TIP3    H231394   2.772   6.628   0.182 -0.3105  0.4551 -1.6276
 3327TIP3   OH231395   5.695   1.187   1.765 -0.6431  0.3563 -0.0530
 3327TIP3    H131396   5.680   1.103   1.809  2.3974 -0.7038 -0.7926
 3327TIP3    H231397   5.634   1.248   1.808 -2.7736 -2.1039  0.6927
 3328TIP3   OH231398   4.694   0.852  13.736  0.8840 -0.1663  0.2589
 3328TIP3    H131399   4.665   0.796  13.665 -0.1109 -0.5147  0.9260
 3328TIP3    H231400   4.633   0.926  13.736  1.6425  0.4858 -0.0395
 3329TIP3   OH231401   4.614   4.174   4.896  0.0468  0.0326  0.1398
 3329TIP3    H131402   4.585   4.146   4.983 -2.2290  2.6044  0.3271
 3329TIP3    H231403   4.533   4.198   4.850  1.3105  0.1036 -2.2070
 3330TIP3   OH231404   1.050   4.739  14.999  0.7579 -0.2114 -0.0275
 3330TIP3    H131405   1.002   4.751  14.917 -0.1958 -0.4713  0.4806
 3330TIP3    H231406   1.112   4.668  14.981 -1.5050 -2.4071  0.3222
 3331TIP3   OH231407   2.021   2.268   3.713  0.3365 -0.8017  0.0330
 3331TIP3    H131408   2.003   2.212   3.789  2.7251 -1.4642  0.1775
 3331TIP3    H231409   2.024   2.207   3.640  0.0537 -0.4401 -0.2801
 3332TIP3   OH231410   2.675   3.682   2.964  0.7024 -0.4338  0.0327
 3332TIP3    H131411   2.583   3.708   2.964  0.7442 -0.2850 -0.0428
 3332TIP3    H231412   2.676   3.599   2.916  0.6047 -0.4460  0.0518
 3333TIP3   OH231413   4.566   2.926   3.943 -0.5206  0.3627  0.3824
 3333TIP3    H131414   4.547   3.020   3.937 -2.3095 -0.0285 -0.8177
 3333TIP3    H231415   4.495   2.891   3.996  1.2289 -0.0857  2.6018
 3334TIP3   OH231416   3.917   4.694   0.023 -0.4620  0.4198 -0.1985
 3334TIP3    H131417   4.007   4.686  -0.010 -0.4064 -1.0290  0.2355
 3334TIP3    H231418   3.878   4.763  -0.030  0.3952 -0.0989 -1.5557
 3335TIP3   OH231419   0.005   2.760  11.944  0.6056  0.5244  0.2026
 3335TIP3    H131420  -0.004   2.836  12.001  1.2040  1.1239 -0.4768
 3335TIP3    H231421  -0.056   2.696  11.980  0.4007  1.1669  1.0428
 3336TIP3   OH231422   0.781   6.718  16.513  0.8078 -0.2104 -0.0332
 3336TIP3    H131423   0.862   6.685  16.473  1.5063  1.8127 -0.3788
 3336TIP3    H231424   0.745   6.778  16.448 -0.7704 -0.7399  0.3069
 3337TIP3   OH231425   3.178   6.258  16.143  0.6830 -0.6226 -0.1890
 3337TIP3    H131426   3.215   6.170  16.134  0.4575 -0.8546  0.9740
 3337TIP3    H231427   3.249   6.310  16.181  0.3527 -0.6720  0.5097
 3338TIP3   OH231428   5.818   0.989  15.470  0.2237  0.6370  0.1007
 3338TIP3    H131429   5.736   0.960  15.509  1.5100 -1.0945  1.6772
 3338TIP3    H231430   5.818   0.952  15.382 -0.7165  0.7420  0.0537
 3339TIP3   OH231431   2.680   1.394  12.573 -0.1216 -0.6569 -0.2651
 3339TIP3    H131432   2.660   1.324  12.511 -1.6426 -1.1889  0.7559
 3339TIP3    H231433   2.678   1.474  12.521  1.6417 -1.3228 -1.4508
 3340TIP3   OH231434   0.113   4.985  17.130 -0.5308 -0.3681 -0.3445
 3340TIP3    H131435   0.076   4.935  17.203 -0.1489 -0.0335  0.0909
 3340TIP3    H231436   0.050   5.055  17.114 -0.4442 -0.2294 -0.0910
 3341TIP3   OH231437   3.064   6.468  12.389 -0.3734  0.1607 -0.0880
 3341TIP3    H131438   3.013   6.543  12.418  0.2117  0.1599  0.9952
 3341TIP3    H231439   3.147   6.505  12.361  0.8269 -0.2264  2.6407
 3342TIP3   OH231440   1.829   1.548   3.987  0.3598 -0.4545 -0.4620
 3342TIP3    H131441   1.791   1.614   3.930 -1.5203 -0.2735  0.8986
 3342TIP3    H231442   1.885   1.496   3.930  2.1869  2.4680 -1.4944
 3343TIP3   OH231443   3.773   6.637   1.659  0.8640 -0.1014 -0.4279
 3343TIP3    H131444   3.825   6.578   1.604  0.3860  0.3435 -1.3734
 3343TIP3    H231445   3.832   6.661   1.730  0.8280 -2.3314  0.4226
 3344TIP3   OH231446   1.287   0.660   1.352 -0.3608  0.2251 -0.1681
 3344TIP3    H131447   1.311   0.636   1.262 -1.1624  0.6020 -0.4959
 3344TIP3    H231448   1.356   0.622   1.406 -0.1752 -0.5072 -0.8946
 3345TIP3   OH231449   2.481   1.876   0.542 -0.0256  0.1436  0.0345
 3345TIP3    H131450   2.398   1.829   0.529  1.0180 -1.5733 -0.7212
 3345TIP3    H231451   2.493   1.876   0.637 -1.3735  1.3300  0.2379
 3346TIP3   OH231452   2.286   2.319   3.726 -0.7923 -0.7640 -0.1485
 3346TIP3    H131453   2.191   2.312   3.739 -0.7540  0.1180  0.7689
 3346TIP3    H231454   2.295   2.369   3.645 -1.1715  0.7970  0.7136
 3347TIP3   OH231455   4.368   1.788  14.188 -0.0907  0.6650 -0.0419
 3347TIP3    H131456   4.410   1.704  14.170 -1.5621 -0.5850  1.9356
 3347TIP3    H231457   4.408   1.817  14.271 -1.2662  0.7210  0.5223
 3348TIP3   OH231458   5.838   5.334   5.919  0.1377 -0.9301 -0.6630
 3348TIP3    H131459   5.769   5.401   5.920 -0.4541 -1.5399 -0.1179
 3348TIP3    H231460   5.919   5.384   5.934 -0.3887 -0.4361  0.6451
 3349TIP3   OH231461   5.784   0.401  14.923 -0.0309  0.7254  0.0502
 3349TIP3    H131462   5.746   0.399  15.011 -0.4073  1.0290 -0.1021
 3349TIP3    H231463   5.747   0.324  14.879 -0.3861  0.9560 -0.0604
 3350TIP3   OH231464   0.811   4.649  12.354 -0.5219  0.5043  0.1136
 3350TIP3    H131465   0.780   4.720  12.410  1.8740  1.1259  0.7478
 3350TIP3    H231466   0.907   4.654  12.359 -0.2661 -1.1919 -1.8393
 3351TIP3   OH231467   3.976   0.385  12.721  0.0058  0.1898  0.0432
 3351TIP3    H131468   3.978   0.309  12.662 -3.1660 -0.8155  1.0467
 3351TIP3    H231469   4.020   0.354  12.800 -0.1706 -0.1729  0.0021
 3352TIP3   OH231470   1.749   4.242   5.222  0.0782 -0.3709  0.7536
 3352TIP3    H131471   1.693   4.176   5.182  0.1550 -0.5584  0.9558
 3352TIP3    H231472   1.838   4.216   5.197  0.0492  0.1913  0.0329
 3353TIP3   OH231473   0.084   4.837   3.470 -0.4348  0.2624 -0.0490
 3353TIP3    H131474   0.150   4.777   3.434  0.1394 -0.1872  1.6512
 3353TIP3    H231475   0.054   4.887   3.395  0.0031 -1.2779 -1.3069
 3354TIP3   OH231476   2.789   3.145   0.647 -0.5926 -0.2028 -0.1893
 3354TIP3    H131477   2.852   3.215   0.631 -1.3983  0.4588 -0.5510
 3354TIP3    H231478   2.826   3.096   0.721 -0.2701  0.9169  0.4145
 3355TIP3   OH231479   3.443   6.476   6.051  0.2034  0.1644 -0.0687
 3355TIP3    H131480   3.355   6.449   6.076 -0.4117  2.3428  0.2784
 3355TIP3    H231481   3.480   6.513   6.131  1.3180 -0.3561 -0.3164
 3356TIP3   OH231482   4.607   6.359   1.125 -0.0630  0.9342 -0.3080
 3356TIP3    H131483   4.526   6.371   1.075  0.1678 -3.0196 -2.0023
 3356TIP3    H231484   4.675   6.349   1.057  0.8500 -1.1687  0.8188
 3357TIP3   OH231485   1.512   5.092  15.710  0.1559 -0.1753  0.3306
 3357TIP3    H131486   1.606   5.112  15.702 -0.3534  2.3254 -0.3093
 3357TIP3    H231487   1.497   5.024  15.645  1.6384 -1.1416  0.9383
 3358TIP3   OH231488   0.265   1.184  11.023 -0.0683 -0.4383 -0.0850
 3358TIP3    H131489   0.343   1.129  11.034  1.3489  1.3627 -0.6539
 3358TIP3    H231490   0.278   1.228  10.940 -2.0998 -0.6374 -0.5636
 3359TIP3   OH231491   2.402   5.522  17.326  0.1713 -0.1167  0.5638
 3359TIP3    H131492   2.442   5.544  17.410  2.6956 -0.5967 -0.4069
 3359TIP3    H231493   2.400   5.605  17.279  2.6373 -0.4536 -0.3218
 3360TIP3   OH231494   4.657   3.970   6.281 -0.0345  0.0603  0.0906
 3360TIP3    H131495   4.732   3.957   6.223 -0.2283 -0.7755  0.0160
 3360TIP3    H231496   4.696   4.001   6.363  0.2320  1.3706 -0.5023
 3361TIP3   OH231497   5.386   4.515   2.394 -0.3822 -0.2500 -0.3511
 3361TIP3    H131498   5.345   4.431   2.371 -1.9341  0.3396  0.0962
 3361TIP3    H231499   5.426   4.500   2.479 -0.1888 -0.6822 -0.5173
 3362TIP3   OH231500   4.522   2.087  13.168  0.2056  0.4535  0.0727
 3362TIP3    H131501   4.463   2.138  13.224  1.1352  1.3411  0.2773
 3362TIP3    H231502   4.610   2.108  13.200  0.7320  0.5283 -1.3453
 3363TIP3   OH231503   3.732   3.073   0.433  0.1842  0.0784  0.4488
 3363TIP3    H131504   3.772   3.160   0.422  1.8697 -0.8170 -0.9567
 3363TIP3    H231505   3.805   3.015   0.454 -0.6780 -1.2762 -0.1482
 3364TIP3   OH231506   5.210   1.112   4.986 -0.3120 -0.5301 -0.2181
 3364TIP3    H131507   5.163   1.109   5.070  1.0564  0.9271  0.6376
 3364TIP3    H231508   5.291   1.063   5.002  1.3786  2.2344  0.3250
 3365TIP3   OH231509   1.100   0.340  11.693  0.1168  0.4100 -0.5359
 3365TIP3    H131510   1.139   0.257  11.720 -1.7736 -0.7828 -1.2596
 3365TIP3    H231511   1.033   0.358  11.760 -0.1223  0.8661 -0.8879
 3366TIP3   OH231512   1.426   2.753  16.025 -0.0640  0.6026  0.1097
 3366TIP3    H131513   1.467   2.836  16.049 -1.2744  1.0437  0.7150
 3366TIP3    H231514   1.381   2.725  16.105 -0.0769 -0.3998 -0.2381
 3367TIP3   OH231515   1.508   6.039   1.291 -0.0219  0.2384 -0.0666
 3367TIP3    H131516   1.535   5.969   1.232 -0.0872 -0.3658  0.5979
 3367TIP3    H231517   1.561   6.025   1.370 -1.4640 -0.2984  0.8404
 3368TIP3   OH231518   5.901   6.001  17.081  0.3559  0.2322  0.0453
 3368TIP3    H131519   5.912   5.925  17.024  0.0747  0.7775 -0.7511
 3368TIP3    H231520   5.926   5.969  17.168 -0.1993 -0.9006 -0.1856
 3369TIP3   OH231521   1.111   4.052   1.936 -0.1687 -0.2612 -0.2276
 3369TIP3    H131522   1.073   4.139   1.925  2.2059  0.8364 -0.3022
 3369TIP3    H231523   1.057   4.011   2.004 -1.1151  1.3812  0.0697
 3370TIP3   OH231524   2.704   3.860  17.039 -0.0741 -0.5832 -0.2436
 3370TIP3    H131525   2.689   3.853  17.133  2.1042 -3.1968  0.0308
 3370TIP3    H231526   2.622   3.895  17.004 -1.3360 -0.5623  2.4614
 3371TIP3   OH231527   0.008   2.763   5.776  0.0380  0.1267  0.1896
 3371TIP3    H131528   0.073   2.716   5.829 -0.5017 -0.3683  0.4210
 3371TIP3    H231529   0.044   2.761   5.687  0.0142 -0.7611  0.1883
 3372TIP3   OH231530   1.539   2.850  12.561 -0.4596  0.3298 -0.4574
 3372TIP3    H131531   1.601   2.790  12.603 -1.4920  0.3877  1.2078
 3372TIP3    H231532   1.546   2.829  12.467  0.1720 -1.4506 -0.0520
 3373TIP3   OH231533   0.546   3.569   3.284 -0.2725  0.6695 -0.0072
 3373TIP3    H131534   0.501   3.485   3.278 -0.2587  0.6188  0.5273
 3373TIP3    H231535   0.593   3.565   3.367  1.4996  0.3251 -0.9565
 3374TIP3   OH231536   1.980   5.898  15.922 -0.1001 -0.2242  0.2546
 3374TIP3    H131537   1.948   5.975  15.873 -0.6011 -0.7049 -0.1896
 3374TIP3    H231538   2.033   5.935  15.992 -1.2077  0.5896  0.6977
 3375TIP3   OH231539   4.530   5.686   4.460  0.0715 -0.1758 -0.5091
 3375TIP3    H131540   4.607   5.659   4.510 -0.7473  0.4672  1.1819
 3375TIP3    H231541   4.480   5.606   4.448  0.4474 -0.3974 -0.6132
 3376TIP3   OH231542   1.712   0.943  11.784  0.1650  0.2738 -0.3111
 3376TIP3    H131543   1.634   0.996  11.767 -1.6634 -2.6517 -1.7440
 3376TIP3    H231544   1.697   0.862  11.737  3.4641 -1.0300  0.6003
 3377TIP3   OH231545   3.591   5.191  12.663 -0.2504 -0.0817 -0.1419
 3377TIP3    H131546   3.587   5.101  12.697  1.1347  0.5643  1.8869
 3377TIP3    H231547   3.683   5.205  12.642 -0.4558  0.8671 -0.4437
 3378TIP3   OH231548   6.071   5.496   5.528  0.6195 -0.0782  0.1765
 3378TIP3    H131549   6.110   5.485   5.615 -1.3943 -2.2271  0.9129
 3378TIP3    H231550   6.033   5.583   5.529  0.9227  0.0564  1.3184
 3379TIP3   OH231551   3.704   3.752   2.154 -0.1982  0.4393  0.5972
 3379TIP3    H131552   3.707   3.676   2.096  0.9506  1.7037 -1.0863
 3379TIP3    H231553   3.613   3.757   2.183 -0.7217 -0.4692 -0.7916
 3380TIP3   OH231554   4.689   2.655  14.033 -0.0193 -0.0515 -0.0646
 3380TIP3    H131555   4.735   2.580  13.994 -0.4827  0.1904 -1.1131
 3380TIP3    H231556   4.652   2.620  14.114  1.6657 -0.3530  0.6353
 3381TIP3   OH231557   1.353   5.402  15.058  0.0269 -0.2982  0.3145
 3381TIP3    H131558   1.369   5.313  15.026  2.2365  0.7107 -1.6944
 3381TIP3    H231559   1.277   5.432  15.008  0.6258 -0.3294 -0.6371
 3382TIP3   OH231560   2.930   4.601  12.152  0.2181 -0.0103  0.4785
 3382TIP3    H131561   2.927   4.669  12.220  3.3130  0.4037  0.3294
 3382TIP3    H231562   2.889   4.642  12.076 -0.5335  0.6310  1.2064
 3383TIP3   OH231563   3.712   5.968  15.746  0.1274 -0.2422 -0.2013
 3383TIP3    H131564   3.665   5.923  15.675 -1.2176 -0.8405  1.0377
 3383TIP3    H231565   3.699   6.061  15.728  1.6068 -0.2983 -1.8974
 3384TIP3   OH231566   0.177   3.350  12.326  0.2053 -0.0786  0.4070
 3384TIP3    H131567   0.246   3.293  12.293  0.0389 -0.8866  1.4184
 3384TIP3    H231568   0.194   3.359  12.420 -0.5926  0.3727  0.5262
 3385TIP3   OH231569   5.025   2.280   1.805 -0.7455  0.1248 -0.2881
 3385TIP3    H131570   5.114   2.264   1.773 -0.5218 -0.4132  0.5783
 3385TIP3    H231571   4.983   2.195   1.803 -0.1104 -0.3609  2.6435
 3386TIP3   OH231572   3.658   1.981   2.084 -0.0199 -0.3200 -0.4448
 3386TIP3    H131573   3.660   1.908   2.145 -0.9512 -0.6543 -0.7964
 3386TIP3    H231574   3.573   2.023   2.101 -0.3291 -0.4745 -1.5691
 3387TIP3   OH231575   3.055   2.850   0.184 -0.1931 -0.3140  0.5140
 3387TIP3    H131576   3.066   2.936   0.143  1.7952  0.3384  2.2200
 3387TIP3    H231577   3.141   2.808   0.174 -0.8790 -1.7690  0.4746
 3388TIP3   OH231578   0.737   1.610   2.103 -0.3407  0.3333 -0.5629
 3388TIP3    H131579   0.674   1.538   2.097  0.5511 -0.4161 -1.0138
 3388TIP3    H231580   0.787   1.606   2.022  1.6997 -0.4136  0.6560
 3389TIP3   OH231581   1.484   1.637  11.557 -0.6451  0.1701  0.3539
 3389TIP3    H131582   1.484   1.710  11.495 -1.4320 -0.0590  0.0747
 3389TIP3    H231583   1.415   1.660  11.619 -2.3626 -1.3028 -0.9155
 3390TIP3   OH231584   5.031   0.498  12.868  0.3287  0.2710 -0.0847
 3390TIP3    H131585   5.027   0.536  12.780 -1.0935 -0.0818 -0.2005
 3390TIP3    H231586   4.960   0.540  12.916 -0.2672 -1.0533  0.2509
 3391TIP3   OH231587   1.170   5.407   2.988  0.1896  0.3185  0.1777
 3391TIP3    H131588   1.221   5.487   2.980  2.2482 -0.6754  2.1914
 3391TIP3    H231589   1.099   5.429   3.047 -1.3191  1.4870 -1.9540
 3392TIP3   OH231590   0.537   0.829   3.400 -0.0357  0.3699  0.1774
 3392TIP3    H131591   0.563   0.913   3.363  2.2632 -0.5793 -0.5691
 3392TIP3    H231592   0.566   0.764   3.336 -4.3438 -0.9876 -0.7177
 3393TIP3   OH231593   5.204   5.422   1.509  0.3806  0.2148 -0.4444
 3393TIP3    H131594   5.155   5.343   1.491 -0.2505  0.6814 -0.7983
 3393TIP3    H231595   5.266   5.397   1.578 -0.0342 -0.4943 -0.3252
 3394TIP3   OH231596   0.203   1.779  14.578  0.2606 -0.3745  0.0531
 3394TIP3    H131597   0.161   1.792  14.493  1.8905  1.8362 -0.4857
 3394TIP3    H231598   0.142   1.816  14.641  0.7715  1.6964 -0.6024
 3395TIP3   OH231599   3.411   3.241  11.730 -0.9356 -0.3012 -0.6892
 3395TIP3    H131600   3.355   3.199  11.795  0.8405  1.1330  1.9796
 3395TIP3    H231601   3.484   3.180  11.720  0.7694  1.1186  1.8610
 3396TIP3   OH231602   3.840   4.278  12.253  0.7355 -0.7924  0.1295
 3396TIP3    H131603   3.779   4.294  12.182 -1.0283 -0.2608  1.6737
 3396TIP3    H231604   3.926   4.304  12.218 -0.4973  2.4645 -0.8325
 3397TIP3   OH231605   6.364   6.517  16.923  0.6631  0.0068 -0.0756
 3397TIP3    H131606   6.357   6.510  16.827  2.0439  1.1618 -0.3047
 3397TIP3    H231607   6.369   6.611  16.939  2.3861 -0.2242  0.9554
 3398TIP3   OH231608   1.607   4.415   5.422  0.6204 -0.0550 -0.2448
 3398TIP3    H131609   1.532   4.457   5.381 -0.1630  0.7967  1.9301
 3398TIP3    H231610   1.653   4.372   5.350 -2.0886 -0.8568 -1.6070
 3399TIP3   OH231611   1.569   4.776  13.447  0.2043  0.0237  0.0341
 3399TIP3    H131612   1.559   4.815  13.360 -2.5398  0.9398  0.6730
 3399TIP3    H231613   1.495   4.716  13.455  1.6276 -1.6867  0.9792
 3400TIP3   OH231614   4.910   5.047  16.399  0.1213  0.4177 -0.0875
 3400TIP3    H131615   4.898   5.115  16.465  2.3540 -0.5648  1.4338
 3400TIP3    H231616   4.998   5.062  16.364  0.7101 -1.6790  0.3561
 3401TIP3   OH231617   3.570   5.971   5.457 -0.3451 -0.2400  0.0012
 3401TIP3    H131618   3.596   5.883   5.485 -1.0391  0.0309  1.6006
 3401TIP3    H231619   3.514   5.957   5.381 -0.2501 -1.1576  0.0911
 3402TIP3   OH231620   1.697   6.158   2.262 -0.3284  0.3551 -0.5457
 3402TIP3    H131621   1.608   6.186   2.238 -0.5092 -0.2123 -0.5528
 3402TIP3    H231622   1.731   6.230   2.315 -1.8653 -0.5906  1.9367
 3403TIP3   OH231623   0.436   6.081  16.753  0.4475 -0.4020 -0.7995
 3403TIP3    H131624   0.526   6.112  16.764  0.4516  0.1568 -2.1971
 3403TIP3    H231625   0.427   6.068  16.659 -0.7895 -0.9373 -0.6209
 3404TIP3   OH231626   0.254   1.924   4.378 -0.1165  0.0179 -0.4268
 3404TIP3    H131627   0.185   1.900   4.440  0.0174 -0.2033 -0.3625
 3404TIP3    H231628   0.208   1.931   4.294 -0.5968  1.8986 -0.0467
 3405TIP3   OH231629   0.775   5.585  15.299 -0.1963  0.1809 -0.0917
 3405TIP3    H131630   0.711   5.630  15.244 -2.9292 -1.2737  1.7004
 3405TIP3    H231631   0.731   5.573  15.382  2.4590 -0.9505  1.2684
 3406TIP3   OH231632   1.171   5.048  11.523  0.2116 -0.4479  0.1200
 3406TIP3    H131633   1.221   5.041  11.441 -0.6527 -0.5262 -0.4081
 3406TIP3    H231634   1.157   4.957  11.550  0.3532 -0.4257  0.2687
 3407TIP3   OH231635   6.715   2.498  13.939  0.1227 -0.7128  0.0680
 3407TIP3    H131636   6.758   2.427  13.892  0.6127  0.6173 -1.5450
 3407TIP3    H231637   6.713   2.571  13.878 -0.2763  0.7294  1.7186
 3408TIP3   OH231638   6.152   0.390   5.450  0.3744  0.2076 -0.1585
 3408TIP3    H131639   6.183   0.324   5.387  0.5062  0.1915 -0.0765
 3408TIP3    H231640   6.227   0.448   5.462  0.6561 -0.3078  0.6746
 3409TIP3   OH231641   2.356   0.587  14.291  0.0653  0.4081 -0.0587
 3409TIP3    H131642   2.354   0.517  14.356 -0.3058  0.0649 -0.4343
 3409TIP3    H231643   2.372   0.542  14.208  0.8886  0.8718 -0.1652
 3410TIP3   OH231644   2.825   6.674  16.239  0.2496 -0.2737 -0.3226
 3410TIP3    H131645   2.851   6.594  16.193 -0.7323 -0.3323 -0.7905
 3410TIP3    H231646   2.745   6.650  16.285 -0.3896  0.6004 -0.9543
 3411TIP3   OH231647   5.931   3.535  14.546 -0.3314  0.2029  0.1129
 3411TIP3    H131648   5.836   3.518  14.544 -0.0054 -1.8911 -1.1008
 3411TIP3    H231649   5.964   3.474  14.611  0.1742  1.1978  0.8118
 3412TIP3   OH231650   3.858   2.404   0.774  0.0121  0.1906  0.1310
 3412TIP3    H131651   3.946   2.440   0.762 -0.3201  0.7545 -0.7566
 3412TIP3    H231652   3.837   2.420   0.866  0.1823  1.5985 -0.0551
 3413TIP3   OH231653   5.486   0.533   0.254 -0.1248  0.0675 -0.1217
 3413TIP3    H131654   5.476   0.569   0.166  0.6393 -0.7097 -0.5419
 3413TIP3    H231655   5.487   0.438   0.241 -2.3811 -0.1734  0.9907
 3414TIP3   OH231656   4.895   2.518   3.130 -1.1713  0.2017 -1.0096
 3414TIP3    H131657   4.896   2.497   3.036  1.3235  0.3717 -1.0842
 3414TIP3    H231658   4.901   2.433   3.173 -3.4068  0.0395 -0.9171
 3415TIP3   OH231659   1.065   0.841  11.008 -0.2929  0.3143  0.2691
 3415TIP3    H131660   1.105   0.754  11.007  0.0350  0.4646  0.1127
 3415TIP3    H231661   0.974   0.826  11.033 -0.0956 -0.0174  0.8070
 3416TIP3   OH231662   1.431   3.044   3.117  0.2816  0.1859  0.5680
 3416TIP3    H131663   1.451   2.971   3.175 -1.8923 -0.1549  0.9995
 3416TIP3    H231664   1.439   3.122   3.173  0.0262  0.0208  0.8425
 3417TIP3   OH231665   4.053   2.500  14.902  0.9243  0.4395 -0.0477
 3417TIP3    H131666   4.043   2.590  14.934 -0.1650  0.4059 -0.2832
 3417TIP3    H231667   4.083   2.450  14.978 -1.9250  0.2865  1.0693
 3418TIP3   OH231668   4.754   1.577   0.901 -0.3631 -0.5223 -0.4994
 3418TIP3    H131669   4.715   1.619   0.824 -0.2741  1.7356  0.5771
 3418TIP3    H231670   4.771   1.487   0.874 -1.1831 -0.0606 -2.7943
 3419TIP3   OH231671   2.568   2.961  15.929 -0.7438 -0.0169  0.4745
 3419TIP3    H131672   2.616   2.967  15.846 -2.0127 -2.1067 -0.4971
 3419TIP3    H231673   2.593   2.876  15.964 -2.7717 -0.6326  0.5223
 3420TIP3   OH231674   1.628   3.614  16.647  0.0571  0.1809 -0.3297
 3420TIP3    H131675   1.701   3.627  16.586  1.3619  0.2847  1.2042
 3420TIP3    H231676   1.588   3.532  16.619  2.2908 -1.1896  0.2425
 3421TIP3   OH231677   1.754   4.585   3.653  0.5638 -0.1080 -0.4788
 3421TIP3    H131678   1.830   4.531   3.672  1.5886  1.0550 -1.1494
 3421TIP3    H231679   1.785   4.675   3.664 -1.3699  0.4042  1.7112
 3422TIP3   OH231680   5.639   4.142   2.309 -0.7434  0.3272 -0.7671
 3422TIP3    H131681   5.572   4.159   2.375 -0.9914 -0.7858 -0.7045
 3422TIP3    H231682   5.607   4.187   2.230 -0.4546  1.6421 -0.1592
 3423TIP3   OH231683   0.149   5.762   5.562  0.5038  0.4709  0.0388
 3423TIP3    H131684   0.120   5.678   5.527  1.0268 -0.6299  2.1294
 3423TIP3    H231685   0.071   5.818   5.557  0.1778 -0.0511 -1.4740
 3424TIP3   OH231686   2.705   4.764  16.285 -0.5781  0.2269 -0.2001
 3424TIP3    H131687   2.651   4.696  16.324 -0.0738 -0.0628  0.0124
 3424TIP3    H231688   2.709   4.742  16.192 -0.7732  0.2111 -0.2030
 3425TIP3   OH231689   4.753   5.643   0.639  0.7411 -0.0521  0.2329
 3425TIP3    H131690   4.781   5.725   0.597 -1.4526 -0.4853 -2.2945
 3425TIP3    H231691   4.826   5.583   0.625  0.0859 -0.2049 -3.2492
 3426TIP3   OH231692   4.924   2.578  15.723  0.4239 -0.3315  0.1635
 3426TIP3    H131693   4.991   2.612  15.783 -1.6223 -0.8471  2.9080
 3426TIP3    H231694   4.969   2.509  15.674  1.8859 -0.8627  2.1120
 3427TIP3   OH231695   0.096   1.494   2.257  0.3461  0.1651  0.3356
 3427TIP3    H131696   0.019   1.453   2.297  0.1434 -1.2941 -1.4230
 3427TIP3    H231697   0.165   1.428   2.265  0.6236  0.3281 -0.6210
 3428TIP3   OH231698   3.040   5.599  13.499  0.5578 -0.5944  0.5217
 3428TIP3    H131699   2.946   5.616  13.512  0.5830  1.0681 -1.0211
 3428TIP3    H231700   3.046   5.505  13.482 -0.8915 -0.6435  0.1828
 3429TIP3   OH231701   5.894   4.793   3.493  0.3236 -0.5815 -0.2076
 3429TIP3    H131702   5.912   4.855   3.423 -0.2852 -2.0890 -1.7688
 3429TIP3    H231703   5.818   4.829   3.538 -0.6555 -0.6557 -1.7313
 3430TIP3   OH231704   5.356   1.601  14.003  0.4066  0.1747  0.3818
 3430TIP3    H131705   5.299   1.527  14.026  0.2622  0.3561  0.6115
 3430TIP3    H231706   5.313   1.643  13.930 -0.8346  1.5280  1.8327
 3431TIP3   OH231707   1.155   1.782  13.939  0.4656 -0.0943 -0.6486
 3431TIP3    H131708   1.223   1.726  13.902 -0.3308 -0.2135 -1.9830
 3431TIP3    H231709   1.124   1.735  14.016  0.6549 -0.8986 -1.0562
 3432TIP3   OH231710   1.454   5.416   1.117  0.1447 -0.4240 -0.5010
 3432TIP3    H131711   1.477   5.348   1.182 -0.3690 -1.1442 -1.0536
 3432TIP3    H231712   1.364   5.439   1.138  0.4039  0.2973 -0.1499
 3433TIP3   OH231713   5.796   4.782  14.194 -0.6558 -0.2879 -0.3124
 3433TIP3    H131714   5.781   4.755  14.284 -0.0451 -0.7878 -0.3598
 3433TIP3    H231715   5.885   4.753  14.174 -0.5142  0.4674 -0.8388
 3434TIP3   OH231716   5.739   4.690   2.511  0.3008 -0.9178  0.6653
 3434TIP3    H131717   5.811   4.643   2.469 -0.3017 -0.6229 -0.7447
 3434TIP3    H231718   5.671   4.623   2.523 -0.3530 -0.5527 -0.8519
 3435TIP3   OH231719   6.458   1.190   4.547 -0.0208 -0.9341  0.5223
 3435TIP3    H131720   6.436   1.244   4.471  0.4474 -1.1832  0.2049
 3435TIP3    H231721   6.531   1.136   4.518  0.6132 -0.5541  1.3662
 3436TIP3   OH231722   6.621   0.123   3.042  0.3955  0.2170  0.1901
 3436TIP3    H131723   6.550   0.111   3.105  0.4335 -0.7836  0.0696
 3436TIP3    H231724   6.661   0.207   3.065 -1.3085  1.1810 -0.2438
 3437TIP3   OH231725   3.475   2.134  12.021  0.3554  0.0446  0.2876
 3437TIP3    H131726   3.392   2.170  12.053  0.3031 -0.1352  0.3601
 3437TIP3    H231727   3.525   2.117  12.101 -0.2109 -1.4499  0.3589
 3438TIP3   OH231728   6.236   5.954  10.840  0.2227  0.1621  0.1261
 3438TIP3    H131729   6.153   5.918  10.871  0.0332  1.2077  0.8502
 3438TIP3    H231730   6.296   5.879  10.841  0.0259 -0.0276  2.3026
 3439TIP3   OH231731   6.278   4.417  13.591  0.2309 -0.2121 -0.1847
 3439TIP3    H131732   6.368   4.396  13.616  0.4333 -0.0995 -0.8047
 3439TIP3    H231733   6.266   4.509  13.617 -0.4447 -0.8371  1.9375
 3440TIP3   OH231734   2.911   0.067   3.194  0.4045 -0.0158 -0.2561
 3440TIP3    H131735   2.824   0.109   3.200  0.4570 -0.0642  1.8642
 3440TIP3    H231736   2.956   0.096   3.274  2.0363 -0.6820 -0.9004
 3441TIP3   OH231737   3.439   6.598  15.497  0.2890  0.3273 -0.5891
 3441TIP3    H131738   3.515   6.539  15.495 -0.2889 -0.4561 -0.2405
 3441TIP3    H231739   3.364   6.539  15.509 -0.4479  1.0176 -1.6343
 3442TIP3   OH231740   4.422   5.330   4.022  0.3901 -0.5685  0.2311
 3442TIP3    H131741   4.343   5.303   4.068 -0.4609 -1.1211 -1.4732
 3442TIP3    H231742   4.395   5.406   3.970  0.7407 -1.2395 -0.9690
 3443TIP3   OH231743   3.464   0.971  13.515  0.2019  0.2243 -0.2374
 3443TIP3    H131744   3.512   1.027  13.453 -0.5765  1.3627  0.1526
 3443TIP3    H231745   3.455   1.025  13.594 -1.4810 -0.0468 -0.2118
 3444TIP3   OH231746   6.119   4.577   6.411  0.4518 -0.2568  0.1748
 3444TIP3    H131747   6.168   4.591   6.492  1.1197  4.8951 -0.7720
 3444TIP3    H231748   6.029   4.599   6.433  0.8000  2.1966 -0.4902
 3445TIP3   OH231749   3.115   2.307  15.358  0.0809 -0.6601  0.1003
 3445TIP3    H131750   3.139   2.371  15.291  1.1089 -0.0140  1.0669
 3445TIP3    H231751   3.155   2.225  15.329 -0.7741 -0.7666 -0.8505
 3446TIP3   OH231752   1.643   4.739   4.750  0.0172  0.1708  0.0483
 3446TIP3    H131753   1.547   4.746   4.744 -0.2044 -1.1568  1.5261
 3446TIP3    H231754   1.661   4.646   4.734  0.8832  0.0600  1.5303
 3447TIP3   OH231755   5.621   2.307   3.777 -0.5247 -0.6749  0.6625
 3447TIP3    H131756   5.702   2.329   3.823 -1.6457 -0.8065  2.8101
 3447TIP3    H231757   5.606   2.380   3.717  0.4637  0.0049  1.2294
 3448TIP3   OH231758   3.266   2.624  16.918 -0.3848  0.2268 -0.3852
 3448TIP3    H131759   3.205   2.686  16.958 -1.6991 -0.8132 -0.6982
 3448TIP3    H231760   3.282   2.660  16.831  0.7628  1.3484  0.2513
 3449TIP3   OH231761   5.605   6.603   1.481  0.2357  0.1234  0.3467
 3449TIP3    H131762   5.576   6.640   1.564  1.9113  2.0519  0.1569
 3449TIP3    H231763   5.676   6.544   1.504 -1.5063 -2.0314  0.5150
 3450TIP3   OH231764   2.041   0.150  12.202  0.4395 -0.1851 -0.1719
 3450TIP3    H131765   1.953   0.113  12.207 -1.2983  3.3269 -1.3825
 3450TIP3    H231766   2.044   0.214  12.274  1.5791  0.5186 -0.8166
 3451TIP3   OH231767   4.139   0.910  12.884 -0.0941 -0.3340  0.3423
 3451TIP3    H131768   4.065   0.964  12.856  1.0608  1.5889  0.7712
 3451TIP3    H231769   4.147   0.843  12.816 -0.3512  1.2994 -1.3906
 3452TIP3   OH231770   1.666   5.011   0.968  0.5328 -0.5914 -0.5238
 3452TIP3    H131771   1.623   4.991   1.051  0.8918 -0.4762 -0.3059
 3452TIP3    H231772   1.721   5.088   0.987  1.3171 -1.1107 -0.6277
 3453TIP3   OH231773   4.102   1.245   2.328 -0.1299  0.1152 -0.3448
 3453TIP3    H131774   4.159   1.318   2.349  1.5213 -0.8031 -1.4202
 3453TIP3    H231775   4.049   1.276   2.254 -0.2377  0.5912 -0.0698
 3454TIP3   OH231776   5.427   1.349  12.834 -0.8349 -0.3264 -0.1813
 3454TIP3    H131777   5.404   1.258  12.817  2.1034 -1.1349 -0.2435
 3454TIP3    H231778   5.463   1.349  12.923 -0.6472  0.7684 -0.2398
 3455TIP3   OH231779   5.550   1.957   1.574 -0.3716  0.0112 -0.4308
 3455TIP3    H131780   5.507   1.903   1.507 -1.1401  0.3265 -0.1930
 3455TIP3    H231781   5.596   2.024   1.523 -0.9987  0.2843 -0.6556
 3456TIP3   OH231782   2.841   0.486   2.698  0.4290  0.3189  0.2485
 3456TIP3    H131783   2.747   0.499   2.714  0.5778  0.0423  1.4014
 3456TIP3    H231784   2.871   0.570   2.664 -0.1982  0.4746  0.0553
 3457TIP3   OH231785   2.801   0.643   0.500 -0.3957  0.0821  0.1913
 3457TIP3    H131786   2.860   0.718   0.495  0.2847 -0.4392  0.2962
 3457TIP3    H231787   2.793   0.612   0.409 -0.8883  0.4381  0.1099
 3458TIP3   OH231788   6.605   2.086  16.556  0.2094  0.2694 -0.2307
 3458TIP3    H131789   6.524   2.103  16.508  0.1395 -0.1595 -0.2696
 3458TIP3    H231790   6.664   2.048  16.491  0.6167  1.0350 -0.3202
 3459TIP3   OH231791   3.601   0.800   6.085 -0.4138  0.8278 -0.3371
 3459TIP3    H131792   3.630   0.875   6.034 -0.8993  0.8587 -0.5669
 3459TIP3    H231793   3.670   0.788   6.151 -0.2706  1.3866 -0.3857
 3460TIP3   OH231794   0.133   2.500  16.828  0.8019 -0.2672 -0.8600
 3460TIP3    H131795   0.141   2.595  16.838 -1.3584 -0.2177  1.8437
 3460TIP3    H231796   0.206   2.464  16.877  0.1596  0.0549  0.3755
 3461TIP3   OH231797   6.559   5.869   6.036 -0.0191 -0.1463 -0.1801
 3461TIP3    H131798   6.587   5.864   5.944 -2.1977  1.1958 -0.9841
 3461TIP3    H231799   6.627   5.922   6.078  0.2241  0.5523 -1.3896
 3462TIP3   OH231800   2.898   3.352  15.184  0.0621 -0.1913 -0.3986
 3462TIP3    H131801   2.877   3.294  15.258  0.5674  0.2516  0.1096
 3462TIP3    H231802   2.984   3.323  15.155  0.6231  0.7046  0.2929
 3463TIP3   OH231803   5.807   0.938   2.517 -0.3196  0.1500 -0.8710
 3463TIP3    H131804   5.835   1.011   2.571  1.8960 -0.5587 -0.9650
 3463TIP3    H231805   5.861   0.944   2.438  0.7547 -2.1408 -0.4232
 3464TIP3   OH231806   5.357   3.606  11.126  0.3849  0.3095 -0.2808
 3464TIP3    H131807   5.314   3.595  11.041  0.3186  3.0689 -0.6755
 3464TIP3    H231808   5.445   3.635  11.106  0.7517 -0.1246  0.6104
 3465TIP3   OH231809   4.121   5.022   2.194 -0.9597 -0.2784  0.2121
 3465TIP3    H131810   4.200   4.968   2.199 -0.9557 -0.3674 -0.6358
 3465TIP3    H231811   4.050   4.960   2.178 -1.5456 -0.4341  2.9348
 3466TIP3   OH231812   0.966   4.400  11.836 -0.2214  0.5863 -0.5559
 3466TIP3    H131813   0.963   4.404  11.741  0.9509  1.9121 -0.5689
 3466TIP3    H231814   0.874   4.398  11.863 -0.5609 -0.8044 -1.7158
 3467TIP3   OH231815   2.152   5.557  12.953  0.4005  0.1772 -0.0858
 3467TIP3    H131816   2.166   5.473  12.909  1.1765  1.1329 -1.7933
 3467TIP3    H231817   2.210   5.554  13.029 -1.6007 -1.8693  1.5068
 3468TIP3   OH231818   0.135   3.875   5.992 -0.4682 -0.3613 -0.2746
 3468TIP3    H131819   0.096   3.825   6.064 -1.6642  2.8634  1.5138
 3468TIP3    H231820   0.216   3.910   6.028 -0.2856  0.0095 -1.0267
 3469TIP3   OH231821   4.091   3.462  12.416 -0.2407 -0.3453  0.5397
 3469TIP3    H131822   4.001   3.452  12.446 -1.2056  2.5732 -0.9925
 3469TIP3    H231823   4.092   3.419  12.330 -0.1758 -0.3356  0.5357
 3470TIP3   OH231824   5.311   3.947   1.544 -0.1506  0.1339 -0.4209
 3470TIP3    H131825   5.349   3.958   1.632 -0.9618 -1.6215  0.2022
 3470TIP3    H231826   5.234   3.892   1.559 -0.3081 -0.1818 -2.2475
 3471TIP3   OH231827   0.030   2.220   4.523  0.4914  0.0414 -0.3978
 3471TIP3    H131828   0.107   2.230   4.466  2.0535  1.0101  1.7558
 3471TIP3    H231829   0.030   2.127   4.546  1.2018  0.0879 -0.1864
 3472TIP3   OH231830   5.557   0.750  15.339 -0.5152  0.0231 -0.5358
 3472TIP3    H131831   5.644   0.731  15.304  0.3773  2.9945 -0.1995
 3472TIP3    H231832   5.514   0.800  15.271 -1.9423 -1.2102 -0.5979
 3473TIP3   OH231833   4.796   0.704   3.725 -0.6409 -0.1615 -0.0682
 3473TIP3    H131834   4.714   0.709   3.775 -0.7293  1.5843 -0.3398
 3473TIP3    H231835   4.864   0.724   3.789 -0.5054 -0.6979 -0.0435
 3474TIP3   OH231836   0.798   2.509  11.009  0.5058  0.2241  0.0817
 3474TIP3    H131837   0.845   2.425  11.012  1.9355  0.9149 -1.3949
 3474TIP3    H231838   0.800   2.541  11.099  1.3445 -0.6038  0.3751
 3475TIP3   OH231839   1.616   1.098   3.646 -0.3226 -0.2815  0.0818
 3475TIP3    H131840   1.620   1.004   3.631  0.5676 -0.5363  1.6430
 3475TIP3    H231841   1.545   1.129   3.590  0.6301 -1.5569 -1.9362
 3476TIP3   OH231842   1.824   3.592  15.396  0.2546  0.0415 -0.0892
 3476TIP3    H131843   1.839   3.566  15.305 -1.0701  0.2576 -0.3929
 3476TIP3    H231844   1.836   3.687  15.396  1.7245 -0.1215  0.2975
 3477TIP3   OH231845   1.709   5.889   2.274  0.6738  0.2709 -0.0463
 3477TIP3    H131846   1.799   5.866   2.251  1.2680  0.6793  1.6928
 3477TIP3    H231847   1.707   5.985   2.268  0.0047  0.1956 -1.2053
 3478TIP3   OH231848   5.750   6.323  13.499 -0.0763  0.1184 -0.2345
 3478TIP3    H131849   5.770   6.231  13.516  0.2467  0.0887 -0.7224
 3478TIP3    H231850   5.711   6.323  13.411  0.2070  0.4761 -0.3641
 3479TIP3   OH231851   6.539   0.731  16.986  0.9106  0.0523 -0.3244
 3479TIP3    H131852   6.560   0.797  17.052  0.5231 -0.5616  0.4348
 3479TIP3    H231853   6.447   0.746  16.965  1.2119  0.6994 -1.2794
 3480TIP3   OH231854   4.320   1.594   1.319 -0.5412  0.1446 -0.1449
 3480TIP3    H131855   4.317   1.637   1.404  1.4386  1.3569 -0.6146
 3480TIP3    H231856   4.353   1.661   1.259 -0.4949 -1.0943 -1.5884
 3481TIP3   OH231857   0.247   6.271  15.822  0.1696 -0.4149 -0.3815
 3481TIP3    H131858   0.279   6.278  15.732  1.2607 -1.1714 -0.0710
 3481TIP3    H231859   0.307   6.325  15.873  0.2471 -0.8995  0.0504
 3482TIP3   OH231860   0.409   1.696  12.041 -0.0736  0.2713  0.4595
 3482TIP3    H131861   0.358   1.715  12.120  0.2288  1.6343  0.3645
 3482TIP3    H231862   0.354   1.636  11.991 -1.5676  1.5886  0.4217
 3483TIP3   OH231863   6.117   4.778  13.552  0.3196  0.1527  0.3852
 3483TIP3    H131864   6.076   4.793  13.637 -0.9802  0.4624 -0.2871
 3483TIP3    H231865   6.051   4.802  13.487  2.2124  2.6056 -0.7825
 3484TIP3   OH231866   3.781   2.464   1.049 -0.4996  0.4622  0.4556
 3484TIP3    H131867   3.799   2.372   1.067 -1.4321 -0.2282 -1.8052
 3484TIP3    H231868   3.686   2.467   1.033 -0.5071  1.8479  0.5916
 3485TIP3   OH231869   2.608   1.305   1.427 -0.5746 -0.3301 -0.1591
 3485TIP3    H131870   2.628   1.399   1.424 -1.0780 -0.0003  3.2324
 3485TIP3    H231871   2.512   1.302   1.427 -0.5583 -0.7964  0.5713
 3486TIP3   OH231872   6.559   4.224   4.544  0.4644 -0.0329 -0.0236
 3486TIP3    H131873   6.527   4.215   4.454 -0.2554 -0.9454  0.3032
 3486TIP3    H231874   6.495   4.176   4.596 -1.6649  4.0949  1.5719
 3487TIP3   OH231875   0.345   6.028  16.498 -0.1202  0.2330  0.2073
 3487TIP3    H131876   0.311   6.086  16.430 -1.4413  0.5158  1.0645
 3487TIP3    H231877   0.269   6.008  16.553  0.4519 -1.7387  0.3671
 3488TIP3   OH231878   4.773   5.813  14.323 -0.2398  0.2858 -0.3253
 3488TIP3    H131879   4.728   5.890  14.357  0.9606 -0.0133  2.1760
 3488TIP3    H231880   4.755   5.744  14.387  1.3732 -0.6034 -0.7730
 3489TIP3   OH231881   3.870   2.474  12.744  0.3162  0.2386  1.2706
 3489TIP3    H131882   3.868   2.569  12.745  0.8117  0.3329 -1.1452
 3489TIP3    H231883   3.955   2.452  12.782  1.5231  0.9497 -0.8509
 3490TIP3   OH231884   0.372   3.082   5.958  0.3644 -0.3715 -0.5316
 3490TIP3    H131885   0.327   3.068   5.875  1.5767 -0.5238 -1.1773
 3490TIP3    H231886   0.464   3.093   5.934  0.2737  3.9309  0.3262
 3491TIP3   OH231887   4.866   0.311  11.797  0.0423  0.4046  0.0215
 3491TIP3    H131888   4.844   0.400  11.771  0.1149  0.3856 -0.1048
 3491TIP3    H231889   4.832   0.303  11.886  0.6237  0.7802  0.2884
 3492TIP3   OH231890   6.142   5.025  15.320 -0.2960 -0.3823  0.4587
 3492TIP3    H131891   6.107   4.984  15.399 -2.2672  0.5522  0.1135
 3492TIP3    H231892   6.151   5.117  15.343  0.7097 -0.3783  0.0954
 3493TIP3   OH231893   2.106   0.768   2.198 -0.3307  0.1627 -0.1407
 3493TIP3    H131894   2.091   0.768   2.293 -0.4235 -1.1905 -0.1280
 3493TIP3    H231895   2.200   0.759   2.188  0.1333  3.7923 -0.2249
 3494TIP3   OH231896   4.576   1.814   2.619 -0.4405 -0.5440 -0.0825
 3494TIP3    H131897   4.642   1.881   2.641  0.5251 -1.6207  0.4252
 3494TIP3    H231898   4.617   1.732   2.644 -1.1185 -1.4545 -1.7929
 3495TIP3   OH231899   3.637   2.096  17.102 -0.7548  0.3265 -0.0893
 3495TIP3    H131900   3.595   2.039  17.038 -2.4287  0.5659  0.7386
 3495TIP3    H231901   3.583   2.088  17.181 -0.0366  1.7309  0.5941
 3496TIP3   OH231902   0.314   3.781  12.175 -0.6052  0.2643 -0.1544
 3496TIP3    H131903   0.370   3.791  12.099  1.5966 -0.1354  1.3180
 3496TIP3    H231904   0.225   3.793  12.142  0.3216  0.8218 -2.6120
 3497TIP3   OH231905   6.542   0.067   6.211  0.2964  0.0102 -0.0975
 3497TIP3    H131906   6.558   0.088   6.303 -1.2687  1.2941 -0.0782
 3497TIP3    H231907   6.487  -0.012   6.214  1.2961 -0.7078 -0.0029
 3498TIP3   OH231908   5.425   3.357  11.273 -0.7415 -0.0355  0.1586
 3498TIP3    H131909   5.347   3.328  11.225 -1.5579 -0.3851  1.5997
 3498TIP3    H231910   5.418   3.452  11.277 -0.3968  0.0352 -0.8304
 3499TIP3   OH231911   3.531   0.792  11.376  0.1994  0.3121  0.1796
 3499TIP3    H131912   3.465   0.817  11.441  0.1794 -0.8349  0.6229
 3499TIP3    H231913   3.483   0.789  11.293 -1.2723 -3.8623  0.9467
 3500TIP3   OH231914   3.016   4.348  12.889  0.0658  0.6218 -0.0233
 3500TIP3    H131915   3.011   4.340  12.794  0.6951 -1.8571  0.0801
 3500TIP3    H231916   3.056   4.266  12.918  2.6630  2.4460  2.1617
 3501TIP3   OH231917   0.576   0.595   0.590  0.0508 -0.7480 -0.2055
 3501TIP3    H131918   0.486   0.584   0.621 -0.5496  1.4886 -0.9777
 3501TIP3    H231919   0.628   0.608   0.669 -0.4655 -1.0353  0.1869
 3502TIP3   OH231920   4.036   4.229   4.751  0.2346 -0.1591  0.1513
 3502TIP3    H131921   4.100   4.265   4.812  0.7487 -1.4146  0.3657
 3502TIP3    H231922   4.075   4.148   4.720 -1.1445 -0.8177  0.0836
 3503TIP3   OH231923   4.232   2.251   1.242  0.1261  0.0239  0.0637
 3503TIP3    H131924   4.228   2.197   1.321 -0.5176 -1.4112 -0.9076
 3503TIP3    H231925   4.203   2.338   1.271  2.0336  0.1329  1.8527
 3504TIP3   OH231926   6.509   1.556   4.387 -0.0531 -0.1613  0.1305
 3504TIP3    H131927   6.574   1.615   4.349 -2.1908  1.2060 -1.6296
 3504TIP3    H231928   6.498   1.588   4.477  0.4391  0.6990 -0.1029
 3505TIP3   OH231929   5.011   3.460  16.579 -0.2677 -0.3289 -0.4536
 3505TIP3    H131930   5.021   3.377  16.533 -2.0779 -0.9479  0.1705
 3505TIP3    H231931   4.968   3.437  16.661 -2.4821  1.3618 -1.0198
 3506TIP3   OH231932   0.829   1.150   4.432 -0.2339  0.5768  0.0589
 3506TIP3    H131933   0.830   1.058   4.457  0.4844  1.0155  1.7892
 3506TIP3    H231934   0.737   1.168   4.411 -0.5018 -0.3494  0.4001
 3507TIP3   OH231935   4.032   0.465   2.524  0.0530 -0.0585 -0.1236
 3507TIP3    H131936   3.957   0.481   2.581 -2.5737  0.8081 -3.4845
 3507TIP3    H231937   4.013   0.380   2.483  0.1932  0.7504 -1.9560
 3508TIP3   OH231938   5.810   3.175  11.643 -0.1664 -0.0698  0.0854
 3508TIP3    H131939   5.846   3.087  11.653 -0.3960 -0.1183  0.5070
 3508TIP3    H231940   5.768   3.194  11.727  0.2863  0.6234  0.1726
 3509TIP3   OH231941   3.751   2.251   3.983  0.6522  0.5282 -0.0643
 3509TIP3    H131942   3.825   2.254   4.044  2.3376  1.2251 -2.0327
 3509TIP3    H231943   3.785   2.288   3.902 -1.2847 -1.0055 -1.6885
 3510TIP3   OH231944   0.157   0.808  13.992 -0.1264  0.2206  0.2900
 3510TIP3    H131945   0.209   0.833  13.916 -1.2224  0.5423 -0.3760
 3510TIP3    H231946   0.196   0.726  14.022  0.1595 -0.0478 -0.7801
 3511TIP3   OH231947   2.102   5.235  12.918  0.1624  0.1277 -0.6460
 3511TIP3    H131948   2.013   5.256  12.948  0.8905  0.1673  1.7377
 3511TIP3    H231949   2.130   5.164  12.976  1.5442 -0.1473 -1.6130
 3512TIP3   OH231950   2.578   3.514   0.069  0.5921 -0.1556 -0.2802
 3512TIP3    H131951   2.511   3.570   0.029  1.3646 -0.8183 -2.6615
 3512TIP3    H231952   2.528   3.452   0.123 -0.6445  0.0977 -1.0806
 3513TIP3   OH231953   3.766   5.754   2.356  0.7223  0.3761 -0.6348
 3513TIP3    H131954   3.784   5.818   2.425  0.9124 -0.3858  0.0392
 3513TIP3    H231955   3.846   5.704   2.349  1.1498  1.2373 -2.3095
 3514TIP3   OH231956   6.575   3.933   3.021  0.3788  0.0552 -0.1416
 3514TIP3    H131957   6.666   3.962   3.029  0.4939 -0.5339  0.9149
 3514TIP3    H231958   6.577   3.871   2.948  1.3169 -1.6808  1.2803
 3515TIP3   OH231959   3.390   6.050  16.150 -0.0397 -0.2017 -0.2623
 3515TIP3    H131960   3.468   6.103  16.168  0.3664 -0.5185 -1.0224
 3515TIP3    H231961   3.365   6.014  16.234  0.3684  0.2732  0.0679
 3516TIP3   OH231962   2.169   1.863   3.794  0.1717  0.2671  0.7472
 3516TIP3    H131963   2.169   1.956   3.772  0.5129  0.5047  1.6840
 3516TIP3    H231964   2.081   1.833   3.774  0.3166  0.5803 -0.4037
 3517TIP3   OH231965   6.634   3.195   1.018 -0.5243 -0.2819  0.4741
 3517TIP3    H131966   6.669   3.108   1.036 -0.0597  0.1504  1.7447
 3517TIP3    H231967   6.707   3.254   1.034  0.0346  0.2239 -3.0766
 3518TIP3   OH231968   5.053   6.070  16.259 -0.1092  0.1974  0.5024
 3518TIP3    H131969   5.084   6.159  16.242  0.5098 -0.3423 -1.3854
 3518TIP3    H231970   4.989   6.053  16.191 -0.0950 -0.8736  0.7374
 3519TIP3   OH231971   1.948   0.146  15.961  0.2170 -0.1685  0.8353
 3519TIP3    H131972   1.914   0.084  15.897 -1.4978  0.8354  0.6929
 3519TIP3    H231973   2.038   0.162  15.934 -0.0606 -0.7873 -0.5318
 3520TIP3   OH231974   5.122   2.013  16.637  0.5565 -0.0162 -0.2714
 3520TIP3    H131975   5.142   2.097  16.679  0.2864 -0.1908  0.2162
 3520TIP3    H231976   5.075   2.036  16.557 -0.7179  0.2615  0.5279
 3521TIP3   OH231977   4.878   3.833  14.368  0.5121 -0.3949  0.0186
 3521TIP3    H131978   4.820   3.762  14.394  1.0474 -0.6803  0.4698
 3521TIP3    H231979   4.867   3.900  14.436  0.3603 -0.2570 -0.1444
 3522TIP3   OH231980   1.507   4.494   3.741 -0.0819  0.0391  0.4220
 3522TIP3    H131981   1.449   4.570   3.741  1.2624  1.0945 -0.2404
 3522TIP3    H231982   1.590   4.526   3.705  0.7777 -1.5407  0.8903
 3523TIP3   OH231983   6.254   0.065   6.486 -0.3038 -1.3453  0.0446
 3523TIP3    H131984   6.197   0.113   6.546 -1.8135 -2.3528 -0.4983
 3523TIP3    H231985   6.222   0.088   6.399  1.8860  0.1297 -0.4335
 3524TIP3   OH231986   3.835   1.491   3.538  0.3315  0.2643  0.1576
 3524TIP3    H131987   3.889   1.517   3.464  0.6466 -3.1897 -0.9670
 3524TIP3    H231988   3.852   1.558   3.605  1.4805  2.4422 -2.1621
 3525TIP3   OH231989   2.186   0.579   5.729  0.0783 -0.9758  0.1179
 3525TIP3    H131990   2.144   0.580   5.643 -0.9405 -0.5973  0.6042
 3525TIP3    H231991   2.276   0.609   5.713 -0.3635 -0.0423 -0.6903
 3526TIP3   OH231992   6.128   4.149   4.984 -0.3037  0.3069  0.1575
 3526TIP3    H131993   6.188   4.078   5.010 -0.2841  0.2037 -0.1624
 3526TIP3    H231994   6.118   4.138   4.889 -0.0613  0.9177  0.0540
 3527TIP3   OH231995   1.595   3.168   5.505 -0.7461  0.6248 -0.1723
 3527TIP3    H131996   1.558   3.085   5.475 -0.5187  0.0935  0.9541
 3527TIP3    H231997   1.541   3.235   5.463 -2.5982 -0.1182  0.9075
 3528TIP3   OH231998   0.482   4.159  16.360  0.2433  0.4357 -0.1876
 3528TIP3    H131999   0.541   4.134  16.431 -0.8592  0.8717  0.9185
 3528TIP3    H232000   0.530   4.226  16.312  1.7683 -1.1679 -1.0310
 3529TIP3   OH232001   1.517   4.466  15.462  0.2076 -0.1980  0.5078
 3529TIP3    H132002   1.461   4.475  15.385 -0.3892  2.4968  1.1337
 3529TIP3    H232003   1.606   4.466  15.427 -0.0915 -1.5697 -0.3104
 3530TIP3   OH232004   5.588   6.529   3.827 -0.5180  0.1468  0.0576
 3530TIP3    H132005   5.551   6.441   3.834  1.4490 -0.7734 -0.4880
 3530TIP3    H232006   5.513   6.584   3.803 -1.5592 -1.6005 -0.9119
 3531TIP3   OH232007   2.637   2.666  16.020  0.1036  0.4027  0.0533
 3531TIP3    H132008   2.544   2.650  16.038 -0.0606  1.7322  0.5584
 3531TIP3    H232009   2.674   2.685  16.106  0.9625 -0.6282 -0.0818
 3532TIP3   OH232010   6.108   6.694   2.844 -0.5389  0.3775  0.1356
 3532TIP3    H132011   6.079   6.743   2.767  1.3873  0.8343 -0.3527
 3532TIP3    H232012   6.188   6.738   2.872 -0.6259 -0.4239  1.7880
 3533TIP3   OH232013   4.174   4.095  13.493  0.3708 -0.3452  0.4710
 3533TIP3    H132014   4.154   4.093  13.399 -0.0076 -0.7876  0.5589
 3533TIP3    H232015   4.174   4.003  13.520 -2.0044 -0.1469  1.4114
 3534TIP3   OH232016   5.081   3.297   4.311 -0.0566 -0.1917  0.0333
 3534TIP3    H132017   5.031   3.247   4.246 -0.1939 -0.6651  0.4981
 3534TIP3    H232018   5.048   3.266   4.395  1.3260 -0.8364  0.3599
 3535TIP3   OH232019   4.047   5.688   3.438 -0.4868 -0.3963  0.0395
 3535TIP3    H132020   4.121   5.652   3.486 -0.5158 -1.4287 -0.6736
 3535TIP3    H232021   4.079   5.698   3.348 -0.9351  0.0096 -0.0823
 3536TIP3   OH232022   4.804   2.878   4.039  1.1835 -0.3799 -0.3951
 3536TIP3    H132023   4.726   2.878   3.984  1.8200  0.5607 -1.3380
 3536TIP3    H232024   4.771   2.871   4.128 -0.0656  1.5395 -0.6640
 3537TIP3   OH232025   2.449   0.634  11.376 -0.7395  0.3388 -0.2098
 3537TIP3    H132026   2.362   0.610  11.407 -0.1028  0.1784  1.6323
 3537TIP3    H232027   2.455   0.597  11.288 -1.7366 -1.6088  0.4710
 3538TIP3   OH232028   2.932   3.665  11.845 -0.1429  0.0567 -0.0307
 3538TIP3    H132029   2.892   3.751  11.830 -0.8935 -0.3287 -0.3236
 3538TIP3    H232030   2.882   3.606  11.789  0.5633 -0.5216 -0.0564
 3539TIP3   OH232031   1.737   0.529  17.079  0.0686  0.2546  0.3235
 3539TIP3    H132032   1.696   0.612  17.052  2.4105  1.6325  0.6963
 3539TIP3    H232033   1.749   0.481  16.997 -0.8846  0.4628  0.0429
 3540TIP3   OH232034   6.019   2.400   1.612 -0.5430  0.3779 -0.2730
 3540TIP3    H132035   6.043   2.480   1.565 -0.1909 -0.2957 -1.2625
 3540TIP3    H232036   6.088   2.389   1.678 -0.0234  0.3187 -0.8261
 3541TIP3   OH232037   3.784   0.163  10.496 -0.2410 -0.1678  0.0996
 3541TIP3    H132038   3.824   0.103  10.559  0.4502 -0.2022 -0.3692
 3541TIP3    H232039   3.726   0.218  10.550  0.9068  0.3052  0.8969
 3542TIP3   OH232040   5.683   1.168  14.104  0.3902  0.0840 -0.3459
 3542TIP3    H132041   5.709   1.245  14.053  3.4392  0.6032  1.6774
 3542TIP3    H232042   5.656   1.204  14.189  1.6286 -0.9965  0.5482
 3543TIP3   OH232043   2.530   2.987   5.272 -0.0305  0.2713 -0.0294
 3543TIP3    H132044   2.459   2.942   5.318 -0.3842  1.0114  0.1648
 3543TIP3    H232045   2.492   3.070   5.245  1.2608  1.4721  1.6397
 3544TIP3   OH232046   0.306   0.359  12.944  0.5997  0.1701 -0.4015
 3544TIP3    H132047   0.249   0.435  12.952 -1.6042 -1.5720  3.6010
 3544TIP3    H232048   0.366   0.367  13.018  1.0838 -1.3893 -0.5915
 3545TIP3   OH232049   0.230   3.544  15.206 -0.2086  0.2647  0.2515
 3545TIP3    H132050   0.253   3.614  15.267  0.0823  1.3638 -1.0621
 3545TIP3    H232051   0.173   3.485  15.257  0.9048  0.5256  1.8812
 3546TIP3   OH232052   4.776   2.822   4.764  0.3692 -0.4539  0.3207
 3546TIP3    H132053   4.787   2.743   4.817  0.0070 -0.3221  0.5931
 3546TIP3    H232054   4.855   2.873   4.782 -0.1278 -0.0243  1.4022
 3547TIP3   OH232055   4.765   1.221  12.634  0.4874 -0.5975 -0.0588
 3547TIP3    H132056   4.773   1.313  12.660  0.7009 -0.4132 -0.7621
 3547TIP3    H232057   4.804   1.172  12.707  0.1732 -0.1432  0.4167
 3548TIP3   OH232058   5.090   1.928  16.909 -0.6004  0.6026 -0.2457
 3548TIP3    H132059   5.099   1.966  16.822 -1.2535 -0.1588 -0.6656
 3548TIP3    H232060   5.010   1.874  16.904 -0.3947  0.1803  0.6806
 3549TIP3   OH232061   1.828   3.254   4.784  0.5313  0.7080  0.3015
 3549TIP3    H132062   1.744   3.266   4.829  1.3576  0.1368  2.0656
 3549TIP3    H232063   1.804   3.215   4.699 -1.0036  0.8828  0.6289
 3550TIP3   OH232064   2.165   0.449   1.793 -0.0282 -0.2406  0.1026
 3550TIP3    H132065   2.231   0.381   1.807  0.0460 -0.2989 -0.4920
 3550TIP3    H232066   2.083   0.400   1.783 -0.5958 -0.0715  3.1064
 3551TIP3   OH232067   4.744   3.614   0.471  0.4489 -0.1707 -0.2429
 3551TIP3    H132068   4.720   3.528   0.506  0.4270 -0.8771 -1.8918
 3551TIP3    H232069   4.694   3.621   0.390  1.2572  0.9433 -0.6617
 3552TIP3   OH232070   5.277   1.428  15.040  0.4817  0.0329 -0.3198
 3552TIP3    H132071   5.333   1.501  15.013  2.8962 -1.5265  0.0841
 3552TIP3    H232072   5.312   1.403  15.126 -1.8540 -0.1244  0.6444
 3553TIP3   OH232073   2.270   4.429  16.578  0.3197 -0.0755  0.5587
 3553TIP3    H132074   2.353   4.383  16.594  0.2848 -1.6044 -2.7870
 3553TIP3    H232075   2.221   4.370  16.521 -3.2836  0.6747  2.5944
 3554TIP3   OH232076   6.142   3.280   0.711  0.1541 -0.5058  0.5359
 3554TIP3    H132077   6.155   3.185   0.716  0.6802 -0.4126  0.9322
 3554TIP3    H232078   6.129   3.307   0.801  2.4046  0.1361  0.7145
 3555TIP3   OH232079   2.287   0.071  16.463 -0.5136 -0.1435  0.7704
 3555TIP3    H132080   2.355   0.129  16.497 -0.4730  0.3151 -0.0602
 3555TIP3    H232081   2.334  -0.002  16.423 -0.5749 -1.2441  2.5835
 3556TIP3   OH232082   2.450   0.077   1.020 -0.1634  0.1018  0.0356
 3556TIP3    H132083   2.387   0.012   1.054 -0.3977 -0.6741 -1.7778
 3556TIP3    H232084   2.524   0.071   1.080 -0.8771 -0.6338  0.8815
 3557TIP3   OH232085   0.122   4.998  15.042  0.1509 -0.7458 -0.2348
 3557TIP3    H132086   0.077   5.083  15.051  1.5447  0.1469 -1.2984
 3557TIP3    H232087   0.214   5.018  15.058  0.3128 -2.4316  1.3315
 3558TIP3   OH232088   6.128   6.551  17.133  0.1499 -0.2463 -0.3729
 3558TIP3    H132089   6.203   6.493  17.147  2.2045  2.2160 -0.6091
 3558TIP3    H232090   6.148   6.598  17.053 -1.4518  0.8146 -0.1956
 3559TIP3   OH232091   0.858   1.253  12.556  0.4013 -0.0066  0.2117
 3559TIP3    H132092   0.852   1.158  12.560 -1.3229 -0.0171 -1.4170
 3559TIP3    H232093   0.951   1.272  12.573  0.6425 -1.8866  1.2911
 3560TIP3   OH232094   2.977   6.606   0.698 -0.4586 -0.1052 -0.6037
 3560TIP3    H132095   2.916   6.659   0.647 -0.4658  0.2373 -0.2486
 3560TIP3    H232096   3.018   6.548   0.634 -1.1299 -0.3157 -0.8520
 3561TIP3   OH232097   4.830   6.382   1.597 -0.0971 -0.1710  0.3797
 3561TIP3    H132098   4.753   6.413   1.645  0.8070 -0.9696  2.4351
 3561TIP3    H232099   4.901   6.440   1.624 -0.1108  1.3107 -2.3964
 3562TIP3   OH232100   1.625   2.627   2.990  0.4649  0.0581  0.0244
 3562TIP3    H132101   1.682   2.665   3.057  0.4225  1.9452 -0.9570
 3562TIP3    H232102   1.658   2.662   2.908 -0.7821 -0.5486 -0.7591
 3563TIP3   OH232103   4.208   1.283  11.762  0.3657 -0.9616  0.2021
 3563TIP3    H132104   4.221   1.190  11.747  0.0081 -1.3990  2.2715
 3563TIP3    H232105   4.143   1.309  11.698 -0.3984 -2.4201  0.3539
 3564TIP3   OH232106   0.144   0.131  15.612 -0.0869  0.5315  0.4683
 3564TIP3    H132107   0.103   0.170  15.689 -1.0713 -1.0112  0.7681
 3564TIP3    H232108   0.103   0.176  15.538  0.1257  1.3179  0.8255
 3565TIP3   OH232109   1.917   4.642  12.809 -0.0470 -0.1108 -0.0110
 3565TIP3    H132110   1.970   4.607  12.881 -1.1780  1.8858  1.9170
 3565TIP3    H232111   1.918   4.572  12.743  1.0969 -2.0349  1.8928
 3566TIP3   OH232112   1.628   1.365  15.857  0.2904  0.1194  0.5835
 3566TIP3    H132113   1.556   1.389  15.799  0.3110 -1.8729 -0.3654
 3566TIP3    H232114   1.679   1.445  15.867 -0.9930  1.0822 -0.2796
 3567TIP3   OH232115   4.984   1.366  12.809  0.1543  0.3840  0.4790
 3567TIP3    H132116   4.979   1.330  12.897 -0.7759  0.6155  0.5362
 3567TIP3    H232117   4.918   1.435  12.807  1.2973  1.5196  0.1076
 3568TIP3   OH232118   1.771   5.295  11.495  0.1056  0.2872  0.0331
 3568TIP3    H132119   1.723   5.275  11.414  1.8229 -1.0767 -0.7410
 3568TIP3    H232120   1.722   5.366  11.536 -2.2474 -0.6851 -0.9197
 3569TIP3   OH232121   0.364   6.130   6.267  0.0804  0.1022 -0.1597
 3569TIP3    H132122   0.290   6.165   6.317 -0.7869  1.8357 -2.4621
 3569TIP3    H232123   0.410   6.073   6.329 -1.7824  0.8590  2.0820
 3570TIP3   OH232124   5.856   5.683   3.819  0.1897 -0.2337 -0.0809
 3570TIP3    H132125   5.916   5.722   3.884  0.1529 -0.1899 -0.0725
 3570TIP3    H232126   5.783   5.650   3.871 -0.9417  1.7811 -0.2608
 3571TIP3   OH232127   5.010   3.874  13.914 -0.5601  0.1931  0.0421
 3571TIP3    H132128   4.930   3.836  13.949 -0.6328 -0.0163 -0.3492
 3571TIP3    H232129   5.019   3.837  13.826  0.9693 -1.2899  0.7684
 3572TIP3   OH232130   2.747   4.257   2.737  0.0493  0.2664 -0.5075
 3572TIP3    H132131   2.692   4.210   2.800  0.6226  0.7625  0.3886
 3572TIP3    H232132   2.715   4.347   2.739  2.0182  1.0462  1.4830
 3573TIP3   OH232133   2.068   1.889  12.958  0.3055  0.5615  0.0592
 3573TIP3    H132134   2.062   1.905  12.864 -0.6035  0.4798  0.0885
 3573TIP3    H232135   1.996   1.828  12.976 -1.3072  2.6460  1.2054
 3574TIP3   OH232136   4.697   1.355   4.730 -0.0235 -0.7264 -0.7212
 3574TIP3    H132137   4.674   1.419   4.797  1.0906 -0.0242 -0.9699
 3574TIP3    H232138   4.793   1.356   4.729  0.0708 -2.9084 -0.2546
 3575TIP3   OH232139   4.616   3.071  12.553  0.3655 -0.1567  0.5356
 3575TIP3    H132140   4.655   2.985  12.566  1.1392  0.1852  0.5408
 3575TIP3    H232141   4.664   3.129  12.613 -0.0170  0.3099  0.3973
 3576TIP3   OH232142   6.164   0.257  15.658 -0.1840 -0.0968  0.2657
 3576TIP3    H132143   6.207   0.197  15.720  0.4575  0.7840  0.7030
 3576TIP3    H232144   6.222   0.334  15.656 -0.3319 -0.0042 -1.2410
 3577TIP3   OH232145   4.530   6.299   2.405  0.2870  0.6609 -0.2326
 3577TIP3    H132146   4.527   6.282   2.311  1.1559  0.1403 -0.1777
 3577TIP3    H232147   4.502   6.390   2.415  0.8294  0.9214 -1.0553
 3578TIP3   OH232148   0.176   0.155   5.732 -0.5853 -0.2529 -0.3622
 3578TIP3    H132149   0.200   0.247   5.719 -0.3799 -0.4563 -1.5685
 3578TIP3    H232150   0.244   0.121   5.790  0.9425 -0.2965 -2.0767
 3579TIP3   OH232151   0.257   4.788   2.236  0.8995  0.0475 -0.6653
 3579TIP3    H132152   0.302   4.871   2.250  0.7071 -0.0419  0.6511
 3579TIP3    H232153   0.327   4.724   2.228  1.0791 -0.0909  1.3856
 3580TIP3   OH232154   3.129   5.598  15.645  0.2571 -0.1298  0.2371
 3580TIP3    H132155   3.143   5.527  15.583 -1.2567  0.7590 -1.2562
 3580TIP3    H232156   3.216   5.635  15.661  0.6348  0.1322 -2.0870
 3581TIP3   OH232157   3.962   0.690  14.686 -0.0291 -0.5388 -0.3816
 3581TIP3    H132158   4.029   0.623  14.703  0.2760 -0.3286 -0.7449
 3581TIP3    H232159   3.880   0.641  14.679 -0.2195 -0.6466  1.8244
 3582TIP3   OH232160   1.146   0.802   5.078  0.5080 -0.6706  0.6384
 3582TIP3    H132161   1.201   0.879   5.065  1.2862 -1.2320  0.4947
 3582TIP3    H232162   1.159   0.750   4.999 -0.9484 -0.4049  0.1964
 3583TIP3   OH232163   1.655   6.065  13.913 -0.4866 -0.0742  0.3673
 3583TIP3    H132164   1.677   6.031  13.999 -0.3374  0.3000  0.4785
 3583TIP3    H232165   1.566   6.098  13.921  0.1885  1.7120  0.9149
 3584TIP3   OH232166   1.744   3.517   2.267  0.7829 -0.5609 -0.1251
 3584TIP3    H132167   1.756   3.612   2.276 -0.2193 -0.6014  2.0008
 3584TIP3    H232168   1.651   3.506   2.250  0.9428 -1.1793 -0.6534
 3585TIP3   OH232169   4.959   6.293  11.972  0.3072  0.6385 -0.2710
 3585TIP3    H132170   4.954   6.368  11.913  0.8422  0.4857 -0.5207
 3585TIP3    H232171   4.903   6.317  12.046 -2.0461 -0.0025 -1.7226
 3586TIP3   OH232172   4.813   4.153  13.194  0.3041  0.7512 -0.2826
 3586TIP3    H132173   4.794   4.247  13.202 -0.9457  0.5643 -0.7381
 3586TIP3    H232174   4.743   4.111  13.245 -1.1637 -0.0277 -2.7583
 3587TIP3   OH232175   5.877   4.130  12.033 -0.3816 -0.2022 -0.2847
 3587TIP3    H132176   5.787   4.151  12.011 -1.1987 -2.1032  1.0094
 3587TIP3    H232177   5.908   4.077  11.960 -0.2413  0.5589 -0.7908
 3588TIP3   OH232178   2.338   4.492   6.406 -0.0705 -0.1916  0.4697
 3588TIP3    H132179   2.362   4.487   6.498 -0.3448 -3.7889  0.4782
 3588TIP3    H232180   2.420   4.505   6.359  0.1024  1.3311  1.1245
 3589TIP3   OH232181   5.024   6.393   0.761 -0.4492 -0.5651  0.4116
 3589TIP3    H132182   5.055   6.311   0.801 -1.0996 -1.3058 -0.5785
 3589TIP3    H232183   4.969   6.365   0.689 -0.7108  0.7643  0.0812
 3590TIP3   OH232184   5.105   5.157   1.145 -0.4662 -0.1469  0.1758
 3590TIP3    H132185   5.027   5.208   1.168  0.4585  1.5430 -0.2652
 3590TIP3    H232186   5.163   5.220   1.103  2.4773 -0.5219  3.2311
 3591TIP3   OH232187   5.172   5.213   4.441  0.3771 -1.0232 -0.0503
 3591TIP3    H132188   5.164   5.238   4.533 -2.5944 -2.1591  0.1210
 3591TIP3    H232189   5.197   5.120   4.444  1.1642 -0.8262 -0.4213
 3592TIP3   OH232190   6.609   5.974  16.557  0.2106 -0.0338  0.5991
 3592TIP3    H132191   6.691   6.023  16.566  0.3435  0.2797 -1.7734
 3592TIP3    H232192   6.619   5.899  16.616  0.6670  1.8557  3.1306
 3593TIP3   OH232193   0.591   5.585   3.942  0.1539 -0.0847  0.1215
 3593TIP3    H132194   0.537   5.573   3.865  2.2193 -2.0986 -1.1268
 3593TIP3    H232195   0.638   5.667   3.926  1.2259 -0.9223 -1.2524
 3594TIP3   OH232196   3.224   0.119  14.108  0.2312  0.1107  0.2762
 3594TIP3    H132197   3.195   0.195  14.158 -1.1345  1.4692 -2.4085
 3594TIP3    H232198   3.221   0.147  14.017  0.4238 -2.9367 -0.7783
 3595TIP3   OH232199   5.974   1.518  11.174 -0.1635 -0.0220 -0.0152
 3595TIP3    H132200   5.945   1.605  11.200 -2.8720 -0.8762  0.0787
 3595TIP3    H232201   5.942   1.507  11.084 -1.2330 -1.4740  0.5076
 3596TIP3   OH232202   2.898   6.688   1.050 -0.5700 -0.2729 -0.0129
 3596TIP3    H132203   2.866   6.681   0.961  0.3783 -1.3643 -0.3025
 3596TIP3    H232204   2.926   6.779   1.059 -0.1073 -0.2974 -1.0464
 3597TIP3   OH232205   5.825   2.631  13.793  0.4944  0.1558 -0.6424
 3597TIP3    H132206   5.795   2.722  13.799 -0.3960 -0.1893  0.5042
 3597TIP3    H232207   5.905   2.629  13.846  1.0845  0.4903 -1.5115
 3598TIP3   OH232208   6.120   1.876  14.645  0.4491 -0.7437  0.0212
 3598TIP3    H132209   6.187   1.851  14.581  0.6821  0.3578 -0.1806
 3598TIP3    H232210   6.144   1.965  14.672 -1.0691 -0.2147 -0.2477
 3599TIP3   OH232211   6.303   0.693  10.782 -0.1425 -0.2737  0.1633
 3599TIP3    H132212   6.353   0.747  10.721  2.5856 -0.1626  2.2671
 3599TIP3    H232213   6.230   0.749  10.809 -1.0077 -0.0781 -2.3648
 3600TIP3   OH232214   4.393   1.754  12.714  0.5359 -0.4648 -0.1610
 3600TIP3    H132215   4.307   1.738  12.753  0.8396 -0.5074  0.4944
 3600TIP3    H232216   4.377   1.821  12.647  0.3257  1.0369  1.3245
 3601TIP3   OH232217   6.106   6.430   1.917 -0.2299  0.0111 -0.2329
 3601TIP3    H132218   6.112   6.506   1.858  0.1576  0.5543  0.4804
 3601TIP3    H232219   6.165   6.452   1.989 -1.9955  0.1446  1.2325
 3602TIP3   OH232220   1.053   3.001  10.696 -0.0640  0.1166 -0.2331
 3602TIP3    H132221   0.970   2.958  10.717 -0.4913  0.9536 -0.1548
 3602TIP3    H232222   1.098   3.009  10.780  1.5950 -3.2454 -0.6444
 3603TIP3   OH232223   5.820   3.853  11.482 -0.4058 -0.1547  0.3042
 3603TIP3    H132224   5.836   3.824  11.572  0.2209  0.6103  0.4376
 3603TIP3    H232225   5.783   3.775  11.439 -0.9740 -0.4466  1.2860
 3604TIP3   OH232226   5.447   2.112   0.440  0.3452 -0.4370 -0.2214
 3604TIP3    H132227   5.452   2.107   0.345  0.3369 -1.2425 -0.1790
 3604TIP3    H232228   5.424   2.204   0.457  0.6316 -0.2137 -0.9765
 3605TIP3   OH232229   4.463   0.101  13.049 -0.1474  0.0468 -0.3785
 3605TIP3    H132230   4.447   0.010  13.074  1.7632  0.1495  1.4638
 3605TIP3    H232231   4.520   0.094  12.972 -0.1706 -0.3254 -0.3651
 3606TIP3   OH232232   0.238   2.038  10.914 -0.4287 -0.2027  0.0328
 3606TIP3    H132233   0.202   1.967  10.860 -0.7156 -2.1760  2.6450
 3606TIP3    H232234   0.311   1.998  10.961 -0.8017  1.1209  1.8316
 3607TIP3   OH232235   3.548   1.338   0.823 -0.4298 -0.1030 -0.4023
 3607TIP3    H132236   3.485   1.345   0.894 -0.3753  1.7602 -0.4795
 3607TIP3    H232237   3.494   1.333   0.744 -0.4749 -0.3970 -0.3559
 3608TIP3   OH232238   4.940   6.113  16.657  0.0093  0.1326 -0.4165
 3608TIP3    H132239   4.993   6.037  16.630 -0.2776 -0.3818  0.4224
 3608TIP3    H232240   4.981   6.187  16.613  1.6782 -0.2027  0.4711
 3609TIP3   OH232241   4.912   3.425  12.835  0.4668  0.4206  0.1064
 3609TIP3    H132242   4.976   3.370  12.880 -0.0108 -1.1233 -1.0038
 3609TIP3    H232243   4.960   3.464  12.762  0.1916 -0.7114 -0.7071
 3610TIP3   OH232244   6.450   0.196  14.357 -0.4604  0.2134  0.0023
 3610TIP3    H132245   6.410   0.140  14.422 -0.2784 -0.0106 -0.0787
 3610TIP3    H232246   6.452   0.283  14.398  0.3069 -0.0645  0.5801
 3611TIP3   OH232247   2.445   5.285  13.821 -0.7631  0.1691  0.2682
 3611TIP3    H132248   2.408   5.253  13.904 -0.4392 -0.6390  0.1150
 3611TIP3    H232249   2.532   5.244  13.817 -1.5763 -1.5575 -1.4701
 3612TIP3   OH232250   0.562   3.954   0.945  0.5056  0.2750 -0.0023
 3612TIP3    H132251   0.635   4.004   0.908  0.9652 -2.4025 -3.1944
 3612TIP3    H232252   0.545   3.996   1.029  1.7388  4.7930 -1.6982
 3613TIP3   OH232253   4.985   6.459   4.026  0.0561 -0.0887  0.3260
 3613TIP3    H132254   5.057   6.409   3.986  0.8601  0.1258  1.4527
 3613TIP3    H232255   5.021   6.490   4.109 -1.3557  0.0160  0.9257
 3614TIP3   OH232256   2.852   5.787   2.551 -0.4642  0.0899 -0.1096
 3614TIP3    H132257   2.776   5.816   2.601 -0.2175  1.2602 -0.3867
 3614TIP3    H232258   2.821   5.781   2.460 -0.0318  1.4336 -0.3711
 3615TIP3   OH232259   2.808   3.133  13.630 -0.2846  0.0841 -0.5434
 3615TIP3    H132260   2.772   3.175  13.708  0.6722 -0.3092  0.1336
 3615TIP3    H232261   2.760   3.051  13.622  0.0834 -0.1995  0.0549
 3616TIP3   OH232262   6.149   0.965   6.365  0.1057 -0.2442  0.2581
 3616TIP3    H132263   6.079   1.023   6.335 -0.0011  0.1562  1.2503
 3616TIP3    H232264   6.227   1.021   6.365  0.2915 -0.4938 -0.1366
 3617TIP3   OH232265   1.733   3.177  11.248 -0.2000  0.2715 -0.1808
 3617TIP3    H132266   1.775   3.221  11.322 -1.7067  4.0891 -1.3492
 3617TIP3    H232267   1.778   3.211  11.171 -1.5035 -0.1710 -1.1794
 3618TIP3   OH232268   3.049   2.519   5.355  0.1892  0.9623 -0.0737
 3618TIP3    H132269   3.001   2.573   5.292 -3.3374  0.8335  2.2536
 3618TIP3    H232270   3.068   2.438   5.307 -1.8896  1.0713 -1.2072
 3619TIP3   OH232271   2.055   1.817  15.996 -0.2011 -0.2927  0.2072
 3619TIP3    H132272   2.060   1.729  16.031 -1.1306 -0.7063 -0.6271
 3619TIP3    H232273   2.034   1.872  16.071  0.7128 -0.7281  0.7911
 3620TIP3   OH232274   6.739   6.628   4.054  0.4749  0.4577  0.2734
 3620TIP3    H132275   6.775   6.700   4.002  0.7330  0.7796  0.8800
 3620TIP3    H232276   6.793   6.552   4.029  0.4752  0.5652 -0.0613
 3621TIP3   OH232277   0.119   6.170  15.310 -0.5097 -0.4924  0.1081
 3621TIP3    H132278   0.043   6.129  15.349  0.3555 -0.8786  1.4548
 3621TIP3    H232279   0.192   6.110  15.328  0.8992  1.7182  2.6001
 3622TIP3   OH232280   3.486   0.243  14.713 -0.1491 -0.1806 -0.4853
 3622TIP3    H132281   3.508   0.152  14.732  1.6267  0.1688 -0.7119
 3622TIP3    H232282   3.435   0.238  14.632 -3.7259 -1.2608  1.6021
 3623TIP3   OH232283   2.739   2.685   1.977  0.2557 -0.0206 -0.4146
 3623TIP3    H132284   2.723   2.776   1.955 -0.0029  1.2037  3.8976
 3623TIP3    H232285   2.668   2.637   1.934 -3.8952  2.8289  2.4420
 3624TIP3   OH232286   3.828   3.629   4.601  0.1873 -0.0968 -0.1187
 3624TIP3    H132287   3.738   3.661   4.594  0.7188  1.5098 -0.0260
 3624TIP3    H232288   3.865   3.644   4.514  0.7785  0.6193  0.2478
 3625TIP3   OH232289   1.989   0.391  13.221 -0.2275 -0.1049 -0.0958
 3625TIP3    H132290   1.915   0.363  13.275 -0.9655 -1.0155 -1.5305
 3625TIP3    H232291   1.952   0.456  13.161 -0.1228 -1.2809 -1.4798
 3626TIP3   OH232292   2.101   1.282   5.056  0.0582  0.6748 -0.6991
 3626TIP3    H132293   2.133   1.372   5.063 -1.2025  1.1302 -0.5591
 3626TIP3    H232294   2.008   1.287   5.079  0.0080 -0.6967 -0.5075
 3627TIP3   OH232295   2.244   0.755  13.542 -0.5488 -0.5745  0.3814
 3627TIP3    H132296   2.196   0.786  13.619 -1.1850 -1.7351  0.4762
 3627TIP3    H232297   2.212   0.810  13.471  0.2665  0.7152  0.9731
 3628TIP3   OH232298   4.459   0.351   0.477  0.3927  0.1529 -0.2569
 3628TIP3    H132299   4.366   0.356   0.454 -0.4605  3.0624  2.9272
 3628TIP3    H232300   4.497   0.430   0.439  1.1089 -0.0092  0.1200
 3629TIP3   OH232301   2.836   0.895  13.526 -0.2639  0.2507  0.1812
 3629TIP3    H132302   2.823   0.951  13.449  0.3597 -1.2226 -1.0425
 3629TIP3    H232303   2.794   0.812  13.502  1.5050 -0.8253  0.6742
 3630TIP3   OH232304   2.031   2.055  16.957 -0.2156 -0.4447  0.2883
 3630TIP3    H132305   1.937   2.038  16.949 -0.1686 -0.4396 -0.2970
 3630TIP3    H232306   2.042   2.144  16.924 -0.3082  0.3976  2.3651
 3631TIP3   OH232307   6.381   1.793  16.151  0.6707  0.2132  0.2948
 3631TIP3    H132308   6.358   1.770  16.241  0.7323 -1.1449 -0.0210
 3631TIP3    H232309   6.461   1.744  16.133  1.0808  1.0567 -0.2665
 3632TIP3   OH232310   6.327   4.424   0.851  0.3341 -0.2725  0.2649
 3632TIP3    H132311   6.266   4.360   0.814 -0.6735  0.8654 -0.1040
 3632TIP3    H232312   6.275   4.503   0.861  1.9873  1.0683 -1.0749
 3633TIP3   OH232313   0.595   3.888  16.881 -0.1069 -0.5083  0.1009
 3633TIP3    H132314   0.523   3.830  16.857  1.1046 -1.3984 -1.6246
 3633TIP3    H232315   0.557   3.976  16.878 -1.4510 -1.0462  0.6749
 3634TIP3   OH232316   0.740   0.620  11.513  0.0202  0.0890  0.7831
 3634TIP3    H132317   0.678   0.676  11.467 -0.6209 -0.0714  1.4435
 3634TIP3    H232318   0.794   0.680  11.564  0.9840  0.3059 -0.4231
 3635TIP3   OH232319   1.671   5.422  13.073  0.4729  0.5255  0.3244
 3635TIP3    H132320   1.660   5.447  13.165  0.1534 -2.3672  1.1758
 3635TIP3    H232321   1.749   5.366  13.072  0.0082 -0.1508 -0.9957
 3636TIP3   OH232322   2.002   4.651   2.177 -0.0745 -0.0116 -0.0831
 3636TIP3    H132323   1.935   4.589   2.207 -0.3123 -1.4797 -3.2739
 3636TIP3    H232324   2.083   4.600   2.180  0.4361  0.8201  0.9060
 3637TIP3   OH232325   2.979   1.588  13.202  0.0474  0.0632 -0.1251
 3637TIP3    H132326   2.927   1.667  13.184 -0.0602 -0.4085 -2.0948
 3637TIP3    H232327   2.934   1.518  13.156  1.6147 -0.6438 -0.6699
 3638TIP3   OH232328   1.681   6.412   5.570 -0.1486 -0.2802 -0.1402
 3638TIP3    H132329   1.769   6.374   5.573 -0.0908 -0.2934  4.1253
 3638TIP3    H232330   1.689   6.485   5.509  2.6524 -0.6430 -0.3577
 3639TIP3   OH232331   1.282   4.722  12.136 -0.7738  0.2812 -0.8048
 3639TIP3    H132332   1.363   4.686  12.099 -1.3516 -1.1641 -0.7189
 3639TIP3    H232333   1.212   4.679  12.088 -1.5229  1.8375 -1.1751
 3640TIP3   OH232334   3.980   6.210   3.542  0.4832 -0.1636 -0.6421
 3640TIP3    H132335   4.040   6.285   3.542  0.0866  0.2611  1.8441
 3640TIP3    H232336   4.003   6.161   3.464  2.3403  1.3379 -1.1212
 3641TIP3   OH232337   1.033   6.645  15.652  0.2605  0.2659 -0.1355
 3641TIP3    H132338   1.045   6.628  15.746 -1.1473 -1.5343 -0.2252
 3641TIP3    H232339   1.021   6.558  15.613  1.0266  0.9676 -2.0335
 3642TIP3   OH232340   1.442   2.289   2.524 -0.0649  0.4343  0.3929
 3642TIP3    H132341   1.477   2.364   2.573 -2.2079  1.2085  0.8370
 3642TIP3    H232342   1.445   2.216   2.587 -1.2034  1.0100  1.1393
 3643TIP3   OH232343   0.475   0.021  15.756  0.4028  0.4482 -0.0692
 3643TIP3    H132344   0.399  -0.010  15.706  1.0252 -2.3501  0.5520
 3643TIP3    H232345   0.547   0.017  15.694  0.1252  3.1516 -0.6722
 3644TIP3   OH232346   3.726   4.587  14.813  0.0232  0.1718 -0.0058
 3644TIP3    H132347   3.807   4.635  14.830 -0.0471  0.1468  0.4259
 3644TIP3    H232348   3.708   4.541  14.895 -0.9611  0.9578  0.2526
 3645TIP3   OH232349   1.911   5.213   0.223  0.0021  0.3441  0.1249
 3645TIP3    H132350   1.908   5.273   0.297 -0.0209  1.0335 -0.4206
 3645TIP3    H232351   1.980   5.249   0.166  2.2560 -1.8983  1.2472
 3646TIP3   OH232352   3.895   3.109   1.836  0.7246  0.4080 -0.4312
 3646TIP3    H132353   3.946   3.043   1.790 -1.8740 -1.7046 -0.5680
 3646TIP3    H232354   3.908   3.089   1.929 -1.1210 -1.3388 -0.4754
 3647TIP3   OH232355   2.286   5.484   2.334 -0.2242  0.5432  0.5406
 3647TIP3    H132356   2.264   5.461   2.244  3.0349  1.9451 -0.7793
 3647TIP3    H232357   2.302   5.401   2.378 -0.6999 -0.1182 -0.5178
 3648TIP3   OH232358   5.019   1.532  17.144  0.3907  0.3335 -0.8315
 3648TIP3    H132359   4.965   1.494  17.213  0.3906  1.2729 -0.2942
 3648TIP3    H232360   5.103   1.550  17.187  1.1130 -1.0134 -1.6321
 3649TIP3   OH232361   1.325   1.079  16.271 -0.3359  0.0554 -0.0732
 3649TIP3    H132362   1.233   1.069  16.248 -0.2052 -0.4215 -0.4077
 3649TIP3    H232363   1.330   1.051  16.362  0.1757 -4.2009 -1.2173
 3650TIP3   OH232364   4.292   3.957  14.207 -0.1747 -0.3616 -0.8589
 3650TIP3    H132365   4.307   4.014  14.283 -1.6568  0.1322 -0.8958
 3650TIP3    H232366   4.250   4.014  14.143  2.3898 -0.3592 -2.7056
 3651TIP3   OH232367   6.492   4.658   2.675  0.4332  0.3383  0.0698
 3651TIP3    H132368   6.436   4.681   2.749  0.6921  1.1345  0.0314
 3651TIP3    H232369   6.518   4.743   2.638 -0.6267 -0.0300 -1.6380
 3652TIP3   OH232370   5.310   5.956  11.918 -0.8116 -0.1916 -0.5684
 3652TIP3    H132371   5.327   5.974  11.825  0.3421  1.9380 -0.0063
 3652TIP3    H232372   5.394   5.927  11.953 -1.9367 -4.4448 -0.7664
 3653TIP3   OH232373   1.749   2.692   3.227 -0.3605 -0.6871  0.4016
 3653TIP3    H132374   1.690   2.721   3.297  0.0963 -0.9262  0.9002
 3653TIP3    H232375   1.817   2.760   3.224 -0.8809 -0.1912 -0.4594
 3654TIP3   OH232376   5.895   1.354  13.568  0.3234 -0.2301  0.2790
 3654TIP3    H132377   5.967   1.393  13.618  1.0933  0.1133 -1.0458
 3654TIP3    H232378   5.834   1.323  13.634 -0.1641  2.8980  1.4718
 3655TIP3   OH232379   2.125   1.403   4.060  0.4879  0.1184  0.1737
 3655TIP3    H132380   2.210   1.365   4.037 -0.2025 -1.2078 -0.3006
 3655TIP3    H232381   2.069   1.381   3.985 -0.1858  1.2735  0.3291
 3656TIP3   OH232382   0.965   3.659  13.016 -0.1130 -0.0110 -0.1955
 3656TIP3    H132383   0.899   3.670  12.948  0.0655 -0.3288 -0.4213
 3656TIP3    H232384   0.969   3.565  13.031 -0.2769  0.0671  0.3821
 3657TIP3   OH232385   0.880   0.883   0.662  0.2375  0.3738  0.4244
 3657TIP3    H132386   0.804   0.938   0.642 -0.2603 -0.7435 -0.9665
 3657TIP3    H232387   0.936   0.890   0.584  1.3157  0.7473  1.2061
 3658TIP3   OH232388   5.025   3.966  13.389 -0.3857  0.2408  0.1061
 3658TIP3    H132389   4.993   3.910  13.318  3.8952 -0.0574 -1.9245
 3658TIP3    H232390   4.986   4.051  13.373 -1.7625 -0.5336 -0.8253
 3659TIP3   OH232391   5.609   0.532   2.432 -0.6556  0.3180  0.0726
 3659TIP3    H132392   5.676   0.577   2.483 -0.7678 -2.1714  2.6801
 3659TIP3    H232393   5.579   0.597   2.368  2.8553  2.1099  0.0222
 3660TIP3   OH232394   6.312   5.374   3.097  0.0467 -0.3090  0.2292
 3660TIP3    H132395   6.340   5.323   3.172  1.5263  0.0717 -0.0228
 3660TIP3    H232396   6.379   5.358   3.031 -0.0136  1.1245 -0.2147
 3661TIP3   OH232397   6.692   4.329   1.340 -0.2154  0.1115 -0.0189
 3661TIP3    H132398   6.632   4.290   1.403  0.9435 -0.0028  1.0696
 3661TIP3    H232399   6.748   4.387   1.392  4.0148 -3.5590  0.1675
 3662TIP3   OH232400   6.706   1.930   2.206  0.3139  0.6216  0.0250
 3662TIP3    H132401   6.741   2.003   2.156  2.3735  0.5811  1.2901
 3662TIP3    H232402   6.641   1.970   2.264 -1.1078  0.8580 -1.6265
 3663TIP3   OH232403   6.479   6.142  12.087  0.1250  0.7801 -0.4747
 3663TIP3    H132404   6.428   6.109  12.013  0.8197 -2.4850  0.3470
 3663TIP3    H232405   6.550   6.079  12.097  2.0480  3.0201  0.8852
 3664TIP3   OH232406   1.094   4.187  16.182  0.2186 -0.0026 -0.4266
 3664TIP3    H132407   1.168   4.176  16.122 -0.7954  0.1927 -1.7775
 3664TIP3    H232408   1.054   4.270  16.155  0.3874  0.6873  1.3026
 3665TIP3   OH232409   5.888   5.052  15.237 -0.0177  0.3767  0.2370
 3665TIP3    H132410   5.859   5.117  15.301 -0.8200  0.5660 -0.2938
 3665TIP3    H232411   5.983   5.049  15.247 -0.1239  0.4474  1.3783
 3666TIP3   OH232412   3.687   1.166   1.976 -0.3263  0.0014  0.4383
 3666TIP3    H132413   3.753   1.135   1.915 -0.2011  1.2605 -0.0969
 3666TIP3    H232414   3.712   1.128   2.061 -0.1152 -1.1993 -0.1464
 3667TIP3   OH232415   6.512   0.215   1.802 -0.8018  0.0860  0.3443
 3667TIP3    H132416   6.524   0.309   1.794 -0.0538  0.1173  1.6143
 3667TIP3    H232417   6.418   0.201   1.788 -1.0948  1.1384  1.1310
 3668TIP3   OH232418   5.096   3.308  14.857  0.0001  0.1644 -0.1107
 3668TIP3    H132419   5.156   3.376  14.828 -1.4390  1.1535 -0.9072
 3668TIP3    H232420   5.151   3.246  14.905  1.8876  0.3001 -1.9263
 3669TIP3   OH232421   6.050   4.865   1.280 -0.2033 -0.5413  0.4751
 3669TIP3    H132422   6.094   4.871   1.365  0.2022 -0.3967  0.2562
 3669TIP3    H232423   6.064   4.774   1.253 -0.0111 -0.4882  0.3927
 3670TIP3   OH232424   0.216   4.815  16.881 -0.4088 -0.1742 -0.2389
 3670TIP3    H132425   0.253   4.734  16.917 -1.7456 -0.4752  0.5362
 3670TIP3    H232426   0.238   4.882  16.945 -3.3786 -0.8291  1.6877
 3671TIP3   OH232427   2.667   6.734   3.444 -0.1328  0.5102  0.2075
 3671TIP3    H132428   2.729   6.661   3.435 -2.1668 -1.1726 -1.2719
 3671TIP3    H232429   2.658   6.745   3.539 -1.2488 -2.6472  0.6162
 3672TIP3   OH232430   4.870   1.117   4.378  0.9456  0.1269  0.0378
 3672TIP3    H132431   4.825   1.154   4.301 -1.2954  0.0181  1.2054
 3672TIP3    H232432   4.913   1.193   4.418  0.1086  0.6533 -0.0232
 3673TIP3   OH232433   2.154   3.711  11.699  0.1109  0.0290  0.2068
 3673TIP3    H132434   2.174   3.775  11.631 -0.0484  0.1422  0.2648
 3673TIP3    H232435   2.238   3.676  11.725  0.6094  2.5900  2.5220
 3674TIP3   OH232436   6.154   4.547  16.476  0.0418  0.3959  0.1324
 3674TIP3    H132437   6.076   4.529  16.530  0.6779  2.2859  1.8054
 3674TIP3    H232438   6.126   4.616  16.416  0.4965  1.3985  1.0381
 3675TIP3   OH232439   6.610   6.693   5.219  0.6006 -0.2979  0.0052
 3675TIP3    H132440   6.530   6.679   5.168  0.8766 -0.2982 -0.4375
 3675TIP3    H232441   6.579   6.721   5.305  0.0841 -1.4095  0.2047
 3676TIP3   OH232442   6.598   4.706  16.577  0.0570  0.1971  0.4155
 3676TIP3    H132443   6.614   4.612  16.570  1.6647  0.3824  1.1260
 3676TIP3    H232444   6.673   4.747  16.534  0.5297  1.1311  2.0066
 3677TIP3   OH232445   3.563   6.261   2.954 -0.0818 -0.5429  0.2546
 3677TIP3    H132446   3.513   6.277   3.034 -1.2541 -0.0076 -0.5555
 3677TIP3    H232447   3.566   6.346   2.911 -0.5147 -1.0767 -0.8549
 3678TIP3   OH232448   5.995   2.344   5.466 -0.5852  0.0887 -0.4282
 3678TIP3    H132449   5.926   2.397   5.505  0.0597  0.2974  0.4571
 3678TIP3    H232450   6.057   2.408   5.430  0.4622 -0.0132  1.1016
 3679TIP3   OH232451   1.933   5.770  14.973  0.1744 -0.1560  0.5313
 3679TIP3    H132452   1.923   5.704  15.042 -2.9692  0.4755  0.8434
 3679TIP3    H232453   1.945   5.853  15.020 -0.5020  0.0797  0.3031
 3680TIP3   OH232454   3.170   1.077   1.734  0.1067  0.2131  0.3668
 3680TIP3    H132455   3.165   0.986   1.708  1.0054  0.1922  0.2368
 3680TIP3    H232456   3.263   1.099   1.728 -0.2270  1.4903 -0.8106
 3681TIP3   OH232457   5.560   5.090  17.296 -0.1564  0.2601  0.0047
 3681TIP3    H132458   5.555   5.017  17.357 -0.7745  1.5580  1.5934
 3681TIP3    H232459   5.550   5.168  17.351  1.0110  1.5776 -1.5366
 3682TIP3   OH232460   1.073   3.763   6.474 -0.4100  0.6000  0.2256
 3682TIP3    H132461   1.083   3.691   6.536  0.1986  1.7421  1.4965
 3682TIP3    H232462   1.050   3.720   6.391  1.5195 -1.1778  0.5370
 3683TIP3   OH232463   1.695   3.978  11.260  0.1637 -0.1825 -0.3892
 3683TIP3    H132464   1.643   3.952  11.336 -0.0666 -1.3426 -0.9314
 3683TIP3    H232465   1.741   3.899  11.233  1.1364  0.4905 -0.7736
 3684TIP3   OH232466   5.194   2.436   5.680 -0.1200 -1.0622  0.4553
 3684TIP3    H132467   5.108   2.422   5.719 -0.5393 -1.6122 -0.6306
 3684TIP3    H232468   5.254   2.390   5.739 -0.6504 -1.2205  0.8788
 3685TIP3   OH232469   4.559   3.092  16.381  0.6913 -0.0112  0.9755
 3685TIP3    H132470   4.645   3.083  16.423  1.4227 -1.6142 -0.7107
 3685TIP3    H232471   4.552   3.185  16.360  2.1698  0.1034  0.8843
 3686TIP3   OH232472   5.060   6.575  16.331  0.1302 -0.7600 -0.5444
 3686TIP3    H132473   5.063   6.629  16.252  0.0055 -0.4046 -0.3057
 3686TIP3    H232474   5.071   6.636  16.403 -0.6652 -0.9617 -0.2399
 3687TIP3   OH232475   2.603   0.909   1.068  0.0251 -0.8083 -0.1359
 3687TIP3    H132476   2.648   0.846   1.124  0.6571  0.8512  1.3058
 3687TIP3    H232477   2.599   0.989   1.120 -1.7386  0.0503 -1.4783
 3688TIP3   OH232478   2.898   3.701   3.155 -0.0442 -0.1622 -0.2276
 3688TIP3    H132479   2.814   3.727   3.119 -0.9557 -1.3459  0.9803
 3688TIP3    H232480   2.886   3.703   3.250  0.8401 -1.7101 -0.0482
 3689TIP3   OH232481   6.707   1.465   3.244 -0.4032 -0.3691 -0.0735
 3689TIP3    H132482   6.627   1.474   3.193 -0.0548 -0.7543 -0.7118
 3689TIP3    H232483   6.765   1.412   3.188  0.8095  1.0851 -0.2708
 3690TIP3   OH232484   2.402   0.658  12.049  0.1295  0.3409 -0.1015
 3690TIP3    H132485   2.310   0.673  12.068  0.3213 -0.8878  2.1563
 3690TIP3    H232486   2.447   0.732  12.089  0.2334 -0.2007  0.8400
 3691TIP3   OH232487   6.514   2.807  16.712 -0.3664  1.0282  0.3494
 3691TIP3    H132488   6.420   2.823  16.702 -0.6830 -0.0668  1.3035
 3691TIP3    H232489   6.519   2.720  16.751  1.1182  0.2607 -1.4184
 3692TIP3   OH232490   3.621   3.061   4.282 -0.3573 -0.1872  0.7043
 3692TIP3    H132491   3.588   3.008   4.354  0.5328 -1.5314  0.1542
 3692TIP3    H232492   3.710   3.085   4.308  0.9324 -2.7498 -0.9053
 3693TIP3   OH232493   2.317   6.272  16.686  0.0936 -0.8269 -0.3643
 3693TIP3    H132494   2.228   6.250  16.714 -0.0259  0.9040  0.7230
 3693TIP3    H232495   2.367   6.277  16.768  0.5426  0.9420 -0.7243
 3694TIP3   OH232496   5.043   1.279   5.969  0.0099  0.0692 -0.9850
 3694TIP3    H132497   5.010   1.362   6.005 -0.0709  0.1380 -1.2174
 3694TIP3    H232498   5.118   1.306   5.916  2.3071 -0.3121  1.7839
 3695TIP3   OH232499   5.024   2.359   3.807 -0.9329  0.5982 -0.2036
 3695TIP3    H132500   4.981   2.422   3.865 -2.9374  0.5640 -1.5581
 3695TIP3    H232501   5.065   2.413   3.740 -0.6216  0.5408 -0.0618
 3696TIP3   OH232502   3.318   0.477  13.742 -0.1343  0.8988  0.1071
 3696TIP3    H132503   3.253   0.524  13.795 -0.4535  0.3245  0.2340
 3696TIP3    H232504   3.385   0.451  13.804 -0.2462  0.6829  0.1370
 3697TIP3   OH232505   0.321   2.451  11.794  0.4758  0.1499 -0.1758
 3697TIP3    H132506   0.344   2.542  11.812 -0.1403 -0.2405  3.3000
 3697TIP3    H232507   0.288   2.452  11.704  0.4537  3.3329 -0.2570
 3698TIP3   OH232508   4.021   0.175   2.744  0.2295  0.3663  0.0259
 3698TIP3    H132509   4.009   0.126   2.825 -0.8860  2.2933  1.0949
 3698TIP3    H232510   3.993   0.115   2.675 -0.3607 -0.7549  1.2076
 3699TIP3   OH232511   5.314   4.918  15.203  0.6719  0.4108  0.3675
 3699TIP3    H132512   5.339   4.836  15.245 -1.7776  0.6928  2.6514
 3699TIP3    H232513   5.373   4.983  15.240  0.9479  0.0682  0.5318
 3700TIP3   OH232514   3.906   6.315   4.157  0.1221  0.8729 -0.1024
 3700TIP3    H132515   3.811   6.313   4.147  0.0320  1.2152  0.6305
 3700TIP3    H232516   3.920   6.316   4.251  0.8693  0.3670 -0.1982
 3701TIP3   OH232517   6.352   4.047   2.858 -0.2261 -0.0018 -0.3058
 3701TIP3    H132518   6.421   4.009   2.912  2.0871  1.0002 -2.3528
 3701TIP3    H232519   6.360   4.141   2.874 -3.2295  0.0371  1.6859
 3702TIP3   OH232520   4.899   4.733  12.996 -0.0177 -0.7061 -0.5015
 3702TIP3    H132521   4.864   4.652  12.958 -0.8622 -0.3247 -0.5561
 3702TIP3    H232522   4.964   4.703  13.059 -2.3384 -1.6050  1.6529
 3703TIP3   OH232523   4.738   6.615   5.525 -0.0487 -0.0099 -0.0448
 3703TIP3    H132524   4.664   6.562   5.499  1.0048 -0.9857 -1.1914
 3703TIP3    H232525   4.778   6.567   5.598  0.9510 -0.8818 -1.1342
 3704TIP3   OH232526   4.203   5.098  13.272  0.7311 -0.3031  0.0750
 3704TIP3    H132527   4.112   5.080  13.294  0.6397  0.8648  0.7309
 3704TIP3    H232528   4.203   5.112  13.177  0.2300 -0.2996  0.0764
 3705TIP3   OH232529   3.502   6.189  11.603  0.3498 -0.0478  0.2730
 3705TIP3    H132530   3.439   6.225  11.665 -0.3674 -0.4719 -0.1936
 3705TIP3    H232531   3.533   6.265  11.554  1.3209  0.3685  1.4749
 3706TIP3   OH232532   2.045   4.547   2.523  0.8534 -0.2056 -0.1845
 3706TIP3    H132533   2.088   4.530   2.607  1.4937 -1.8667 -0.7880
 3706TIP3    H232534   1.985   4.473   2.512 -2.9333  2.4297  0.9958
 3707TIP3   OH232535   0.530   2.751   3.026 -0.2830  0.4461  0.1868
 3707TIP3    H132536   0.502   2.661   3.012  1.4449  0.0190 -0.8827
 3707TIP3    H232537   0.493   2.800   2.953  0.9429  0.0461 -0.7459
 3708TIP3   OH232538   5.130   2.635  16.448  0.4668 -0.0016  0.2760
 3708TIP3    H132539   5.115   2.724  16.415  0.4965  1.3411  3.5180
 3708TIP3    H232540   5.042   2.605  16.472  0.6551 -0.1637  0.7546
 3709TIP3   OH232541   6.216   6.050   4.226 -0.3071 -0.0872 -0.4411
 3709TIP3    H132542   6.200   6.072   4.318 -0.6009  0.9064 -0.7132
 3709TIP3    H232543   6.228   6.135   4.183 -2.4904 -0.3447 -1.7405
 3710TIP3   OH232544   5.670   4.722   1.623 -0.2585  0.5086 -0.2427
 3710TIP3    H132545   5.709   4.683   1.701 -2.3242  0.2972  0.7368
 3710TIP3    H232546   5.722   4.687   1.551 -0.2291 -1.8071  0.8167
 3711TIP3   OH232547   3.235   0.384   3.024 -0.8704 -1.0307  0.7067
 3711TIP3    H132548   3.180   0.458   3.047 -0.9074 -1.2283  1.2614
 3711TIP3    H232549   3.200   0.352   2.941  1.2163  1.6839 -1.4233
 3712TIP3   OH232550   6.069   6.265  14.170  0.5649  0.6301 -0.6354
 3712TIP3    H132551   6.062   6.355  14.137 -0.9998  1.5073  1.8059
 3712TIP3    H232552   6.014   6.264  14.249  0.4938 -2.5079 -0.6067
 3713TIP3   OH232553   6.409   4.073   0.307 -1.0210  0.0043 -0.1284
 3713TIP3    H132554   6.430   4.007   0.373  1.3703  1.3195  0.5373
 3713TIP3    H232555   6.416   4.157   0.353  2.0806  1.0769 -2.2144
 3714TIP3   OH232556   0.998   0.725   2.408 -0.0868  0.5736 -0.3717
 3714TIP3    H132557   1.010   0.710   2.314 -0.0442 -0.1732 -0.2495
 3714TIP3    H232558   1.067   0.789   2.430  1.8322 -1.3894 -0.2973
 3715TIP3   OH232559   3.934   1.745  15.764 -0.0882 -0.0492 -0.0374
 3715TIP3    H132560   3.929   1.816  15.827 -0.5877  1.4893 -1.7341
 3715TIP3    H232561   4.024   1.747  15.732  1.3451 -3.1831  3.0750
 3716TIP3   OH232562   2.516   4.709  16.820  0.4390  0.3695 -0.3968
 3716TIP3    H132563   2.579   4.779  16.838 -0.9114  1.6238 -0.3704
 3716TIP3    H232564   2.486   4.726  16.730 -0.1117 -0.0149 -0.2940
 3717TIP3   OH232565   2.381   0.202  15.106  0.2931  0.4823 -0.1431
 3717TIP3    H132566   2.453   0.265  15.099  0.8543 -0.1824 -0.4402
 3717TIP3    H232567   2.391   0.146  15.029 -0.3118  0.1402  0.0215
 3718TIP3   OH232568   4.564   4.188  10.740  0.3611 -0.1053 -0.5618
 3718TIP3    H132569   4.501   4.139  10.793  0.2268 -0.0329 -0.6527
 3718TIP3    H232570   4.517   4.267  10.714  0.8848  0.5161  0.3491
 3719TIP3   OH232571   2.789   4.349  12.140 -0.1397  0.3657  0.2395
 3719TIP3    H132572   2.852   4.421  12.137 -0.2061  0.4235  0.1930
 3719TIP3    H232573   2.704   4.393  12.133 -0.1509  0.2270 -0.5782
 3720TIP3   OH232574   1.067   0.157  15.579  0.2480  0.1516  0.0792
 3720TIP3    H132575   1.145   0.181  15.628  0.4289  0.8595 -0.5329
 3720TIP3    H232576   1.066   0.061  15.581  0.8200  0.1508  0.5663
 3721TIP3   OH232577   4.168   4.103  16.224 -0.2343 -0.1429  0.3244
 3721TIP3    H132578   4.086   4.056  16.211 -0.1560 -0.6905  1.6454
 3721TIP3    H232579   4.233   4.035  16.242  0.7903  0.1982 -1.7937
 3722TIP3   OH232580   0.714   1.062   2.939  0.0798 -0.5025 -0.5370
 3722TIP3    H132581   0.761   1.076   3.021  1.6473 -1.6571 -1.2087
 3722TIP3    H232582   0.635   1.116   2.948  1.2283  1.0564  0.8506
 3723TIP3   OH232583   1.036   0.173   4.880 -0.1100 -0.3868  0.0602
 3723TIP3    H132584   0.958   0.124   4.908  1.5209 -3.2077  0.0394
 3723TIP3    H232585   1.044   0.155   4.787  0.3254  0.2957 -0.0453
 3724TIP3   OH232586   5.945   0.440   0.564  0.3753  0.4635 -0.1562
 3724TIP3    H132587   5.925   0.531   0.581 -0.2312  0.5144 -1.0801
 3724TIP3    H232588   5.916   0.393   0.642  1.2713  1.1206  0.5882
 3725TIP3   OH232589   5.864   4.002  15.826  0.2304 -0.9762 -0.1031
 3725TIP3    H132590   5.912   4.074  15.866  1.1572 -1.9159  0.5519
 3725TIP3    H232591   5.838   4.034  15.740 -1.7929  1.1145  1.1537
 3726TIP3   OH232592   2.825   5.068   5.037  0.2733  0.6440 -0.0883
 3726TIP3    H132593   2.777   4.999   5.082  0.5971  1.0296  0.8612
 3726TIP3    H232594   2.916   5.040   5.039  0.1414 -0.0734 -1.8646
 3727TIP3   OH232595   2.330   3.944  11.529  0.0169  0.0735 -0.2212
 3727TIP3    H132596   2.311   3.889  11.453  0.2581 -1.8305  1.0274
 3727TIP3    H232597   2.424   3.933  11.544 -0.0627  0.2856  0.4622
 3728TIP3   OH232598   3.281   2.028  15.573  0.2710  0.2900 -0.4636
 3728TIP3    H132599   3.368   2.026  15.611  0.2865  1.0398 -0.4512
 3728TIP3    H232600   3.236   2.100  15.618 -0.0154  0.5790 -1.1918
 3729TIP3   OH232601   6.287   5.106   4.246 -0.1309  0.4919 -0.5254
 3729TIP3    H132602   6.302   5.196   4.277  0.1835  0.9700 -1.9886
 3729TIP3    H232603   6.260   5.116   4.155 -1.5590 -0.8376 -0.2968
 3730TIP3   OH232604   5.836   1.390   3.477  0.8470 -0.3249 -0.1152
 3730TIP3    H132605   5.812   1.418   3.565 -1.1486 -0.3766 -0.5961
 3730TIP3    H232606   5.891   1.461   3.444 -1.0587  1.3258  0.0350
 3731TIP3   OH232607   4.575   1.428  12.172  0.2067  0.1795 -0.1319
 3731TIP3    H132608   4.613   1.394  12.253 -0.0475  1.4098  0.5256
 3731TIP3    H232609   4.595   1.361  12.107  3.2000  0.5788  0.2175
 3732TIP3   OH232610   5.606   4.872   4.177 -0.0511  0.2455  0.1545
 3732TIP3    H132611   5.679   4.837   4.125  0.0143 -0.6308  0.8212
 3732TIP3    H232612   5.633   4.861   4.268  0.1467  2.4532  0.4067
 3733TIP3   OH232613   1.603   5.836  12.540  0.1468  0.3978 -0.2357
 3733TIP3    H132614   1.578   5.866  12.453 -1.7167  2.1970  0.8278
 3733TIP3    H232615   1.532   5.866  12.597  1.3087 -0.7070  1.9173
 3734TIP3   OH232616   3.931   0.872   0.783 -0.0032 -0.0470  0.3002
 3734TIP3    H132617   4.026   0.878   0.774 -0.1551  0.8267 -0.8180
 3734TIP3    H232618   3.896   0.917   0.706 -1.3255 -2.2597 -0.4743
 3735TIP3   OH232619   0.713   1.538  13.836  0.4207 -0.3518  0.1048
 3735TIP3    H132620   0.761   1.531  13.753 -0.6364 -0.8363 -0.4800
 3735TIP3    H232621   0.781   1.535  13.903  1.3253  0.3461 -0.7478
 3736TIP3   OH232622   4.969   1.578  16.086  0.3045 -0.0431  0.1445
 3736TIP3    H132623   5.019   1.507  16.045 -0.7444  0.8008 -2.7878
 3736TIP3    H232624   4.924   1.621  16.014 -0.9368  2.1944  2.1187
 3737TIP3   OH232625   0.163   3.169  16.489 -0.1037  0.1437  0.1959
 3737TIP3    H132626   0.187   3.209  16.406  0.9832 -0.7232  0.0700
 3737TIP3    H232627   0.235   3.192  16.548 -0.0541 -0.6191  0.4418
 3738TIP3   OH232628   1.105   3.355  11.582  0.4271 -0.0574  0.2090
 3738TIP3    H132629   1.142   3.272  11.613  2.1196  0.8272  0.6833
 3738TIP3    H232630   1.042   3.379  11.650  0.0860 -0.8206  0.1819
 3739TIP3   OH232631   0.808   2.154   4.008 -0.1493  0.6160 -0.3744
 3739TIP3    H132632   0.890   2.106   4.021 -2.1054 -2.2192  3.6057
 3739TIP3    H232633   0.829   2.245   4.032  1.3429 -0.6172  3.8859
 3740TIP3   OH232634   5.400   1.610  11.805 -0.4152  0.2848 -1.0581
 3740TIP3    H132635   5.460   1.684  11.806 -0.1518  0.0904 -1.9475
 3740TIP3    H232636   5.453   1.535  11.833 -0.6728  0.4116 -0.1919
 3741TIP3   OH232637   4.663   3.531  10.461  0.1435  0.3333  0.0654
 3741TIP3    H132638   4.601   3.460  10.449 -0.3583  0.5056  1.3979
 3741TIP3    H232639   4.727   3.520  10.392 -0.9023 -0.3569 -0.8147
 3742TIP3   OH232640   5.199   5.985   2.655  0.1663  0.8160  0.2668
 3742TIP3    H132641   5.287   6.011   2.682 -0.2491  0.8064  1.7185
 3742TIP3    H232642   5.165   6.061   2.609  0.1119  1.7222  1.7394
 3743TIP3   OH232643   4.715   5.104   1.320  0.5855 -0.4402  0.2693
 3743TIP3    H132644   4.784   5.097   1.386 -0.7278 -0.5322  1.6842
 3743TIP3    H232645   4.739   5.181   1.269  0.5263  0.9593  2.2429
 3744TIP3   OH232646   1.028   1.036   1.786  0.3572  0.3384 -0.1367
 3744TIP3    H132647   1.097   1.077   1.733 -0.7027  1.7947 -0.4556
 3744TIP3    H232648   1.072   1.014   1.868  1.0906  1.8108 -0.0843
 3745TIP3   OH232649   0.412   1.716   5.571  0.1561 -0.1656 -0.7156
 3745TIP3    H132650   0.417   1.629   5.611 -0.4855  0.0581 -0.1379
 3745TIP3    H232651   0.346   1.706   5.502  0.1999 -0.1797 -0.7552
 3746TIP3   OH232652   6.368   6.490   1.492  0.0122 -0.3042  0.3690
 3746TIP3    H132653   6.420   6.411   1.508 -0.5702 -0.4130  1.9530
 3746TIP3    H232654   6.347   6.487   1.399  2.7251 -0.3062 -0.3222
 3747TIP3   OH232655   4.348   2.494  14.443  0.0150  0.0979  0.5267
 3747TIP3    H132656   4.298   2.532  14.516 -1.5304  0.3504 -0.6122
 3747TIP3    H232657   4.281   2.466  14.380  1.3119  0.8048 -1.2559
 3748TIP3   OH232658   1.758   3.378   0.117 -0.0395 -0.2996 -0.2484
 3748TIP3    H132659   1.799   3.349   0.035  2.1875 -0.7191  0.9528
 3748TIP3    H232660   1.804   3.330   0.186 -2.0709 -0.1932  1.2677
 3749TIP3   OH232661   4.406   6.615   0.519 -0.2169 -0.8282  0.4344
 3749TIP3    H132662   4.419   6.616   0.614 -2.0636  1.2130  0.7400
 3749TIP3    H232663   4.447   6.695   0.488  0.2136 -1.3886 -0.5050
 3750TIP3   OH232664   3.726   5.401  14.330 -0.2530  0.0009  0.3628
 3750TIP3    H132665   3.727   5.413  14.235  0.2040  0.2616  0.3971
 3750TIP3    H232666   3.664   5.330  14.344  0.3438 -0.6539 -0.2075
 3751TIP3   OH232667   1.153   5.801   3.994 -0.2375 -0.4836 -0.4160
 3751TIP3    H132668   1.208   5.729   3.961  0.5295 -0.1131  0.0444
 3751TIP3    H232669   1.093   5.819   3.921 -0.2335 -1.3751 -0.6580
 3752TIP3   OH232670   0.883   4.855  11.335 -0.3438  0.6127 -0.0979
 3752TIP3    H132671   0.846   4.940  11.310 -1.2279  0.7738  1.5897
 3752TIP3    H232672   0.816   4.791  11.308 -0.6091  0.6497  0.4602
 3753TIP3   OH232673   2.295   1.332  16.979 -0.1348  0.2757  0.4887
 3753TIP3    H132674   2.260   1.383  17.052 -0.4473  0.8702 -0.0694
 3753TIP3    H232675   2.345   1.262  17.021 -0.2977  0.6156  1.2721
 3754TIP3   OH232676   2.915   5.792   2.981 -0.1012 -0.4438  0.9518
 3754TIP3    H132677   2.916   5.733   3.057 -0.6384 -0.8233  0.6746
 3754TIP3    H232678   2.848   5.755   2.924  1.9727 -1.5872 -0.8568
 3755TIP3   OH232679   3.803   5.688  17.319  0.5152  0.2482 -0.1645
 3755TIP3    H132680   3.754   5.696  17.237  1.0935 -1.1806 -0.6786
 3755TIP3    H232681   3.874   5.752  17.311  0.9904 -0.3745 -1.1097
 3756TIP3   OH232682   3.650   2.891   0.660  0.2056 -0.0549 -0.1793
 3756TIP3    H132683   3.665   2.933   0.575 -1.1122 -1.4062 -1.1377
 3756TIP3    H232684   3.687   2.952   0.724  0.9019  1.1733 -1.6924
 3757TIP3   OH232685   6.732   6.313   4.052  0.8006  0.7251  0.4701
 3757TIP3    H132686   6.716   6.314   3.958  2.3949  1.3964  0.1548
 3757TIP3    H232687   6.800   6.247   4.065  0.6724  0.7090  1.1317
 3758TIP3   OH232688   0.500   0.838  14.691 -0.2883  0.1917  0.5942
 3758TIP3    H132689   0.510   0.756  14.740 -1.4917 -0.0981  0.3779
 3758TIP3    H232690   0.407   0.842  14.669 -0.0731  1.1544 -0.2206
 3759TIP3   OH232691   5.174   4.702  14.499 -0.1569 -0.3546 -0.1922
 3759TIP3    H132692   5.229   4.684  14.422  1.4680  2.4796  0.1779
 3759TIP3    H232693   5.112   4.769  14.470 -0.4512 -0.2719  0.5948
 3760TIP3   OH232694   2.193   2.261  12.098  0.0262 -1.0069 -0.1892
 3760TIP3    H132695   2.130   2.216  12.153 -0.3972  0.9451  1.0197
 3760TIP3    H232696   2.140   2.317  12.041  0.5961  0.0245  0.2643
 3761TIP3   OH232697   5.704   0.959  13.890  0.5224 -0.4235  0.1131
 3761TIP3    H132698   5.755   0.893  13.936  1.4998  1.0325  1.2131
 3761TIP3    H232699   5.695   1.031  13.953 -0.5875  0.4553 -0.9968
 3762TIP3   OH232700   3.464   0.154   0.315  0.2365  0.3593 -0.1515
 3762TIP3    H132701   3.461   0.213   0.239 -2.0886 -1.3033 -1.4841
 3762TIP3    H232702   3.374   0.151   0.346  0.8869 -0.1552  1.8103
 3763TIP3   OH232703   1.820   5.724  13.979  0.8543  0.2930 -0.2624
 3763TIP3    H132704   1.846   5.656  14.042 -1.7061 -1.7434 -1.2135
 3763TIP3    H232705   1.786   5.795  14.034  2.0614  0.1446  0.7247
 3764TIP3   OH232706   4.561   5.598   1.832 -0.0004 -0.2646  0.3988
 3764TIP3    H132707   4.649   5.631   1.849 -0.0509 -0.1986  0.5356
 3764TIP3    H232708   4.561   5.510   1.869 -0.1099 -0.1219  0.7480
 3765TIP3   OH232709   1.633   3.977  16.594  0.0010 -0.0793  0.2310
 3765TIP3    H132710   1.628   3.955  16.501 -0.3932 -0.3248  0.3084
 3765TIP3    H232711   1.542   3.985  16.621  0.1243  1.8462  0.1637
 3766TIP3   OH232712   1.019   3.361   1.872 -0.5383 -0.1327 -0.0027
 3766TIP3    H132713   1.051   3.295   1.933  1.5495 -0.2538 -1.1255
 3766TIP3    H232714   0.940   3.322   1.834 -0.2902 -1.2597  0.5899
 3767TIP3   OH232715   1.576   3.005  16.019  0.5061  0.0497  0.4498
 3767TIP3    H132716   1.563   3.099  16.022  0.4241  0.0845 -0.5481
 3767TIP3    H232717   1.666   2.992  16.049  0.2092  0.3498  1.5047
 3768TIP3   OH232718   5.340   2.427  15.216  0.0765 -0.1496 -0.1263
 3768TIP3    H132719   5.428   2.422  15.253 -0.8993 -1.1662  2.2163
 3768TIP3    H232720   5.301   2.504  15.256 -0.8600 -1.0242  0.7030
 3769TIP3   OH232721   6.212   0.072   4.043 -0.2119 -0.4308  0.2696
 3769TIP3    H132722   6.275   0.015   4.088  0.3681  0.7703  1.0588
 3769TIP3    H232723   6.257   0.157   4.038 -1.3250  0.1533 -0.2003
 3770TIP3   OH232724   4.532   2.836  14.295  0.4264 -0.4372 -0.0091
 3770TIP3    H132725   4.508   2.844  14.387  1.7737 -0.5892  0.3685
 3770TIP3    H232726   4.522   2.743  14.276  1.2545 -0.6032  0.3169
 3771TIP3   OH232727   0.613   5.894   5.087 -0.6973 -0.6442  0.0205
 3771TIP3    H132728   0.556   5.841   5.143 -1.1874  0.0383  0.1861
 3771TIP3    H232729   0.657   5.954   5.147 -2.7625  1.5198 -0.4388
 3772TIP3   OH232730   4.124   0.011  16.183  0.4463 -0.1623 -0.0080
 3772TIP3    H132731   4.076   0.062  16.248 -0.8028 -0.3858 -0.7376
 3772TIP3    H232732   4.059  -0.012  16.117  1.0291 -2.4987  0.1640
 3773TIP3   OH232733   4.782   4.105   5.644  0.3260  0.0850  0.0094
 3773TIP3    H132734   4.824   4.029   5.603 -0.4137  0.0460 -0.6929
 3773TIP3    H232735   4.703   4.070   5.685  0.8034  0.2122  1.0771
 3774TIP3   OH232736   1.658   4.760   3.083 -0.3234  0.4247  0.3040
 3774TIP3    H132737   1.740   4.731   3.043  1.8742 -0.2523  4.6330
 3774TIP3    H232738   1.637   4.691   3.146 -3.4806  1.3184  0.3717
 3775TIP3   OH232739   1.096   5.223  12.280  0.7395 -0.3673 -0.4309
 3775TIP3    H132740   1.083   5.143  12.229  0.5550 -0.2142 -0.6307
 3775TIP3    H232741   1.042   5.210  12.359  0.1664 -0.1625 -0.7783
 3776TIP3   OH232742   4.326   2.604  13.641 -0.0939 -0.0081  1.1295
 3776TIP3    H132743   4.372   2.636  13.719  1.7857 -1.1018  0.5320
 3776TIP3    H232744   4.238   2.583  13.671  0.6536 -0.5927  3.0105
 3777TIP3   OH232745   1.043   4.080  13.168 -0.3413  0.2688  0.3820
 3777TIP3    H132746   0.997   3.997  13.174 -1.1878  0.5671 -1.4293
 3777TIP3    H232747   1.132   4.057  13.143 -0.2802 -0.1277  0.9311
 3778TIP3   OH232748   1.743   3.206  13.643 -0.4867  0.3979  0.0572
 3778TIP3    H132749   1.713   3.189  13.554  1.2513 -2.8157 -0.0741
 3778TIP3    H232750   1.666   3.241  13.688 -2.2534 -0.6464 -1.9671
 3779TIP3   OH232751   4.226   4.416   5.851  0.9491 -0.4900 -0.3295
 3779TIP3    H132752   4.219   4.326   5.884  0.3200 -0.8495 -1.3927
 3779TIP3    H232753   4.152   4.462   5.891 -0.8265 -1.3429 -2.4501
 3780TIP3   OH232754   5.465   2.825  11.540  0.0613  0.9404 -0.4625
 3780TIP3    H132755   5.371   2.835  11.552  0.2400 -0.0735  2.4806
 3780TIP3    H232756   5.476   2.732  11.518  0.5123  0.2030  2.4825
 3781TIP3   OH232757   1.757   2.782  14.129 -0.0834  0.4799  0.1057
 3781TIP3    H132758   1.712   2.700  14.147 -1.4125  0.4478 -2.7963
 3781TIP3    H232759   1.824   2.759  14.064  0.4417  1.4732  0.2776
 3782TIP3   OH232760   2.540   2.698  14.452  0.2429 -0.0464 -0.1994
 3782TIP3    H132761   2.623   2.688  14.406  0.9527 -1.2224  1.2740
 3782TIP3    H232762   2.483   2.632  14.413  1.1962 -1.8464  1.2795
 3783TIP3   OH232763   2.474   2.914   2.523 -0.3111 -0.0738 -0.1218
 3783TIP3    H132764   2.403   2.976   2.541 -0.2703  0.4480 -1.6310
 3783TIP3    H232765   2.430   2.836   2.490 -0.3011 -0.4931  0.8479
 3784TIP3   OH232766   2.229   4.996   2.848  0.2289  0.3889  0.5537
 3784TIP3    H132767   2.298   5.026   2.907  0.6479 -0.9186  0.7715
 3784TIP3    H232768   2.150   4.994   2.901 -0.0916  2.2254  0.2154
 3785TIP3   OH232769   4.235   4.448   1.102 -0.2898  0.3036  0.7200
 3785TIP3    H132770   4.240   4.499   1.183 -2.5619  1.5435  0.1524
 3785TIP3    H232771   4.248   4.357   1.131 -1.4767  0.6574  2.5625
 3786TIP3   OH232772   4.525   3.845   3.299 -0.2605  0.2001 -0.1172
 3786TIP3    H132773   4.602   3.797   3.329 -1.9155 -2.1132  0.6778
 3786TIP3    H232774   4.527   3.836   3.203  0.6831  0.5816 -0.1458
 3787TIP3   OH232775   1.376   6.743   5.429  0.0471  0.0974 -0.3038
 3787TIP3    H132776   1.444   6.768   5.491 -0.4119 -1.3100  0.7968
 3787TIP3    H232777   1.422   6.734   5.346  0.7804  1.3481 -0.0627
 3788TIP3   OH232778   1.355   4.199  11.256  0.3271  0.3890  0.1020
 3788TIP3    H132779   1.436   4.211  11.206  0.5000 -0.0515  0.2731
 3788TIP3    H232780   1.320   4.288  11.266 -0.2112  0.4202 -1.6121
 3789TIP3   OH232781   3.131   0.129  13.611  0.5164  0.2118  0.1150
 3789TIP3    H132782   3.187   0.186  13.557 -0.8025 -0.4459 -2.0869
 3789TIP3    H232783   3.175   0.044  13.608 -0.3578 -0.2414 -1.4086
 3790TIP3   OH232784   6.621   3.894  15.932 -0.4166 -0.3826  0.4750
 3790TIP3    H132785   6.685   3.953  15.892  0.0459 -1.1758  0.0231
 3790TIP3    H232786   6.665   3.809  15.934 -0.2490 -0.3157  3.0651
 3791TIP3   OH232787   1.298   4.380  14.507 -0.0520 -0.1026  0.4662
 3791TIP3    H132788   1.246   4.402  14.429  0.4872 -0.2207  0.0682
 3791TIP3    H232789   1.353   4.307  14.479  0.6752  0.3351  0.7336
 3792TIP3   OH232790   3.408   2.172  13.929  0.0520  0.3944  0.7566
 3792TIP3    H132791   3.428   2.084  13.959  1.9140  0.4475 -0.1557
 3792TIP3    H232792   3.349   2.209  13.995 -0.3078 -1.3187  1.4224
 3793TIP3   OH232793   1.671   5.875  15.521 -0.1949 -0.2069 -0.0766
 3793TIP3    H132794   1.729   5.853  15.594 -0.6608  0.0360  0.3750
 3793TIP3    H232795   1.654   5.791  15.479 -1.6701 -0.7335  1.4260
 3794TIP3   OH232796   1.258   1.990  14.089  0.1824 -0.1077  0.3112
 3794TIP3    H132797   1.233   1.928  14.020  1.3009 -0.1705 -0.0638
 3794TIP3    H232798   1.203   1.966  14.163 -0.1204 -0.9012 -0.1462
 3795TIP3   OH232799   4.504   5.234   3.125  0.1830 -0.8046  0.2550
 3795TIP3    H132800   4.472   5.264   3.209  0.4378  1.5391 -0.4265
 3795TIP3    H232801   4.580   5.180   3.146 -0.4702 -1.2502  1.5532
 3796TIP3   OH232802   6.264   5.916  13.638  0.1888  0.2568  0.4989
 3796TIP3    H132803   6.202   5.871  13.696  0.8949 -1.0392  0.2684
 3796TIP3    H232804   6.312   5.974  13.696 -0.1665  0.1139  0.9461
 3797TIP3   OH232805   3.966   2.762  12.728  0.2981  0.6931  0.1840
 3797TIP3    H132806   3.874   2.789  12.722  0.4406  0.8958 -1.6492
 3797TIP3    H232807   3.984   2.760  12.822 -0.6702  3.8023  0.5652
 3798TIP3   OH232808   1.873   4.793   0.974 -0.1346 -1.0184 -0.1465
 3798TIP3    H132809   1.887   4.800   1.068  0.8245  0.5264 -0.3658
 3798TIP3    H232810   1.780   4.812   0.961  0.5785  4.0300  0.1478
 3799TIP3   OH232811   2.470   2.385   5.628 -0.4308  0.4090 -0.5543
 3799TIP3    H132812   2.439   2.339   5.549  0.7263  3.0878 -2.7341
 3799TIP3    H232813   2.409   2.457   5.639  1.0478  1.7438 -0.8043
 3800TIP3   OH232814   0.919   1.793  17.204  0.6869  0.0192  0.5529
 3800TIP3    H132815   0.867   1.873  17.198  0.6749 -0.0766 -0.9510
 3800TIP3    H232816   0.857   1.722  17.188  1.0148 -0.1817  0.1600
 3801TIP3   OH232817   5.996   2.534  11.413  0.1569  0.1607 -0.3588
 3801TIP3    H132818   5.983   2.472  11.485  1.9577  1.6829  1.4032
 3801TIP3    H232819   5.973   2.485  11.335 -1.0488 -1.8646  1.1569
 3802TIP3   OH232820   3.147   0.521   3.291 -0.0260 -0.8223 -0.0684
 3802TIP3    H132821   3.156   0.582   3.218 -0.5075 -2.9139 -1.9881
 3802TIP3    H232822   3.237   0.505   3.319  0.0972  0.7946  0.5240
 3803TIP3   OH232823   3.523   4.499   0.971 -0.4472  0.5481  0.1448
 3803TIP3    H132824   3.538   4.432   0.904  2.3753  0.0826  1.0869
 3803TIP3    H232825   3.491   4.575   0.923 -3.2658 -1.2160 -1.0252
 3804TIP3   OH232826   3.584   6.009   5.038  0.7596 -0.6666  0.4283
 3804TIP3    H132827   3.606   6.093   5.079 -1.1213  0.1233 -0.0849
 3804TIP3    H232828   3.659   5.990   4.981  1.3855  0.4695  0.8398
 3805TIP3   OH232829   0.683   2.606   0.173 -0.0691  0.6202 -0.6652
 3805TIP3    H132830   0.630   2.550   0.230 -0.8015  2.3517  0.4341
 3805TIP3    H232831   0.669   2.571   0.085 -0.9319 -0.5745 -0.0776
 3806TIP3   OH232832   6.084   5.553  13.804  0.0477 -0.0459  0.4348
 3806TIP3    H132833   6.094   5.507  13.721  0.5743  1.1318 -0.1736
 3806TIP3    H232834   6.002   5.519  13.840  0.2609 -1.2170 -0.1225
 3807TIP3   OH232835   4.891   3.597   4.748  0.3513  0.1704  0.1620
 3807TIP3    H132836   4.932   3.510   4.741  0.0191 -0.0775  1.0436
 3807TIP3    H232837   4.952   3.656   4.705  0.6163 -0.4905 -0.3992
 3808TIP3   OH232838   4.269   6.307   2.184  0.4103  0.0761 -0.0657
 3808TIP3    H132839   4.224   6.343   2.108  0.3822  1.3985  0.5427
 3808TIP3    H232840   4.249   6.214   2.183 -0.0898  0.1859 -1.3229
 3809TIP3   OH232841   1.178   2.476   5.812 -0.2022 -0.2003  0.0253
 3809TIP3    H132842   1.196   2.517   5.896  0.8782  0.1816 -0.3659
 3809TIP3    H232843   1.257   2.491   5.760 -0.5737 -1.0140 -0.8324
 3810TIP3   OH232844   0.687   1.913  16.900 -0.0209  0.2298  0.2408
 3810TIP3    H132845   0.641   1.833  16.871  0.5485  0.3553 -1.0649
 3810TIP3    H232846   0.725   1.949  16.820  1.6141  0.6123  1.1627
 3811TIP3   OH232847   0.251   1.526  11.856 -0.1321 -0.1780 -0.3624
 3811TIP3    H132848   0.278   1.437  11.832  0.5333  0.2638 -1.3108
 3811TIP3    H232849   0.216   1.563  11.775  0.0079  0.5758 -0.0817
 3812TIP3   OH232850   2.548   0.858  12.176  0.0644 -0.0439  0.3786
 3812TIP3    H132851   2.600   0.928  12.137  1.7381 -0.9438  0.8966
 3812TIP3    H232852   2.573   0.858  12.268 -2.8965  1.2224  1.2870
 3813TIP3   OH232853   5.337   2.782   4.322 -0.2602 -0.3612  0.6100
 3813TIP3    H132854   5.323   2.751   4.233  1.0953 -0.7396  0.5075
 3813TIP3    H232855   5.419   2.831   4.318 -0.6189  0.3343  1.4820
 3814TIP3   OH232856   5.305   5.620  15.112 -0.4892  0.3609 -0.1962
 3814TIP3    H132857   5.254   5.573  15.045  0.5869 -0.8493 -0.1929
 3814TIP3    H232858   5.396   5.602  15.089 -0.0660 -1.5725  2.5909
 3815TIP3   OH232859   2.688   0.452  14.495 -0.2028 -0.2145  0.7908
 3815TIP3    H132860   2.619   0.394  14.464  0.2046 -0.0453 -0.5156
 3815TIP3    H232861   2.652   0.540  14.486  0.5646 -0.0457 -1.0549
 3816TIP3   OH232862   0.213   4.101  11.162  0.1045 -0.3284  0.1201
 3816TIP3    H132863   0.185   4.085  11.072 -0.3631 -0.4490  0.2816
 3816TIP3    H232864   0.258   4.186  11.159  1.2120 -0.9220 -0.4486
 3817TIP3   OH232865   5.235   4.485   1.242 -0.2993 -0.1141 -0.5713
 3817TIP3    H132866   5.279   4.430   1.306  0.1505 -3.3455 -3.3775
 3817TIP3    H232867   5.302   4.549   1.216  0.6016 -0.8998 -0.2378
 3818TIP3   OH232868   6.416   5.287   5.702  0.1247  0.7905  0.4116
 3818TIP3    H132869   6.493   5.258   5.653  0.9427 -0.4591  2.3388
 3818TIP3    H232870   6.342   5.267   5.644  1.1013  0.0162 -0.6022
 3819TIP3   OH232871   4.103   5.988   4.158  0.1853  0.1550 -0.2349
 3819TIP3    H132872   4.012   5.961   4.143 -0.1255  0.8927  0.2531
 3819TIP3    H232873   4.098   6.083   4.168  0.6883 -0.0103  2.0456
 3820TIP3   OH232874   2.547   1.625  13.399  0.1797  0.0348  0.1038
 3820TIP3    H132875   2.551   1.635  13.303  1.8359 -2.0437 -0.1314
 3820TIP3    H232876   2.468   1.572  13.414  0.5169 -0.5738 -0.2371
 3821TIP3   OH232877   3.766   4.243  15.630  0.4640  0.1268  1.2347
 3821TIP3    H132878   3.860   4.260  15.619  0.3538  0.3202  0.4964
 3821TIP3    H232879   3.751   4.159  15.586 -0.0917  1.1774 -0.7061
 3822TIP3   OH232880   6.353   3.186   4.378  0.3405  0.1760 -0.2113
 3822TIP3    H132881   6.422   3.196   4.313 -0.8131 -0.3222 -1.5704
 3822TIP3    H232882   6.359   3.094   4.405  0.4512  0.2348 -0.0317
 3823TIP3   OH232883   2.139   3.283  14.955  0.2346  0.0793  0.4593
 3823TIP3    H132884   2.131   3.367  15.000  0.6601  0.3688  0.0065
 3823TIP3    H232885   2.056   3.239  14.972 -0.3769  0.9883 -0.0933
 3824TIP3   OH232886   1.384   6.002   5.146 -0.2906  0.7251 -1.0725
 3824TIP3    H132887   1.311   6.032   5.201 -0.3987  2.7202 -2.2308
 3824TIP3    H232888   1.407   6.078   5.092  1.1168 -0.5711 -2.3965
 3825TIP3   OH232889   6.726   1.573  16.693  0.2049  0.4190 -0.2213
 3825TIP3    H132890   6.668   1.591  16.767  0.2010  1.9471 -0.5669
 3825TIP3    H232891   6.778   1.653  16.683 -0.9265  0.9184 -2.9138
 3826TIP3   OH232892   5.999   6.248   4.278 -0.7401  0.4556  0.2472
 3826TIP3    H132893   6.090   6.277   4.278 -0.4622 -0.2832 -1.6737
 3826TIP3    H232894   5.980   6.229   4.370  1.5311 -0.7884  0.5463
 3827TIP3   OH232895   4.793   0.068   4.182  0.3076  0.4771  0.2912
 3827TIP3    H132896   4.816   0.033   4.097 -0.3162 -0.4317  0.4801
 3827TIP3    H232897   4.744  -0.003   4.225  0.1484  1.1107  1.1903
 3828TIP3   OH232898   0.115   2.708   1.991  0.0945 -0.2795  0.2847
 3828TIP3    H132899   0.048   2.680   1.929 -1.2820  0.6523  1.2920
 3828TIP3    H232900   0.139   2.797   1.962  2.4876 -1.3407 -1.3089
 3829TIP3   OH232901   1.133   0.980  10.769 -0.6495  0.2528  0.3510
 3829TIP3    H132902   1.127   0.923  10.846  2.0659 -0.1251  0.3621
 3829TIP3    H232903   1.131   0.920  10.695 -0.7746  0.4059  0.2303
 3830TIP3   OH232904   0.161   5.403   3.806 -0.1053  0.2686 -0.4622
 3830TIP3    H132905   0.100   5.383   3.735  0.1174  0.8862 -0.8277
 3830TIP3    H232906   0.239   5.352   3.785 -0.8993 -1.5336  0.6672
 3831TIP3   OH232907   1.798   6.344  15.274 -0.0688  0.0928 -0.2165
 3831TIP3    H132908   1.798   6.372  15.366 -0.4359  0.5885 -0.3612
 3831TIP3    H232909   1.799   6.248  15.278  0.1022  0.1127  0.3034
 3832TIP3   OH232910   0.727   3.328  14.112  0.0787  0.2274  0.1273
 3832TIP3    H132911   0.800   3.305  14.055 -0.0898  0.0163 -0.0040
 3832TIP3    H232912   0.754   3.298  14.199  0.1507  0.1538  0.0796
 3833TIP3   OH232913   3.814   4.589  11.052  0.1886  0.1480 -0.1133
 3833TIP3    H132914   3.897   4.583  11.100  0.8733  0.4791 -1.2233
 3833TIP3    H232915   3.835   4.639  10.974 -1.1240  0.4431 -0.3035
 3834TIP3   OH232916   0.702   5.423  17.108  0.2301  0.7351 -0.0571
 3834TIP3    H132917   0.623   5.374  17.086  0.7527  0.2812 -1.0068
 3834TIP3    H232918   0.773   5.360  17.095  1.1662  2.3018 -3.7706
 3835TIP3   OH232919   4.875   2.581  17.339 -0.8586  0.0407  0.1135
 3835TIP3    H132920   4.837   2.628  17.264 -0.8584 -0.4792 -0.2131
 3835TIP3    H232921   4.819   2.504  17.350 -0.9618  0.2028  0.7601
 3836TIP3   OH232922   0.541   0.693  16.046 -0.1076 -0.0022 -0.3852
 3836TIP3    H132923   0.620   0.704  15.993  0.9770 -0.9087  0.9780
 3836TIP3    H232924   0.542   0.600  16.071  1.4016  0.9418  4.0675
 3837TIP3   OH232925   1.392   5.027   4.454 -0.2745 -0.0879  0.2563
 3837TIP3    H132926   1.445   5.101   4.423 -0.3767  0.7845  2.0231
 3837TIP3    H232927   1.441   4.949   4.426 -0.3321  0.5885 -1.9361
 3838TIP3   OH232928   1.981   3.606   5.276  0.0063  0.4241  0.3241
 3838TIP3    H132929   2.038   3.548   5.227 -1.3567 -1.9727  1.3849
 3838TIP3    H232930   2.032   3.631   5.354  1.5136  2.8228 -1.2808
 3839TIP3   OH232931   1.470   3.804  13.645  0.1326  0.7122 -0.4755
 3839TIP3    H132932   1.399   3.839  13.591  0.5885  1.5831 -0.5329
 3839TIP3    H232933   1.543   3.793  13.585  0.6037  1.5728 -0.0890
 3840TIP3   OH232934   2.684   5.333   2.488 -0.1276  0.1427 -0.5221
 3840TIP3    H132935   2.620   5.320   2.559 -0.6626  1.4200 -0.7311
 3840TIP3    H232936   2.667   5.422   2.458  1.2099  0.2040 -1.1527
 3841TIP3   OH232937   3.474   3.169   6.227 -0.3849 -0.5105  0.0607
 3841TIP3    H132938   3.478   3.259   6.195  1.3403 -1.4303 -2.6359
 3841TIP3    H232939   3.385   3.140   6.209 -0.3290  0.0119 -1.1392
 3842TIP3   OH232940   2.424   2.300   2.477  0.6519  0.2970 -0.2114
 3842TIP3    H132941   2.365   2.269   2.408 -0.7953 -0.0373  1.1157
 3842TIP3    H232942   2.511   2.273   2.447  0.0172 -0.2761 -1.6631
 3843TIP3   OH232943   4.099   0.329  15.383  0.7921 -0.0530  0.8694
 3843TIP3    H132944   4.133   0.266  15.447  0.5714 -2.3838 -1.1193
 3843TIP3    H232945   4.044   0.276  15.325  1.8998  1.6164 -1.9399
 3844TIP3   OH232946   1.871   6.061  16.717  0.0805  0.1762 -0.7366
 3844TIP3    H132947   1.938   6.014  16.666  0.8441 -2.2926  2.2561
 3844TIP3    H232948   1.917   6.139  16.749  0.3192  0.4895 -1.8001
 3845TIP3   OH232949   0.658   3.139  11.777 -1.0168  0.1335 -0.3093
 3845TIP3    H132950   0.724   3.136  11.708 -1.2170 -1.9012 -0.4644
 3845TIP3    H232951   0.681   3.217  11.828  2.5852 -1.3799  0.6787
 3846TIP3   OH232952   3.951   5.952   3.437 -0.1530  0.4270 -0.0585
 3846TIP3    H132953   3.956   5.861   3.468  0.7006  0.2910 -0.5745
 3846TIP3    H232954   3.900   5.997   3.505  1.0953  0.0012  1.2183
 3847TIP3   OH232955   5.748   5.994  12.798 -0.4425 -0.6330 -0.3145
 3847TIP3    H132956   5.689   6.028  12.731  1.9695  2.7117 -1.0146
 3847TIP3    H232957   5.692   5.970  12.871 -2.7882  0.0720 -1.7920
 3848TIP3   OH232958   0.974   4.972  16.278  0.3001 -0.2219  0.2997
 3848TIP3    H132959   0.930   5.019  16.207  0.3682 -1.3654 -0.5322
 3848TIP3    H232960   0.945   4.881  16.268 -0.8802 -0.1731  2.6830
 3849TIP3   OH232961   0.616   4.445  15.824  0.3728  0.1481 -0.3352
 3849TIP3    H132962   0.525   4.425  15.846  0.8007 -1.2445  0.2730
 3849TIP3    H232963   0.656   4.472  15.907  1.1235 -1.6934 -0.0644
 3850TIP3   OH232964   2.201   1.350   0.011 -0.4823 -0.1679 -0.0664
 3850TIP3    H132965   2.193   1.370   0.105 -1.6642 -0.2672 -0.1281
 3850TIP3    H232966   2.247   1.267   0.008 -1.3285 -0.6752  0.4861
 3851TIP3   OH232967   4.637   6.565   2.315  0.1808 -0.3579  0.3520
 3851TIP3    H132968   4.712   6.619   2.289 -0.1093  0.4275  1.0761
 3851TIP3    H232969   4.560   6.616   2.290 -0.1042 -0.6385  0.6370
 3852TIP3   OH232970   0.629   3.522  12.175 -0.4103  0.6119 -0.0000
 3852TIP3    H132971   0.676   3.485  12.251  0.4116 -1.0171 -1.2364
 3852TIP3    H232972   0.647   3.616  12.179  0.2650  0.4469  1.3832
 3853TIP3   OH232973   5.512   2.020   1.827 -0.2121 -0.3122 -0.4433
 3853TIP3    H132974   5.596   2.037   1.869 -0.1994  0.6883 -0.8465
 3853TIP3    H232975   5.535   1.984   1.741 -0.2168 -0.9946 -0.1627
 3854TIP3   OH232976   1.867   0.939   6.017  0.4958 -0.3248  0.5023
 3854TIP3    H132977   1.874   0.923   5.923  2.0244  0.4225  0.4659
 3854TIP3    H232978   1.774   0.925   6.036  0.2504 -1.0198 -1.0047
 3855TIP3   OH232979   1.986   1.104   0.587 -0.6123  0.2860  0.1350
 3855TIP3    H132980   2.037   1.140   0.660 -1.3346  2.7857 -0.5005
 3855TIP3    H232981   2.040   1.032   0.554  1.4820  1.4413  0.8429
 3856TIP3   OH232982   3.724   4.488   2.025 -0.0594  0.3540 -0.0710
 3856TIP3    H132983   3.801   4.432   2.026  0.7161  1.2452 -2.3351
 3856TIP3    H232984   3.727   4.535   2.109  0.2110 -1.6775  1.1119
 3857TIP3   OH232985   2.860   4.490  15.771  0.5164 -0.3984 -0.4356
 3857TIP3    H132986   2.924   4.437  15.723 -0.0717 -0.3533 -1.2998
 3857TIP3    H232987   2.828   4.553  15.707 -0.3528 -0.3835 -0.0082
 3858TIP3   OH232988   3.919   4.191   3.302 -0.5463  0.8900  0.2570
 3858TIP3    H132989   3.994   4.249   3.313  0.3296 -0.2534  0.5512
 3858TIP3    H232990   3.881   4.184   3.389  0.2684 -0.1471  0.5518
 3859TIP3   OH232991   1.979   0.342   4.747 -0.2765  0.3246  0.7661
 3859TIP3    H132992   2.026   0.408   4.696  1.0178 -1.1591 -0.0792
 3859TIP3    H232993   1.888   0.350   4.720  0.2288  0.2367 -1.1048
 3860TIP3   OH232994   4.049   6.088  15.273  0.0316  0.7322  0.7263
 3860TIP3    H132995   4.055   6.127  15.186 -1.3851  0.3716  0.4420
 3860TIP3    H232996   4.079   6.157  15.333  0.9902  0.9886 -0.0269
 3861TIP3   OH232997   1.095   5.980   0.297 -0.1130  0.4276 -0.4295
 3861TIP3    H132998   1.015   5.927   0.308 -0.6953  1.1533 -1.0380
 3861TIP3    H232999   1.157   5.921   0.255 -0.8194  0.2586 -1.2741
 3862TIP3   OH233000   0.161   1.499   4.299 -0.2180  0.2547  0.0580
 3862TIP3    H133001   0.089   1.562   4.302 -0.7975 -0.3971  0.0355
 3862TIP3    H233002   0.142   1.438   4.370  1.4944  1.3079  1.5300
 3863TIP3   OH233003   1.619   5.726   1.418 -0.1636  0.7742 -0.4621
 3863TIP3    H133004   1.704   5.687   1.434  1.0133  2.7136 -1.5175
 3863TIP3    H233005   1.618   5.806   1.471 -1.1675  0.9573 -0.7198
 3864TIP3   OH233006   4.788   2.892  14.581  0.2757  0.3093 -0.2130
 3864TIP3    H133007   4.877   2.911  14.549 -0.1360  3.5074  0.1957
 3864TIP3    H233008   4.781   2.944  14.661 -1.4708 -1.1243  0.6026
 3865TIP3   OH233009   6.026   6.424  14.652 -0.3704 -0.6320  0.1434
 3865TIP3    H133010   5.999   6.355  14.713 -0.2457 -0.8122 -0.0015
 3865TIP3    H233011   6.073   6.487  14.706 -1.6938  0.0568  0.5389
 3866TIP3   OH233012   2.511   4.183   5.779  0.0185 -0.4001 -0.1173
 3866TIP3    H133013   2.551   4.269   5.763  0.2648 -0.4143  0.3937
 3866TIP3    H233014   2.470   4.191   5.865 -0.8761 -0.4684 -0.5259
 3867TIP3   OH233015   3.833   1.516  12.048 -0.2979 -0.5166  0.1374
 3867TIP3    H133016   3.741   1.538  12.039 -0.3590 -0.8046  0.0439
 3867TIP3    H233017   3.880   1.594  12.018 -0.4997 -1.2497 -2.2826
 3868TIP3   OH233018   4.962   0.763   0.603 -0.0949  0.0854  0.2415
 3868TIP3    H133019   5.027   0.706   0.645 -0.7371 -0.2788  0.7622
 3868TIP3    H233020   4.942   0.719   0.520  1.6966  1.1684 -0.8193
 3869TIP3   OH233021   5.262   2.722  12.636  0.1501 -0.4697  0.3909
 3869TIP3    H133022   5.261   2.630  12.611  1.4092 -0.4226  0.1246
 3869TIP3    H233023   5.172   2.751  12.623  0.2842 -0.9703 -2.1321
 3870TIP3   OH233024   4.987   0.524   4.269  0.1527 -0.2679 -0.4048
 3870TIP3    H133025   4.994   0.490   4.180  0.5317 -0.8119 -0.1702
 3870TIP3    H233026   4.950   0.452   4.320 -0.4841  0.1911 -0.2026
 3871TIP3   OH233027   5.010   3.066   0.628 -0.1256  0.4821  0.2329
 3871TIP3    H133028   4.984   3.147   0.585 -2.4173 -0.0093  0.5893
 3871TIP3    H233029   4.929   3.029   0.662  0.8493 -2.0036  0.0575
 3872TIP3   OH233030   5.836   4.727   4.112 -0.2645  0.2889 -0.0193
 3872TIP3    H133031   5.811   4.705   4.022  0.6721 -0.0051 -0.2235
 3872TIP3    H233032   5.887   4.651   4.141 -0.4153  0.4586  0.6999
 3873TIP3   OH233033   5.063   2.448  14.663 -0.0429  0.1123 -0.3889
 3873TIP3    H133034   5.137   2.387  14.664 -0.3600 -0.3249 -1.6922
 3873TIP3    H233035   5.066   2.489  14.750  1.2061 -0.5058 -0.0982
 3874TIP3   OH233036   5.763   3.996  13.702  0.2460 -0.0226  0.8066
 3874TIP3    H133037   5.749   4.040  13.786 -1.6833 -0.2326  0.6362
 3874TIP3    H233038   5.712   4.048  13.639  0.1235 -0.9507  0.1180
 3875TIP3   OH233039   1.999   3.050   1.805 -0.8276  0.2078 -0.8866
 3875TIP3    H133040   1.910   3.084   1.819 -0.8452 -0.5666  1.3696
 3875TIP3    H233041   2.056   3.126   1.818 -1.1049  0.5594 -1.6505
 3876TIP3   OH233042   5.239   0.768   2.985 -0.0438 -0.2312  0.2625
 3876TIP3    H133043   5.276   0.762   3.073  1.3186 -0.2527 -0.2884
 3876TIP3    H233044   5.315   0.774   2.927 -0.8843 -1.3997 -1.0233
 3877TIP3   OH233045   5.552   4.576   0.033 -0.2571 -0.0758 -0.4225
 3877TIP3    H133046   5.607   4.502   0.005  0.2369 -0.1556  0.7102
 3877TIP3    H233047   5.495   4.539   0.100 -0.0339  0.5563  0.1177
 3878TIP3   OH233048   2.100   2.101  15.505 -0.1338  0.4725 -0.4674
 3878TIP3    H133049   2.150   2.174  15.468 -1.4258  1.4367 -0.3891
 3878TIP3    H233050   2.112   2.110  15.600 -2.7240  2.5370 -0.2042
 3879TIP3   OH233051   3.202   3.760   6.261 -0.1996 -0.0076  0.3894
 3879TIP3    H133052   3.150   3.807   6.196  0.2790  1.3642  0.9552
 3879TIP3    H233053   3.293   3.776   6.234 -0.0272 -1.5622 -0.0408
 3880TIP3   OH233054   2.131   3.198   3.280 -0.3742 -0.1344 -0.0227
 3880TIP3    H133055   2.176   3.115   3.263 -0.3256 -0.0880 -0.1209
 3880TIP3    H233056   2.079   3.181   3.359 -0.2655 -0.2195  0.0312
 3881TIP3   OH233057   1.739   5.748  13.561 -0.2605  0.3395 -0.0844
 3881TIP3    H133058   1.731   5.742  13.465 -0.4410 -0.5228 -0.0183
 3881TIP3    H233059   1.832   5.767  13.576 -0.3246  1.0004 -0.4438
 3882TIP3   OH233060   1.527   0.213   4.287 -0.2498 -0.2115  0.0655
 3882TIP3    H133061   1.475   0.259   4.221 -1.8084 -0.1606  1.2745
 3882TIP3    H233062   1.494   0.246   4.371  0.3125 -1.7166  0.9084
 3883TIP3   OH233063   1.106   4.124  13.673  0.6107  0.5557 -0.1301
 3883TIP3    H133064   1.183   4.149  13.724 -0.1378 -0.5239  1.6244
 3883TIP3    H233065   1.078   4.204  13.631  1.7834  1.3065  0.4514
 3884TIP3   OH233066   3.660   6.484  10.681 -0.3206 -0.2338 -0.3748
 3884TIP3    H133067   3.594   6.469  10.748  2.0628  2.0335  2.8392
 3884TIP3    H233068   3.651   6.577  10.659 -0.1511 -0.6198 -2.2491
 3885TIP3   OH233069   6.349   3.438   5.067  0.0651  0.1745 -0.4151
 3885TIP3    H133070   6.371   3.433   4.974 -0.9325 -0.8280 -0.6213
 3885TIP3    H233071   6.419   3.490   5.105  0.7171  0.2513 -1.6547
 3886TIP3   OH233072   5.655   0.379  15.173  0.2330 -0.0073  0.0715
 3886TIP3    H133073   5.581   0.319  15.174  1.1242 -1.2155 -1.8460
 3886TIP3    H233074   5.724   0.332  15.221  0.1737  0.5791  0.7509
 3887TIP3   OH233075   2.663   3.914  15.036  0.2026 -0.0150  0.3666
 3887TIP3    H133076   2.574   3.912  15.071  0.1301  0.9618  0.2662
 3887TIP3    H233077   2.654   3.955  14.950  0.7644  0.1927  0.4039
 3888TIP3   OH233078   1.023   5.769  14.102  0.1013  0.1320  0.2965
 3888TIP3    H133079   1.080   5.781  14.026  0.9314 -0.2869  0.8427
 3888TIP3    H233080   0.936   5.794  14.070  0.4289 -0.0495 -0.7936
 3889TIP3   OH233081   2.362   1.050  13.114  0.0189 -0.2826  0.7243
 3889TIP3    H133082   2.315   0.983  13.163 -0.4767 -1.4758 -1.2676
 3889TIP3    H233083   2.443   1.063  13.164 -1.2782  0.0197  2.8757
 3890TIP3   OH233084   6.433   3.380  15.871 -0.4315  0.0804  0.2855
 3890TIP3    H133085   6.383   3.311  15.914 -0.4303 -0.0071  0.1495
 3890TIP3    H233086   6.523   3.348  15.870 -0.3804  0.2163  0.4865
 3891TIP3   OH233087   4.115   4.385  17.393  0.0939  0.2264  0.6837
 3891TIP3    H133088   4.195   4.379  17.447  0.8225 -0.1916 -0.4131
 3891TIP3    H233089   4.123   4.470  17.350 -0.6719  0.7238  1.4858
 3892TIP3   OH233090   2.711   0.436  15.918  0.6273 -0.2240  0.9518
 3892TIP3    H133091   2.753   0.408  15.837  2.0537  0.3906  1.4497
 3892TIP3    H233092   2.720   0.531  15.919 -1.4480  0.0195  0.7460
 3893TIP3   OH233093   3.673   1.636  12.610 -0.5466 -0.1172 -0.2829
 3893TIP3    H133094   3.706   1.546  12.618 -2.2308 -0.9850 -2.1602
 3893TIP3    H233095   3.745   1.684  12.569  0.4430 -0.5138  0.9077
 3894TIP3   OH233096   1.540   4.852   2.138 -0.1023 -0.2684  0.1314
 3894TIP3    H133097   1.540   4.808   2.053 -1.6585  0.5432 -0.3224
 3894TIP3    H233098   1.623   4.826   2.178  0.0609 -1.7338 -1.0686
 3895TIP3   OH233099   0.339   2.990   1.150 -0.1349  0.1357  0.2201
 3895TIP3    H133100   0.419   3.018   1.195  0.0733  2.0070 -1.2180
 3895TIP3    H233101   0.343   3.033   1.065 -2.7535  0.4251  0.1739
 3896TIP3   OH233102   5.246   0.823  10.593 -0.3233  0.3896 -0.0970
 3896TIP3    H133103   5.332   0.800  10.559  0.8401  0.5769  2.4545
 3896TIP3    H233104   5.186   0.811  10.519  1.4420 -2.4476 -1.2318
 3897TIP3   OH233105   0.961   6.674  14.525 -0.3297 -0.7514 -0.2937
 3897TIP3    H133106   0.963   6.582  14.550 -0.4947 -0.2562  1.6645
 3897TIP3    H233107   1.052   6.698  14.513 -0.2677 -1.0780 -0.4886
 3898TIP3   OH233108   6.194   5.167   1.670 -0.3124  0.9037 -0.3354
 3898TIP3    H133109   6.271   5.225   1.667  0.4597 -0.1342 -2.4740
 3898TIP3    H233110   6.136   5.203   1.602  0.4321 -1.0455 -2.1208
 3899TIP3   OH233111   2.827   0.201   1.692 -0.3306 -0.3623 -0.1953
 3899TIP3    H133112   2.836   0.228   1.600 -1.2093 -2.0621 -0.8255
 3899TIP3    H233113   2.905   0.235   1.735 -1.8624  4.3243 -0.5476
 3900TIP3   OH233114   0.908   6.654  13.472 -0.1206 -0.0366  0.5814
 3900TIP3    H133115   0.903   6.720  13.403  0.1283 -1.0297 -0.4212
 3900TIP3    H233116   0.998   6.622  13.467  0.2694  0.7098  2.1896
 3901TIP3   OH233117   6.169   6.526   4.716  0.5691  0.4720 -0.0000
 3901TIP3    H133118   6.155   6.597   4.779 -1.1453 -0.2781  0.5308
 3901TIP3    H233119   6.094   6.468   4.729 -0.6817  0.9917 -3.7110
 3902TIP3   OH233120   3.510   5.357   5.250  0.2518 -0.0999  0.1783
 3902TIP3    H133121   3.469   5.293   5.308 -2.1719  0.1031 -1.2187
 3902TIP3    H233122   3.471   5.441   5.274  0.4758  0.2451 -0.6261
 3903TIP3   OH233123   5.429   4.686  11.746 -0.3453  0.1053 -0.2350
 3903TIP3    H133124   5.356   4.651  11.798  1.2372  0.1511  2.1572
 3903TIP3    H233125   5.427   4.780  11.763 -0.1297  0.2014 -0.7176
 3904TIP3   OH233126   5.288   6.236  17.169 -0.4889 -0.2068 -0.1139
 3904TIP3    H133127   5.273   6.199  17.082 -1.8736  1.2390 -0.5346
 3904TIP3    H233128   5.218   6.300  17.181  1.8636  2.5049  0.4283
 3905TIP3   OH233129   1.509   0.813   0.077 -0.8465  0.0552  1.1498
 3905TIP3    H133130   1.601   0.799   0.100 -0.8567 -1.0079  0.6062
 3905TIP3    H233131   1.473   0.725   0.066 -1.9449  0.4515  1.3923
 3906TIP3   OH233132   2.523   5.863  15.519  1.0345  0.3783  0.1281
 3906TIP3    H133133   2.465   5.933  15.490 -0.6138 -0.6033  0.8931
 3906TIP3    H233134   2.581   5.905  15.584  0.9960  1.3111 -0.4242
 3907TIP3   OH233135   4.726   3.653  15.493 -0.0471 -0.3525 -0.0217
 3907TIP3    H133136   4.722   3.742  15.458  0.1717 -1.2691 -2.5771
 3907TIP3    H233137   4.804   3.653  15.548  0.4658  0.8226 -0.6997
 3908TIP3   OH233138   2.713   1.212  16.470 -0.4387 -0.1719  0.4085
 3908TIP3    H133139   2.640   1.172  16.422 -0.0711 -1.5341  0.9385
 3908TIP3    H233140   2.791   1.177  16.428  0.0050  2.3116 -1.0360
 3909TIP3   OH233141   2.719   5.165  16.484  0.2531  0.4626 -0.0111
 3909TIP3    H133142   2.810   5.137  16.491  0.1461  0.2317  0.5137
 3909TIP3    H233143   2.681   5.147  16.571 -1.0660 -2.1590 -1.0132
 3910TIP3   OH233144   4.283   1.472  12.329 -0.3555  0.1983  0.2351
 3910TIP3    H133145   4.364   1.469  12.279 -0.5770  2.7531 -0.4053
 3910TIP3    H233146   4.272   1.565  12.351 -3.0680 -0.0743  0.3431
 3911TIP3   OH233147   5.188   1.196   6.436 -0.5452  0.3342 -0.0159
 3911TIP3    H133148   5.097   1.185   6.407 -0.2047 -0.8939 -0.6697
 3911TIP3    H233149   5.184   1.189   6.531 -0.9966 -0.8716 -0.1057
 3912TIP3   OH233150   5.850   6.425  13.080  0.6990 -0.2969  0.5719
 3912TIP3    H133151   5.907   6.365  13.033 -0.7867  0.1656 -1.9923
 3912TIP3    H233152   5.777   6.371  13.110  0.9986 -0.3418  1.2497
 3913TIP3   OH233153   4.387   3.671   4.736  0.0991 -0.2301 -0.3241
 3913TIP3    H133154   4.356   3.589   4.696  1.9155 -1.2291  0.2041
 3913TIP3    H233155   4.467   3.692   4.687  0.8420  0.0175  0.9528
 3914TIP3   OH233156   5.931   2.839   4.916  0.1224 -0.1892 -0.3672
 3914TIP3    H133157   5.893   2.827   5.003  0.5382 -1.5263 -0.3490
 3914TIP3    H233158   5.858   2.824   4.856  0.2922 -1.3632 -0.2943
 3915TIP3   OH233159   1.818   1.356   0.995  0.4817 -0.1143  0.2556
 3915TIP3    H133160   1.802   1.318   1.081  0.5722  0.9256  0.7426
 3915TIP3    H233161   1.851   1.283   0.943  0.4879 -0.7436  1.1171
 3916TIP3   OH233162   1.581   6.174   3.725 -0.8356  0.3755 -0.4706
 3916TIP3    H133163   1.594   6.118   3.801  1.9879  0.0416 -1.0587
 3916TIP3    H233164   1.575   6.263   3.761 -0.5144  0.1309  0.2054
 3917TIP3   OH233165   4.373   1.559  15.457  0.0981 -0.0621  0.0587
 3917TIP3    H133166   4.442   1.584  15.519 -0.3958  0.0914  0.5559
 3917TIP3    H233167   4.374   1.463  15.458 -0.5416 -0.0716  1.0394
 3918TIP3   OH233168   3.662   3.197  13.749  0.3193 -0.4436  0.6576
 3918TIP3    H133169   3.687   3.143  13.824 -0.0009 -0.9347  0.4181
 3918TIP3    H233170   3.572   3.171  13.730  0.2337  0.0243  0.4031
 3919TIP3   OH233171   5.026   4.722   3.682  0.2617 -0.5999 -0.0124
 3919TIP3    H133172   5.022   4.815   3.661 -0.9498 -0.4628  0.7380
 3919TIP3    H233173   5.057   4.680   3.601 -0.0657  0.3498 -0.6434
 3920TIP3   OH233174   2.717   1.514  17.375 -0.5635  0.4222 -0.2805
 3920TIP3    H133175   2.664   1.537  17.451  0.2228  0.3006  0.3225
 3920TIP3    H233176   2.758   1.431  17.399 -1.3926 -0.3557 -1.4107
 3921TIP3   OH233177   0.703   0.408  11.693  0.1855 -0.4829  0.5835
 3921TIP3    H133178   0.753   0.339  11.649 -2.7471 -2.3853 -0.0184
 3921TIP3    H233179   0.722   0.487  11.643  2.5701 -1.0794  0.4400
 3922TIP3   OH233180   1.864   0.349   5.721 -0.2089  0.5433  0.4723
 3922TIP3    H133181   1.830   0.435   5.747 -1.1275  0.1856  0.4997
 3922TIP3    H233182   1.826   0.333   5.635  1.2828  0.8718 -0.2836
 3923TIP3   OH233183   5.939   1.318   2.271 -0.2290  0.4079 -0.4927
 3923TIP3    H133184   5.902   1.401   2.300 -2.0608  0.9367 -3.8038
 3923TIP3    H233185   5.989   1.340   2.193  1.3951 -1.3130 -0.0006
 3924TIP3   OH233186   3.400   4.926   2.325  0.2588 -0.5632  0.2187
 3924TIP3    H133187   3.435   4.841   2.297 -0.6707 -0.8739 -0.0366
 3924TIP3    H233188   3.305   4.912   2.332  0.1851  0.2280  0.9942
 3925TIP3   OH233189   4.670   6.681  11.061 -0.0973  0.6783  0.2146
 3925TIP3    H133190   4.678   6.719  10.974  2.1827  0.0944  0.1212
 3925TIP3    H233191   4.723   6.601  11.058  1.0507  1.2585  2.4557
 3926TIP3   OH233192   3.483   3.978   4.727  0.5154 -0.1837 -0.1491
 3926TIP3    H133193   3.479   4.043   4.657 -1.0929 -0.9504 -0.8241
 3926TIP3    H233194   3.465   4.028   4.807 -3.2173 -0.0060 -0.8870
 3927TIP3   OH233195   1.836   3.840   5.951 -0.0585 -0.4096  0.5274
 3927TIP3    H133196   1.856   3.771   6.015  0.5118 -2.0380 -1.2844
 3927TIP3    H233197   1.768   3.801   5.895  0.0397  0.6238 -0.3496
 3928TIP3   OH233198   0.267   3.043   2.130 -0.5697  0.9749  0.3324
 3928TIP3    H133199   0.180   3.005   2.123 -0.4077  0.4418  1.0716
 3928TIP3    H233200   0.267   3.088   2.215  0.0914  0.3640  0.6706
 3929TIP3   OH233201   6.306   3.522  13.563  0.3031 -0.2276 -0.2647
 3929TIP3    H133202   6.244   3.451  13.581 -0.5511 -0.0097 -2.1214
 3929TIP3    H233203   6.379   3.506  13.624 -0.6455 -1.6758  0.5525
 3930TIP3   OH233204   3.786   0.041   0.115 -0.1227 -0.0632 -0.0824
 3930TIP3    H133205   3.778   0.129   0.079  0.0120 -0.2624 -0.6115
 3930TIP3    H233206   3.849  -0.003   0.058  1.8078  0.2790  1.6955
 3931TIP3   OH233207   3.693   1.385   1.167  0.2481 -0.1025 -0.3480
 3931TIP3    H133208   3.610   1.341   1.154 -1.1228  1.8146  1.3128
 3931TIP3    H233209   3.709   1.432   1.086  0.0819 -0.9993 -0.9126
 3932TIP3   OH233210   4.693   2.880  13.076  0.0439 -0.2717  0.4098
 3932TIP3    H133211   4.682   2.852  13.167  1.4133  0.6507  0.8909
 3932TIP3    H233212   4.616   2.934  13.058 -0.7502 -1.2857  0.6678
 3933TIP3   OH233213   2.917   0.959   3.576  0.0702 -0.1131 -0.4917
 3933TIP3    H133214   2.961   0.880   3.546 -1.0053 -0.4173 -1.3120
 3933TIP3    H233215   2.984   1.028   3.568  1.7391 -1.2149  2.2922
 3934TIP3   OH233216   0.485   1.648   1.085 -0.3086  0.7430 -0.0634
 3934TIP3    H133217   0.560   1.605   1.127  2.2234  2.6674 -2.1937
 3934TIP3    H233218   0.415   1.583   1.087  2.0329 -1.9572  0.3046
 3935TIP3   OH233219   0.042   1.062   5.970  0.0373  0.5575  0.0926
 3935TIP3    H133220   0.067   0.980   6.012 -0.8762 -0.4044 -1.1546
 3935TIP3    H233221  -0.021   1.036   5.902  0.4825  2.1760 -1.0057
 3936TIP3   OH233222   0.648   4.540   4.732  0.1302 -0.4768  0.1271
 3936TIP3    H133223   0.588   4.583   4.793  0.2316  0.9481 -0.7353
 3936TIP3    H233224   0.733   4.546   4.776 -0.3343 -2.8511  1.5315
 3937TIP3   OH233225   5.674   1.151   0.066 -0.4353  0.1427 -0.1343
 3937TIP3    H133226   5.593   1.189   0.102 -0.0980 -0.1744  0.9988
 3937TIP3    H233227   5.736   1.224   0.067  0.0554 -0.2589  1.5345
 3938TIP3   OH233228   4.263   4.283  15.283  0.2971 -0.1983  0.7000
 3938TIP3    H133229   4.171   4.302  15.267  0.8457  1.6453 -0.6251
 3938TIP3    H233230   4.298   4.364  15.321  1.6382 -0.4199  0.0092
 3939TIP3   OH233231   2.550   1.309   3.203  0.4996  0.0789 -0.1050
 3939TIP3    H133232   2.642   1.324   3.225  0.6239 -0.4752 -0.2359
 3939TIP3    H233233   2.531   1.221   3.236 -0.0163  0.2342  0.0202
 3940TIP3   OH233234   4.765   2.749   5.586 -0.4205 -0.0698  0.3619
 3940TIP3    H133235   4.769   2.735   5.680  0.5552 -1.2113  0.1825
 3940TIP3    H233236   4.764   2.661   5.549 -2.3303  0.3314 -0.6715
 3941TIP3   OH233237   3.301   5.519  17.102 -0.0827 -0.3375  0.8032
 3941TIP3    H133238   3.325   5.604  17.139  1.1983  0.6433 -2.0069
 3941TIP3    H233239   3.372   5.461  17.128  0.1742  0.0193  0.9043
 3942TIP3   OH233240   6.113   6.610   4.242 -0.1781 -0.3150 -0.0783
 3942TIP3    H133241   6.139   6.670   4.313 -2.4484 -0.5442  1.0452
 3942TIP3    H233242   6.115   6.664   4.163 -0.5498  0.7993  0.6525
 3943TIP3   OH233243   2.079   3.221   4.604  0.4206 -0.6162  0.0552
 3943TIP3    H133244   2.023   3.278   4.657  0.9821  0.7643 -0.7756
 3943TIP3    H233245   2.033   3.137   4.603 -0.4336 -0.2041  1.3248
 3944TIP3   OH233246   1.444   3.293  13.335  0.0959 -0.0258  0.1309
 3944TIP3    H133247   1.373   3.347  13.300  1.9546  1.2888 -1.9042
 3944TIP3    H233248   1.455   3.224  13.269 -0.6773 -1.5465  1.5328
 3945TIP3   OH233249   1.382   6.064  11.337  0.3623 -0.0172 -0.3095
 3945TIP3    H133250   1.437   6.029  11.267  1.1297  0.2378  0.1414
 3945TIP3    H233251   1.342   6.143  11.299  1.1519  0.3897 -0.3250
 3946TIP3   OH233252   6.056   0.685  12.063 -0.1203  0.4657  0.0359
 3946TIP3    H133253   5.972   0.693  12.019  0.4663  0.2598 -1.1654
 3946TIP3    H233254   6.041   0.621  12.133 -0.5960 -0.6963 -1.0990
 3947TIP3   OH233255   6.091   1.838   0.599 -1.3412  0.9895 -0.0234
 3947TIP3    H133256   6.183   1.811   0.607 -1.9531 -1.6262 -0.6360
 3947TIP3    H233257   6.047   1.791   0.671 -2.6232 -0.3694 -1.6172
 3948TIP3   OH233258   4.790   3.821  12.508  0.2911 -0.0555 -0.0170
 3948TIP3    H133259   4.880   3.832  12.479  0.1876 -0.1329 -0.3649
 3948TIP3    H233260   4.769   3.904  12.552  0.4476  0.0554 -0.1523
 3949TIP3   OH233261   2.530   5.823  11.881  0.2261 -0.1304  0.0923
 3949TIP3    H133262   2.486   5.837  11.965  0.1721 -0.3147  0.0948
 3949TIP3    H233263   2.603   5.764  11.901 -0.4354 -1.0609 -0.1770
 3950TIP3   OH233264   3.003   2.466  11.568  0.4021  0.5162  0.4857
 3950TIP3    H133265   3.011   2.558  11.540 -1.5913  0.6175  0.1339
 3950TIP3    H233266   3.047   2.416  11.499  0.5254  1.1395  0.1034
 3951TIP3   OH233267   1.490   2.818  13.850  0.3468  0.6217  0.1344
 3951TIP3    H133268   1.547   2.833  13.774 -0.2430 -0.0292 -0.4487
 3951TIP3    H233269   1.531   2.868  13.921  0.7191  1.5149 -0.6892
 3952TIP3   OH233270   1.116   1.545   1.627 -0.5508  0.3836  0.6611
 3952TIP3    H133271   1.068   1.465   1.648 -0.5536 -0.1992 -1.4116
 3952TIP3    H233272   1.057   1.594   1.571  0.0870  1.1078  0.6100
 3953TIP3   OH233273   2.011   4.846   6.066  0.0106 -0.7042  0.2244
 3953TIP3    H133274   1.921   4.874   6.050 -0.2962 -0.0693  2.5884
 3953TIP3    H233275   2.052   4.923   6.106  1.7214 -0.8926 -1.0970
 3954TIP3   OH233276   0.822   4.464  14.841  0.0541  0.3472 -0.4406
 3954TIP3    H133277   0.912   4.494  14.854  0.5149 -0.8793 -0.6801
 3954TIP3    H233278   0.818   4.380  14.888 -0.8354  0.1849 -0.7950
 3955TIP3   OH233279   1.683   0.652  12.943 -0.6315  0.2631 -0.1783
 3955TIP3    H133280   1.761   0.690  12.984 -2.0700  1.0217  1.9806
 3955TIP3    H233281   1.613   0.713  12.962 -2.0409 -1.0530 -0.9397
 3956TIP3   OH233282   1.811   4.025   1.989 -0.2977 -0.0133 -0.1319
 3956TIP3    H133283   1.764   4.041   1.906  1.0301 -1.5372 -1.2469
 3956TIP3    H233284   1.750   4.054   2.057 -2.0646 -0.1235 -1.5813
 3957TIP3   OH233285   3.342   0.475  14.840 -0.3722 -0.0778 -0.0754
 3957TIP3    H133286   3.269   0.418  14.815 -0.9977  1.1282 -1.0847
 3957TIP3    H233287   3.408   0.460  14.771  0.0838 -0.6840  0.4812
 3958TIP3   OH233288   3.754   1.863  11.380  0.0660  0.6251 -0.6261
 3958TIP3    H133289   3.678   1.821  11.341  0.1656 -2.9670  2.4837
 3958TIP3    H233290   3.824   1.851  11.316 -0.5369 -1.8695 -0.8914
 3959TIP3   OH233291   0.599   3.410  13.889  0.3024 -0.7842 -0.2602
 3959TIP3    H133292   0.645   3.394  13.972  1.5878  0.3174 -0.7299
 3959TIP3    H233293   0.541   3.484  13.908 -0.0962 -1.1349 -0.1005
 3960TIP3   OH233294   0.189   0.088   4.314 -0.2664 -0.2240  0.0062
 3960TIP3    H133295   0.204   0.140   4.236  0.2393  0.3955  0.5053
 3960TIP3    H233296   0.127   0.139   4.366  0.2982 -0.0692  0.5385
 3961TIP3   OH233297   2.411   0.024   5.413 -0.5704 -0.0617 -0.5815
 3961TIP3    H133298   2.397  -0.039   5.484  1.6925 -0.2302 -0.2044
 3961TIP3    H233299   2.366   0.104   5.443  0.1605 -0.1922  0.9785
 3962TIP3   OH233300   5.984   0.658   3.724  0.2615 -0.6784  0.3406
 3962TIP3    H133301   6.040   0.636   3.649  0.1898  0.2291  0.0061
 3962TIP3    H233302   5.950   0.745   3.703  0.0065 -0.5420  1.3012
 3963TIP3   OH233303   0.180   1.520  15.773 -0.5608 -0.0039  0.0608
 3963TIP3    H133304   0.091   1.542  15.802 -0.3436  1.3890 -0.2330
 3963TIP3    H233305   0.183   1.424  15.775 -2.0603 -0.0812  0.0936
 3964TIP3   OH233306   2.995   4.865  15.597 -0.3618  0.2186 -0.0301
 3964TIP3    H133307   2.961   4.954  15.595 -0.8857  0.0079 -0.8155
 3964TIP3    H233308   3.055   4.864  15.671  1.8050  2.0074 -1.6177
 3965TIP3   OH233309   0.408   4.433   0.459 -0.1689  0.4493  0.4614
 3965TIP3    H133310   0.409   4.338   0.453 -0.0958  0.4403  0.6247
 3965TIP3    H233311   0.490   4.460   0.417 -0.2580  0.4482  0.2835
 3966TIP3   OH233312   1.395   3.667   0.005  0.1661  0.2939  0.1693
 3966TIP3    H133313   1.392   3.763   0.009 -0.1566  0.2989 -0.0961
 3966TIP3    H233314   1.474   3.648  -0.047 -0.1704  0.4418 -0.4103
 3967TIP3   OH233315   4.069   6.234  13.702  0.0599  0.2595 -0.7827
 3967TIP3    H133316   4.125   6.157  13.701 -0.0331  0.1589  0.2927
 3967TIP3    H233317   4.068   6.265  13.611  0.6252 -0.6161 -1.0954
 3968TIP3   OH233318   3.258   1.534   0.432 -0.2789  0.2105  0.1466
 3968TIP3    H133319   3.261   1.583   0.349  2.4016  0.7215  0.4599
 3968TIP3    H233320   3.188   1.575   0.482 -0.9419  0.8803 -1.2792
 3969TIP3   OH233321   6.302   2.653  14.755 -0.3379 -0.0941  0.2667
 3969TIP3    H133322   6.352   2.734  14.753 -0.3439 -0.1013 -0.9031
 3969TIP3    H233323   6.238   2.663  14.685 -1.2482 -0.5514  1.0080
 3970TIP3   OH233324   3.188   4.920  12.381 -0.3159  0.2108  0.3972
 3970TIP3    H133325   3.250   4.964  12.323  0.8088 -0.9974  0.6632
 3970TIP3    H233326   3.209   4.827  12.374 -1.0093 -0.0739  1.7551
 3971TIP3   OH233327   0.505   6.020  15.777 -0.1124  0.8247  0.0520
 3971TIP3    H133328   0.473   5.965  15.705 -0.2660 -0.4545  1.0776
 3971TIP3    H233329   0.574   6.073  15.736  0.0582 -0.1313 -0.9721
 3972TIP3   OH233330   4.252   1.992  13.157 -0.3386 -0.4611 -0.1110
 3972TIP3    H133331   4.337   2.031  13.136 -0.6505 -0.5985 -1.7259
 3972TIP3    H233332   4.268   1.898  13.160 -0.5551 -0.5403 -1.1196
 3973TIP3   OH233333   6.729   2.929   2.222  0.9322 -0.4765  0.2215
 3973TIP3    H133334   6.768   2.856   2.271  0.4127 -0.6899  0.3227
 3973TIP3    H233335   6.752   3.007   2.273  2.1082 -0.4783 -0.2659
 3974TIP3   OH233336   4.585   1.705  16.494 -0.2468 -0.4972 -0.2750
 3974TIP3    H133337   4.577   1.651  16.415 -1.2223  0.8102 -1.1001
 3974TIP3    H233338   4.513   1.676  16.550  0.4702 -1.4545  0.1779
 3975TIP3   OH233339   3.845   5.641   5.135 -0.3335 -0.0341  0.2277
 3975TIP3    H133340   3.891   5.617   5.055 -1.6263  0.0665 -0.5740
 3975TIP3    H233341   3.872   5.575   5.199 -0.9325 -1.4221 -0.9017
 3976TIP3   OH233342   3.284   2.411   4.134  0.2609 -0.0771  0.3126
 3976TIP3    H133343   3.194   2.441   4.147  0.0825  1.7800 -3.7379
 3976TIP3    H233344   3.276   2.316   4.122 -1.2361  0.1182 -0.4715
 3977TIP3   OH233345   4.260   4.746  13.533  0.4380 -0.2516 -0.6048
 3977TIP3    H133346   4.181   4.752  13.480 -0.3554  1.8953  0.7139
 3977TIP3    H233347   4.248   4.665  13.584 -1.6659  0.7589  0.6368
 3978TIP3   OH233348   5.212   5.000  13.474 -0.2730 -0.2370  0.5470
 3978TIP3    H133349   5.209   5.060  13.400 -0.9290  0.0277  0.7734
 3978TIP3    H233350   5.238   4.916  13.436 -0.7371 -0.1391 -0.0110
 3979TIP3   OH233351   6.413   6.022  12.895  0.3223 -0.4501  0.1543
 3979TIP3    H133352   6.375   6.107  12.917  0.5281 -0.3625  0.1667
 3979TIP3    H233353   6.389   5.966  12.969 -0.3272 -0.5642 -0.1282
 3980TIP3   OH233354   0.747   6.553   0.880 -0.2649  0.3362 -0.4231
 3980TIP3    H133355   0.708   6.495   0.946 -0.7875  0.8209 -0.2947
 3980TIP3    H233356   0.829   6.583   0.920 -1.1512  1.5883  0.5478
 3981TIP3   OH233357   4.823   1.543   6.330 -0.1081 -0.0428  0.1697
 3981TIP3    H133358   4.812   1.581   6.242 -0.3927  1.6402  0.8849
 3981TIP3    H233359   4.756   1.587   6.383 -0.0271 -1.1354  1.2003
 3982TIP3   OH233360   4.284   0.965  14.620  0.2124 -1.0505 -0.1369
 3982TIP3    H133361   4.212   0.920  14.576  0.7073 -1.7337 -0.2527
 3982TIP3    H233362   4.302   1.041  14.565 -1.7298  0.2809  0.9173
 3983TIP3   OH233363   1.596   3.956   6.420 -0.4298 -0.5201  0.1023
 3983TIP3    H133364   1.543   3.914   6.488 -0.1318 -1.3499 -0.1668
 3983TIP3    H233365   1.666   4.000   6.467  0.2144 -1.7150  0.3163
 3984TIP3   OH233366   0.884   5.309   2.413 -0.2556  0.0154  0.4375
 3984TIP3    H133367   0.887   5.399   2.447  0.3657  0.4572 -0.7271
 3984TIP3    H233368   0.797   5.278   2.437 -0.0426  0.4720  1.9464
 3985TIP3   OH233369   4.367   5.942  15.836  0.0889  0.2580 -1.0173
 3985TIP3    H133370   4.404   5.993  15.908 -1.2702 -0.0534 -0.0485
 3985TIP3    H233371   4.416   5.969  15.759  0.2655  2.0660 -0.3119
 3986TIP3   OH233372   6.248   4.655  10.806  0.0998  0.0182 -0.9095
 3986TIP3    H133373   6.283   4.744  10.806  0.8119 -0.2487 -2.0689
 3986TIP3    H233374   6.198   4.649  10.888  0.0278  1.4806 -0.8241
 3987TIP3   OH233375   5.351   5.423   4.631 -0.4964  0.1347 -0.2888
 3987TIP3    H133376   5.351   5.432   4.727 -0.8320  0.1061 -0.2867
 3987TIP3    H233377   5.419   5.358   4.614  0.3733  0.9763 -0.1528
 3988TIP3   OH233378   4.553   4.823   6.467 -0.4065  0.6227 -0.7007
 3988TIP3    H133379   4.537   4.802   6.559  1.3525  0.8471 -0.3122
 3988TIP3    H233380   4.518   4.912   6.456 -0.0905  0.8243 -0.0931
 3989TIP3   OH233381   5.539   1.375   0.462  0.3874 -0.1811 -0.2215
 3989TIP3    H133382   5.539   1.392   0.368 -0.7504 -1.5231 -0.5007
 3989TIP3    H233383   5.578   1.288   0.471  1.8871  0.5351  0.7201
 3990TIP3   OH233384   3.626   5.261  14.644  0.4929 -0.7615  0.2470
 3990TIP3    H133385   3.570   5.277  14.720 -0.2633 -3.2050  0.2649
 3990TIP3    H233386   3.570   5.213  14.583  1.6499 -0.4601 -1.0831
 3991TIP3   OH233387   5.258   1.340   5.819  0.7343 -0.3369  0.0452
 3991TIP3    H133388   5.329   1.284   5.788 -0.5333 -0.7185 -2.4406
 3991TIP3    H233389   5.287   1.429   5.798  1.2537 -0.3089  0.8130
 3992TIP3   OH233390   1.815   3.702  15.077  0.6479 -0.2081  0.2229
 3992TIP3    H133391   1.807   3.780  15.022  1.6299 -0.3124 -0.0985
 3992TIP3    H233392   1.756   3.638  15.038 -1.1091  0.7273  1.1970
 3993TIP3   OH233393   0.317   4.355  13.784  0.2385 -0.2136  0.4472
 3993TIP3    H133394   0.262   4.433  13.790  0.1170 -0.2091 -0.4994
 3993TIP3    H233395   0.384   4.379  13.720  0.5392 -0.6842  0.5863
 3994TIP3   OH233396   6.637   6.641   3.274  0.1620  0.5264  0.6648
 3994TIP3    H133397   6.558   6.588   3.283 -1.5599  3.2126  2.9959
 3994TIP3    H233398   6.620   6.698   3.199  0.4035  0.3156  0.4480
 3995TIP3   OH233399   6.320   0.876  16.517  0.7610 -0.5319 -0.0567
 3995TIP3    H133400   6.342   0.916  16.602 -0.2716  1.4235 -0.6340
 3995TIP3    H233401   6.392   0.901  16.460  0.9239 -0.9163 -0.0178
 3996TIP3   OH233402   3.484   5.239   2.104 -0.1288  0.0742 -0.6819
 3996TIP3    H133403   3.431   5.170   2.064  0.6163 -1.1875  0.4391
 3996TIP3    H233404   3.556   5.253   2.042  0.3865 -1.0411 -0.3511
 3997TIP3   OH233405   0.924   2.418  16.981  0.4303  0.1031 -0.2765
 3997TIP3    H133406   0.964   2.464  17.054  1.5719  0.3944 -1.0646
 3997TIP3    H233407   0.995   2.368  16.941 -0.3097 -0.5695 -0.7971
 3998TIP3   OH233408   3.638   5.517   1.668  0.7063  0.4851  0.1315
 3998TIP3    H133409   3.605   5.510   1.758  0.3280 -0.9619 -0.1046
 3998TIP3    H233410   3.695   5.441   1.657  0.1956  0.2631 -1.0889
 3999TIP3   OH233411   4.153   5.892   5.258 -0.1530 -0.3185  0.0453
 3999TIP3    H133412   4.205   5.855   5.329  0.6600 -0.6726 -0.7318
 3999TIP3    H233413   4.162   5.831   5.186 -0.5434  0.3055 -0.5484
 4000TIP3   OH233414   3.271   5.332   1.158  0.1737 -0.4127 -0.5571
 4000TIP3    H133415   3.343   5.272   1.180  0.6183 -0.0417 -0.9712
 4000TIP3    H233416   3.210   5.324   1.231  1.4687  0.5669  0.6932
 4001TIP3   OH233417   1.026   3.583  12.098 -0.1086 -0.3973  0.0473
 4001TIP3    H133418   0.994   3.654  12.043  0.2281 -0.9875 -0.9391
 4001TIP3    H233419   0.975   3.590  12.179  0.1661  1.1598  0.1099
 4002TIP3   OH233420   4.950   1.280   1.964  0.3233  0.5167 -0.3116
 4002TIP3    H133421   5.034   1.240   1.983  0.4229  0.6701 -0.4186
 4002TIP3    H233422   4.932   1.256   1.873 -0.9892 -1.6991  0.4580
 4003TIP3   OH233423   0.041   0.279   3.409  0.3990 -0.0091 -0.0990
 4003TIP3    H133424   0.136   0.275   3.424  0.1902  0.1386  1.4535
 4003TIP3    H233425   0.022   0.372   3.399  0.3795 -0.0227 -0.1951
 4004TIP3   OH233426   1.283   1.133  11.057  0.0108  0.5059  0.5085
 4004TIP3    H133427   1.325   1.089  11.131  0.5891  0.2211  0.0225
 4004TIP3    H233428   1.344   1.203  11.033  1.0893 -0.9511 -1.2720
 4005TIP3   OH233429   4.393   4.814  15.495  0.1459  0.3761  0.5143
 4005TIP3    H133430   4.302   4.796  15.518  0.2408 -0.6296  0.1601
 4005TIP3    H233431   4.411   4.755  15.421  1.2059  0.2634  0.8528
 4006TIP3   OH233432   4.974   0.959  17.132  0.5539 -0.0195  0.1292
 4006TIP3    H133433   4.992   0.916  17.215  0.9033 -0.2873 -0.0807
 4006TIP3    H233434   4.881   0.945  17.117  0.1570  1.3150  1.1915
 4007TIP3   OH233435   5.390   3.649  16.832  0.0314 -0.4302  0.0438
 4007TIP3    H133436   5.454   3.613  16.893 -0.0101  0.6321  0.7636
 4007TIP3    H233437   5.402   3.744  16.839  0.1173 -0.2804 -1.7286
 4008TIP3   OH233438   5.431   5.911   2.383  0.1986 -0.1207 -0.2885
 4008TIP3    H133439   5.505   5.886   2.439 -0.1617  0.3150  0.4021
 4008TIP3    H233440   5.416   6.003   2.403 -0.3553 -0.1351 -0.6276
 4009TIP3   OH233441   2.059   0.459   3.422  0.2519  0.7725 -0.3886
 4009TIP3    H133442   2.131   0.443   3.362  0.4769  0.9837 -0.1794
 4009TIP3    H233443   2.084   0.539   3.469 -0.7133  1.5926 -1.2231
 4010TIP3   OH233444   5.319   1.995  12.486  0.3615 -0.1367  0.6156
 4010TIP3    H133445   5.401   1.973  12.530  0.3052 -1.4087  0.1364
 4010TIP3    H233446   5.300   1.918  12.432 -0.6382  0.5456 -0.0296
 4011TIP3   OH233447   6.597   3.018  11.620 -0.4832 -0.4239  0.1379
 4011TIP3    H133448   6.550   3.098  11.599 -0.3812 -0.2847  0.4418
 4011TIP3    H233449   6.649   3.039  11.698  1.3636 -0.0642 -1.1243
 4012TIP3   OH233450   1.221   4.465   6.370 -0.4746 -0.6970  0.1360
 4012TIP3    H133451   1.203   4.449   6.277  1.8518 -0.2785 -0.4524
 4012TIP3    H233452   1.265   4.386   6.400  0.6484 -0.0257  0.3055
 4013TIP3   OH233453   4.404   4.420   2.798  0.2684 -0.0360 -0.9450
 4013TIP3    H133454   4.467   4.362   2.841  0.0972  0.9808  0.7685
 4013TIP3    H233455   4.457   4.493   2.765  0.1933 -0.0374 -1.0711
 4014TIP3   OH233456   1.991   3.077  13.479  0.3105  0.3423  0.1915
 4014TIP3    H133457   1.920   3.115  13.531  0.7408  1.6126 -0.1255
 4014TIP3    H233458   1.980   3.114  13.392  0.8416 -0.1525 -0.0955
 4015TIP3   OH233459   4.511   2.890  17.337  0.0977 -0.0967 -0.2000
 4015TIP3    H133460   4.453   2.949  17.290 -2.8050 -0.5300  2.5083
 4015TIP3    H233461   4.577   2.947  17.376 -0.7404  0.9404 -0.2634
 4016TIP3   OH233462   0.930   5.388   0.192 -0.0194 -0.0471  0.1562
 4016TIP3    H133463   1.013   5.340   0.185  0.4424  0.5123  1.4039
 4016TIP3    H233464   0.869   5.339   0.138  1.4527  0.2815 -1.9559
 4017TIP3   OH233465   1.456   3.815   3.035 -0.3707  0.4168 -0.7141
 4017TIP3    H133466   1.452   3.773   2.948  0.4999 -0.2126 -0.4641
 4017TIP3    H233467   1.538   3.784   3.072  0.0512  1.9867 -0.3036
 4018TIP3   OH233468   2.213   2.438   0.411 -0.1539 -0.0377 -0.3308
 4018TIP3    H133469   2.230   2.508   0.348  0.4287  0.7330  0.6477
 4018TIP3    H233470   2.238   2.476   0.495  2.2725 -2.1084 -0.0058
 4019TIP3   OH233471   1.328   2.532   2.764 -0.4369  0.1766 -0.0703
 4019TIP3    H133472   1.293   2.448   2.734  2.0649 -0.4875 -1.3773
 4019TIP3    H233473   1.361   2.574   2.685  0.3933  1.3845  0.8810
 4020TIP3   OH233474   3.289   1.924   5.817  0.0476 -0.2169 -0.9371
 4020TIP3    H133475   3.287   2.020   5.813 -2.3095 -0.0796  1.0910
 4020TIP3    H233476   3.354   1.904   5.884  0.1213  0.0011 -0.9426
 4021TIP3   OH233477   0.026   5.541   1.663  0.3936 -0.3716  0.1015
 4021TIP3    H133478   0.053   5.523   1.753  1.7960 -3.7227 -0.8241
 4021TIP3    H233479  -0.066   5.515   1.659  0.8916 -2.2498  0.1450
 4022TIP3   OH233480   4.100   2.457  11.342 -0.0015 -0.1975 -0.5020
 4022TIP3    H133481   4.180   2.420  11.304 -1.7584 -2.4580 -2.2575
 4022TIP3    H233482   4.046   2.480  11.267 -0.0991  3.7990  0.5809
 4023TIP3   OH233483   5.235   0.235  13.526 -0.3022  0.3080 -0.9024
 4023TIP3    H133484   5.216   0.180  13.601  1.1583  0.8270 -0.1183
 4023TIP3    H233485   5.175   0.204  13.458 -1.2133 -0.5904  0.2604
 4024TIP3   OH233486   0.523   5.798  13.591  0.5656  0.2324  0.8932
 4024TIP3    H133487   0.454   5.804  13.525 -0.0661 -0.4774  1.4893
 4024TIP3    H233488   0.582   5.731  13.558 -0.6404 -1.3626  1.8310
 4025TIP3   OH233489   2.862   6.515   3.371 -0.6870 -0.4398  0.7328
 4025TIP3    H133490   2.925   6.587   3.378 -1.4162  0.2521  0.3583
 4025TIP3    H233491   2.846   6.506   3.277 -0.0198 -1.6182  0.7191
 4026TIP3   OH233492   1.363   2.967   4.247 -0.1753  0.2176 -0.0494
 4026TIP3    H133493   1.337   3.054   4.217  0.7921  0.6204  0.2637
 4026TIP3    H233494   1.351   2.911   4.170 -1.0219  0.5646 -0.1860
 4027TIP3   OH233495   1.746   5.483  14.905 -0.1108  0.1212 -0.2705
 4027TIP3    H133496   1.835   5.507  14.881 -0.2140 -0.1182 -0.8845
 4027TIP3    H233497   1.751   5.392  14.933 -0.3230 -0.1751 -1.1826
 4028TIP3   OH233498   3.088   1.507  12.067 -0.2070 -0.5933  0.4419
 4028TIP3    H133499   3.098   1.458  12.148 -1.0103  0.8565  1.4625
 4028TIP3    H233500   3.111   1.597  12.090 -1.1944 -0.0120 -0.7340
 4029TIP3   OH233501   1.470   6.004   0.886  0.3138 -0.1489 -0.0811
 4029TIP3    H133502   1.449   6.006   0.793 -0.7997 -1.0951  0.1295
 4029TIP3    H233503   1.407   6.064   0.927  1.1800  0.7219  0.0119
 4030TIP3   OH233504   5.112   1.235  16.741 -0.3026  0.3546 -0.3834
 4030TIP3    H133505   5.140   1.307  16.684  2.2432  0.3849  0.7922
 4030TIP3    H233506   5.085   1.277  16.822  1.3363  0.0255  0.3630
 4031TIP3   OH233507   5.512   5.690  16.769 -0.0374 -0.6104  0.4263
 4031TIP3    H133508   5.488   5.631  16.697  0.0815 -0.8215  0.5588
 4031TIP3    H233509   5.570   5.638  16.824  0.7724 -0.1000  0.0817
 4032TIP3   OH233510   5.603   3.242   2.484  0.2070  0.2154 -0.5243
 4032TIP3    H133511   5.532   3.221   2.423  0.0551  3.0662 -1.5264
 4032TIP3    H233512   5.674   3.272   2.427  0.0277  3.0532  0.5924
 4033TIP3   OH233513   6.703   1.713   0.791 -0.1205 -0.1077 -0.4751
 4033TIP3    H133514   6.699   1.617   0.795 -1.0667 -0.1257 -1.3477
 4033TIP3    H233515   6.787   1.735   0.832 -1.1142 -1.0999  2.3217
 4034TIP3   OH233516   5.447   5.326  16.059  0.6214 -0.3144  0.5495
 4034TIP3    H133517   5.527   5.324  16.006  0.8596 -1.4688  0.9248
 4034TIP3    H233518   5.429   5.419  16.072 -0.4510  0.1450 -3.0827
 4035TIP3   OH233519   4.932   3.116   3.113 -0.4037 -0.0584 -0.3880
 4035TIP3    H133520   4.918   3.184   3.047  2.3965 -0.2197 -1.2703
 4035TIP3    H233521   4.952   3.037   3.063  1.6146 -0.2319  0.5811
 4036TIP3   OH233522   2.993   4.696   1.398 -0.1838 -0.2326  0.4088
 4036TIP3    H133523   2.982   4.716   1.305 -0.6454 -1.0039  0.2837
 4036TIP3    H233524   2.962   4.774   1.443  0.3969  0.2881 -0.0929
 4037TIP3   OH233525   6.234   6.384   4.290  0.4457 -0.3103  0.2447
 4037TIP3    H133526   6.316   6.396   4.241  0.2887 -0.7745 -0.1433
 4037TIP3    H233527   6.200   6.473   4.301  0.2848 -0.2200 -0.8501
 4038TIP3   OH233528   4.472   5.613   0.958 -0.4646 -0.3826 -0.4411
 4038TIP3    H133529   4.489   5.698   0.919  1.7542 -0.5388  0.0416
 4038TIP3    H233530   4.497   5.550   0.890  0.2330 -0.6391  0.0442
 4039TIP3   OH233531   2.849   5.679  12.320 -0.6166  0.1999 -0.0915
 4039TIP3    H133532   2.787   5.706  12.251 -1.2920 -0.2223  0.3442
 4039TIP3    H233533   2.816   5.721  12.399 -1.7544 -1.9017  0.6363
 4040TIP3   OH233534   2.126   1.158  15.345  0.3845  0.1848  0.0495
 4040TIP3    H133535   2.049   1.146  15.401  1.1210 -1.1277  0.8526
 4040TIP3    H233536   2.194   1.106  15.388  1.5686  0.8771 -0.9375
 4041TIP3   OH233537   6.691   1.709   0.010 -0.1323  0.9626 -0.6015
 4041TIP3    H133538   6.734   1.679   0.090 -0.7586  4.1520  1.1120
 4041TIP3    H233539   6.750   1.776  -0.025  0.0921 -0.3142 -2.8683
 4042TIP3   OH233540   0.210   1.114   0.262 -0.6320  0.3956 -0.4633
 4042TIP3    H133541   0.219   1.023   0.234 -0.6235  0.2471  0.0193
 4042TIP3    H233542   0.138   1.113   0.325 -0.4848  0.6895 -0.2901
 4043TIP3   OH233543   3.370   0.314  12.583 -0.1101 -0.3155 -0.4564
 4043TIP3    H133544   3.391   0.405  12.561  0.1300 -0.3381 -0.3250
 4043TIP3    H233545   3.421   0.296  12.662 -0.9574 -0.2405  0.1136
 4044TIP3   OH233546   0.002   5.183   0.296 -1.0563  0.1759 -0.3261
 4044TIP3    H133547   0.075   5.161   0.355 -1.1162  1.8790  0.4457
 4044TIP3    H233548  -0.056   5.238   0.349 -1.0211  1.9374 -1.9880
 4045TIP3   OH233549   1.239   2.928  16.748  0.1867 -0.1769 -0.1520
 4045TIP3    H133550   1.169   2.964  16.694  0.1686 -1.5512 -1.1063
 4045TIP3    H233551   1.223   2.833  16.749  1.3600 -0.3986  0.5853
 4046TIP3   OH233552   2.617   5.336   5.231  0.2704  0.0674 -0.4006
 4046TIP3    H133553   2.571   5.283   5.296  1.0842  0.1757  0.2789
 4046TIP3    H233554   2.549   5.362   5.169 -0.3451 -0.8247 -0.1134
 4047TIP3   OH233555   2.850   4.612   2.304 -0.5649 -0.1795  0.2395
 4047TIP3    H133556   2.852   4.621   2.209  1.3193  0.7831  0.3251
 4047TIP3    H233557   2.793   4.682   2.334  0.2721  0.6749 -0.1079
 4048TIP3   OH233558   1.417   4.625  14.572 -0.8472  0.5859 -0.2264
 4048TIP3    H133559   1.392   4.673  14.493  0.1833 -0.6797 -1.3878
 4048TIP3    H233560   1.361   4.547  14.570 -1.0445  0.7065  0.4813
 4049TIP3   OH233561   5.997   3.796   6.340 -0.6703 -0.3155 -0.5229
 4049TIP3    H133562   6.045   3.804   6.423 -0.1623 -1.0376 -0.7360
 4049TIP3    H233563   5.986   3.885   6.309 -2.4018  0.1404  1.1825
 4050TIP3   OH233564   4.421   0.835  14.360 -0.5429  0.2260 -0.2356
 4050TIP3    H133565   4.387   0.746  14.369 -0.4412  0.3292  1.5624
 4050TIP3    H233566   4.346   0.892  14.376 -0.9152  0.5301 -2.6840
 4051TIP3   OH233567   5.530   4.350  12.725  0.8687 -0.4641 -0.3354
 4051TIP3    H133568   5.490   4.436  12.707  2.2508  0.1723 -0.4788
 4051TIP3    H233569   5.463   4.303  12.776 -0.4591  0.1730 -1.4092
 4052TIP3   OH233570   1.651   3.496   4.431 -0.2978 -0.2737  0.4720
 4052TIP3    H133571   1.603   3.415   4.414  3.5485 -2.9486  0.8888
 4052TIP3    H233572   1.679   3.490   4.522  0.7743  1.1041  0.2820
 4053TIP3   OH233573   5.307   2.697   2.592 -0.0492  0.0486 -0.1118
 4053TIP3    H133574   5.273   2.673   2.678 -0.8188  0.4930 -0.2825
 4053TIP3    H233575   5.234   2.680   2.532  0.7486 -1.0444 -0.8053
 4054TIP3   OH233576   6.306   1.037   2.561  0.1002  0.0164  0.1601
 4054TIP3    H133577   6.360   1.087   2.623  0.4520 -0.6571  0.4104
 4054TIP3    H233578   6.272   1.102   2.501  2.3049  0.3244 -0.8447
 4055TIP3   OH233579   0.761   5.160   3.019 -0.3605 -0.1358 -0.7233
 4055TIP3    H133580   0.760   5.236   2.962 -0.1426 -1.1645 -2.1394
 4055TIP3    H233581   0.707   5.185   3.094  0.5167  1.7490 -0.6708
 4056TIP3   OH233582   4.199   1.951  12.089 -0.4630 -0.2366 -0.0315
 4056TIP3    H133583   4.175   1.962  12.181  0.2412 -0.2728  0.1631
 4056TIP3    H233584   4.188   1.857  12.072  1.1688 -0.5755  0.5502
 4057TIP3   OH233585   0.549   4.233   0.045  0.0982  0.3740  0.2573
 4057TIP3    H133586   0.454   4.224   0.041 -0.1229  1.8342  1.0844
 4057TIP3    H233587   0.568   4.237   0.139  0.8480  1.0209  0.0908
 4058TIP3   OH233588   2.438   0.798  15.156 -0.7516  0.2749 -0.3913
 4058TIP3    H133589   2.495   0.777  15.229 -1.3263  0.3601  0.0904
 4058TIP3    H233590   2.485   0.767  15.079  0.5622  1.5999 -0.1558
 4059TIP3   OH233591   1.948   5.102   1.673  0.2131 -0.0650  0.0810
 4059TIP3    H133592   1.951   5.189   1.713 -0.1258 -0.5115  1.0892
 4059TIP3    H233593   1.904   5.047   1.737  0.2714 -0.9538 -0.6224
 4060TIP3   OH233594   0.458   3.985   0.468 -0.5562 -0.1714 -0.0479
 4060TIP3    H133595   0.454   3.896   0.433 -0.0535 -0.2581  0.1024
 4060TIP3    H233596   0.455   3.975   0.563 -1.2375  0.0226 -0.0438
 4061TIP3   OH233597   0.273   6.390  12.284  0.4831  0.2846  0.5469
 4061TIP3    H133598   0.338   6.426  12.224  0.5461 -1.7902 -0.7007
 4061TIP3    H233599   0.259   6.301  12.254 -2.1250  0.3041  1.4541
 4062TIP3   OH233600   3.127   4.450  14.072 -0.3245 -0.0230  0.2941
 4062TIP3    H133601   3.215   4.472  14.040 -0.7953  0.9329 -0.3995
 4062TIP3    H233602   3.142   4.409  14.157  0.8891 -1.4739 -0.5793
 4063TIP3   OH233603   2.724   3.882  13.841  0.0302  0.1833  0.3042
 4063TIP3    H133604   2.644   3.831  13.854  0.8753 -0.8630  1.7695
 4063TIP3    H233605   2.755   3.856  13.755 -1.4187  0.9499 -0.4850
 4064TIP3   OH233606   1.221   1.102   2.313  0.0732 -0.0357  0.4835
 4064TIP3    H133607   1.160   1.105   2.387 -0.5833  1.7369 -0.0832
 4064TIP3    H233608   1.300   1.061   2.349 -0.7269 -0.5040  1.7772
 4065TIP3   OH233609   2.278   5.606   1.212 -0.8815  0.5059 -0.1053
 4065TIP3    H133610   2.335   5.652   1.151 -0.8209  0.6877  0.0863
 4065TIP3    H233611   2.232   5.542   1.159 -0.1796  0.0648 -0.1910
 4066TIP3   OH233612   3.480   4.937  13.826 -0.6651  0.2624  0.1595
 4066TIP3    H133613   3.568   4.902  13.816 -1.0132 -0.6319  0.2019
 4066TIP3    H233614   3.465   4.985  13.745  0.0675  0.9088  0.3889
 4067TIP3   OH233615   3.630   0.825  13.731 -0.3662  0.1421 -0.6836
 4067TIP3    H133616   3.559   0.848  13.671 -0.5908 -0.4393 -0.6532
 4067TIP3    H233617   3.704   0.806  13.673 -0.0692  1.2875 -0.6905
 4068TIP3   OH233618   4.266   1.537  11.654  0.3968 -0.0154  0.4322
 4068TIP3    H133619   4.288   1.474  11.723  0.9015 -2.4120 -1.7603
 4068TIP3    H233620   4.177   1.566  11.676 -0.4102 -2.5661  0.8678
 4069TIP3   OH233621   5.345   2.642   3.453  0.2293 -0.5320  0.5091
 4069TIP3    H133622   5.428   2.612   3.489 -0.0707 -0.0411  1.6575
 4069TIP3    H233623   5.356   2.737   3.443  0.2760 -0.6454 -0.6401
 4070TIP3   OH233624   1.729   1.315   2.774  0.1887 -0.1667 -0.2552
 4070TIP3    H133625   1.770   1.361   2.701 -0.2015  2.2594  0.9379
 4070TIP3    H233626   1.800   1.267   2.815  1.0775  0.9437 -0.4298
 4071TIP3   OH233627   4.999   3.913   1.104 -0.1870  0.3295 -0.0094
 4071TIP3    H133628   5.021   3.908   1.011 -0.2805 -0.7430  0.0179
 4071TIP3    H233629   5.059   3.851   1.146  0.8833  1.8732  0.8579
 4072TIP3   OH233630   4.363   2.392  14.001  0.4458  0.5426  0.0419
 4072TIP3    H133631   4.318   2.308  13.989  1.1273  0.3597 -1.5176
 4072TIP3    H233632   4.442   2.385  13.948  1.2907  1.6183  1.1144
 4073TIP3   OH233633   2.164   3.887   1.358  0.0153 -0.2534  0.3686
 4073TIP3    H133634   2.203   3.874   1.445 -0.5477 -1.4315  0.4561
 4073TIP3    H233635   2.086   3.939   1.375 -0.3538 -0.8882  0.6336
 4074TIP3   OH233636   5.051   0.322  13.248  0.8415  0.2270  0.3458
 4074TIP3    H133637   5.056   0.235  13.209 -0.3045  0.9742 -1.6452
 4074TIP3    H233638   5.001   0.310  13.329 -0.7319 -0.7628 -0.7219
 4075TIP3   OH233639   5.380   0.855  13.253 -0.5141 -0.2525  0.8123
 4075TIP3    H133640   5.453   0.860  13.192  0.7923  1.0334  2.3765
 4075TIP3    H233641   5.302   0.851  13.198  0.7132 -1.5707 -0.9086
 4076TIP3   OH233642   1.937   6.630  15.425 -0.9842 -0.2329 -0.7730
 4076TIP3    H133643   1.962   6.700  15.485  1.4580 -0.4843 -1.3810
 4076TIP3    H233644   2.004   6.563  15.437 -1.2124 -0.8920 -2.7857
 4077TIP3   OH233645   0.506   5.122   1.371  0.1795 -0.6826  0.3796
 4077TIP3    H133646   0.487   5.170   1.291 -0.1404 -1.8816 -0.2998
 4077TIP3    H233647   0.599   5.136   1.387  0.1528 -0.1010  0.0300
 4078TIP3   OH233648   5.770   4.403   1.829  0.1314 -0.1273  0.2286
 4078TIP3    H133649   5.772   4.484   1.882 -0.4802  1.0118 -1.4027
 4078TIP3    H233650   5.679   4.374   1.835  0.8939 -2.5021  3.2486
 4079TIP3   OH233651   2.113   4.375  12.230  0.0752  0.7126  0.0257
 4079TIP3    H133652   2.038   4.319  12.209  0.1806  0.1062  1.1907
 4079TIP3    H233653   2.083   4.428  12.304  1.3638 -0.8595  1.7672
 4080TIP3   OH233654   6.231   1.503  11.289 -0.4005 -0.2858 -0.0923
 4080TIP3    H133655   6.216   1.432  11.351  0.0396  0.3105  0.7102
 4080TIP3    H233656   6.154   1.503  11.233 -0.9069 -0.7002  0.5945
 4081TIP3   OH233657   1.045   1.184   5.410  0.8245 -0.2202 -0.3617
 4081TIP3    H133658   1.054   1.278   5.394 -1.2327  0.0775 -0.0559
 4081TIP3    H233659   1.022   1.147   5.325 -2.2896  0.2066  0.1715
 4082TIP3   OH233660   1.532   6.572  16.443 -0.3183  0.3059  0.4529
 4082TIP3    H133661   1.624   6.596  16.458 -0.4212  0.2995  1.1183
 4082TIP3    H233662   1.487   6.600  16.523 -0.6257 -1.1294  0.8152
 4083TIP3   OH233663   5.358   6.658  13.736  0.0850 -0.2842  0.5228
 4083TIP3    H133664   5.404   6.597  13.794  0.0698 -1.0064 -0.2264
 4083TIP3    H233665   5.408   6.657  13.655  1.1123  2.0172  1.0446
 4084TIP3   OH233666   4.618   5.416   3.416 -0.2880 -0.0658  0.2153
 4084TIP3    H133667   4.675   5.391   3.489 -1.0025  0.2827  0.9136
 4084TIP3    H233668   4.677   5.455   3.352  0.4795 -1.1937  0.2082
 4085TIP3   OH233669   6.138   4.484   0.220 -0.2664  0.2519 -0.6106
 4085TIP3    H133670   6.097   4.484   0.133  0.5040  0.0428 -0.9866
 4085TIP3    H233671   6.119   4.398   0.256  0.9616 -0.3523 -1.3428
 4086TIP3   OH233672   2.904   1.159   4.000  0.2586  0.0938 -0.2850
 4086TIP3    H133673   2.916   1.248   4.031 -1.4698  0.5683 -0.8492
 4086TIP3    H233674   2.822   1.162   3.950 -0.3130 -1.9919  0.4087
 4087TIP3   OH233675   0.358   1.817  11.385 -0.5507  0.0302 -0.3176
 4087TIP3    H133676   0.388   1.812  11.476  0.6424 -0.9071 -0.7304
 4087TIP3    H233677   0.437   1.802  11.333 -1.1397  0.9752 -1.5255
 4088TIP3   OH233678   6.712   3.015   5.666  0.3482  0.9659 -0.3435
 4088TIP3    H133679   6.699   2.942   5.727 -0.0130  1.6183  0.3907
 4088TIP3    H233680   6.624   3.036   5.635  0.4887  0.8840 -0.8032
 4089TIP3   OH233681   0.736   1.062  16.193  0.1334  0.2753  0.2029
 4089TIP3    H133682   0.752   1.148  16.232 -0.8010  0.0073  1.2040
 4089TIP3    H233683   0.676   1.080  16.120  2.2927  0.8464 -1.5627
 4090TIP3   OH233684   2.965   4.696  15.101 -0.3081  0.0388 -0.5969
 4090TIP3    H133685   2.909   4.699  15.179 -0.2513  0.7320 -0.5731
 4090TIP3    H233686   2.908   4.723  15.029 -0.4225 -0.8303 -0.8430
 4091TIP3   OH233687   4.401   0.877   1.266  0.2444 -0.4632 -0.6309
 4091TIP3    H133688   4.371   0.881   1.175  0.4110 -1.0757 -0.7202
 4091TIP3    H233689   4.420   0.968   1.289 -1.6539 -0.0540 -0.5612
 4092TIP3   OH233690   5.567   1.702   6.243  0.1948 -0.2794  0.3632
 4092TIP3    H133691   5.566   1.776   6.304 -1.2534  1.1660 -1.3288
 4092TIP3    H233692   5.659   1.694   6.217  0.2445  1.4668 -0.0572
 4093TIP3   OH233693   5.606   4.238  14.942  0.5750  0.1343 -0.0493
 4093TIP3    H133694   5.586   4.189  15.021 -0.1371  2.5055  1.3570
 4093TIP3    H233695   5.685   4.289  14.965  0.1397  1.1378 -0.6854
 4094TIP3   OH233696   4.190   6.687   6.311  0.0494 -0.5050  0.3709
 4094TIP3    H133697   4.234   6.693   6.226 -1.9292 -0.4708 -0.7051
 4094TIP3    H233698   4.227   6.609   6.351  2.4525  0.5445  0.3901
 4095TIP3   OH233699   2.738   0.579  11.746 -0.0560  0.6603 -0.2657
 4095TIP3    H133700   2.700   0.658  11.785 -1.9405  0.8089 -2.2269
 4095TIP3    H233701   2.827   0.604  11.722  0.4711  1.1571  1.9956
 4096TIP3   OH233702   0.950   0.620  12.939  0.5410  0.2973  0.1760
 4096TIP3    H133703   0.898   0.623  12.859  0.3531  1.7806  0.3224
 4096TIP3    H233704   0.993   0.535  12.936 -4.0195 -2.4457  1.4296
 4097TIP3   OH233705   1.953   3.792  14.026 -0.3156 -0.3133 -0.1629
 4097TIP3    H133706   2.023   3.827  14.080  1.4308 -2.3630 -0.9592
 4097TIP3    H233707   1.899   3.741  14.086  0.4979 -0.9971 -0.0004
 4098TIP3   OH233708   3.788   5.037  15.524 -0.3216  0.3730 -0.3469
 4098TIP3    H133709   3.850   5.110  15.526  1.4947 -1.0668 -0.5077
 4098TIP3    H233710   3.812   4.988  15.445 -0.8084 -0.9279  0.2874
 4099TIP3   OH233711   5.103   3.453   6.108 -0.0783  0.6248 -0.3072
 4099TIP3    H133712   5.169   3.503   6.061 -1.0012  1.0019 -1.2506
 4099TIP3    H233713   5.086   3.502   6.188  0.0032  1.0959 -0.5803
 4100TIP3   OH233714   3.736   0.763   5.546  0.2346  0.3084  0.0134
 4100TIP3    H133715   3.679   0.795   5.615  1.2931  1.1826  0.5101
 4100TIP3    H233716   3.713   0.816   5.469  0.3678  0.6589  0.2124
 4101TIP3   OH233717   6.284   5.814  15.491 -0.3026  0.1098  0.1049
 4101TIP3    H133718   6.368   5.809  15.535 -0.9845  1.0434  1.5859
 4101TIP3    H233719   6.305   5.801  15.398  1.4486  0.2860  0.4407
 4102TIP3   OH233720   2.899   2.727   0.462 -0.6254 -0.1773 -0.1121
 4102TIP3    H133721   2.975   2.783   0.474 -0.8145  0.5540 -1.9519
 4102TIP3    H233722   2.844   2.743   0.539  0.4305  0.3036  0.5630
 4103TIP3   OH233723   3.781   1.366  12.771  0.4786  0.6146 -0.4347
 4103TIP3    H133724   3.797   1.297  12.836 -0.4928  0.9882  0.2352
 4103TIP3    H233725   3.736   1.321  12.700 -0.1612  0.5370  0.0051
 4104TIP3   OH233726   1.508   1.795   2.468 -0.0925 -0.6150  0.0634
 4104TIP3    H133727   1.528   1.856   2.397 -1.0909 -0.2500  0.0759
 4104TIP3    H233728   1.545   1.712   2.439  0.6808 -0.1702 -0.2705
 4105TIP3   OH233729   0.055   3.508  11.783  0.2337 -0.3923 -0.3133
 4105TIP3    H133730   0.117   3.519  11.712  0.5036  3.8956  0.3220
 4105TIP3    H233731   0.108   3.510  11.862 -0.4398 -0.3980  0.1532
 4106TIP3   OH233732   0.841   4.789   4.805  0.1507  0.6344  0.2263
 4106TIP3    H133733   0.860   4.695   4.802  0.5148  0.6737 -3.4800
 4106TIP3    H233734   0.911   4.827   4.858 -0.7474 -1.2036  2.9719
 4107TIP3   OH233735   4.242   4.135  11.294  0.2649 -0.3044 -0.0860
 4107TIP3    H133736   4.241   4.206  11.358 -1.6638 -0.0801 -0.3001
 4107TIP3    H233737   4.222   4.178  11.211 -0.7300 -1.0542 -0.2461
 4108TIP3   OH233738   1.491   5.801   6.211  0.3145  0.6457 -0.5604
 4108TIP3    H133739   1.542   5.738   6.260 -0.5873 -0.2418 -0.7402
 4108TIP3    H233740   1.408   5.808   6.258 -0.5390 -0.1643 -1.8777
 4109TIP3   OH233741   0.095   2.442  14.165  0.1981  0.0446  0.1700
 4109TIP3    H133742   0.045   2.466  14.087  0.0693 -0.5345  0.0688
 4109TIP3    H233743   0.125   2.353  14.147 -0.2826 -0.2932  1.0001
 4110TIP3   OH233744   4.563   4.440   5.398 -0.3221 -0.3623  0.1361
 4110TIP3    H133745   4.632   4.431   5.332 -0.2749  2.0961 -0.2709
 4110TIP3    H233746   4.482   4.446   5.347 -0.6690 -1.5809  0.5174
 4111TIP3   OH233747   4.940   0.035  15.194 -0.1115  0.3608  0.2473
 4111TIP3    H133748   5.021   0.005  15.153 -0.8910 -0.8249 -0.4882
 4111TIP3    H233749   4.951   0.016  15.287  0.2519 -0.2632  0.0773
 4112TIP3   OH233750   0.812   4.901   2.032 -0.3057 -0.3530 -0.5254
 4112TIP3    H133751   0.775   4.974   2.082 -1.9699 -1.0143 -0.7336
 4112TIP3    H233752   0.820   4.935   1.943  1.3414  0.3731 -0.1300
 4113TIP3   OH233753   5.850   4.793   0.034 -0.0473  0.1145 -0.0020
 4113TIP3    H133754   5.881   4.703   0.040 -2.0909 -0.5663  1.5774
 4113TIP3    H233755   5.921   4.845   0.073  0.1736 -1.1085  1.3275
 4114TIP3   OH233756   3.786   0.090   4.216  0.1321  0.4564 -0.0741
 4114TIP3    H133757   3.799   0.166   4.272 -0.6675  0.8730 -0.4357
 4114TIP3    H233758   3.762   0.020   4.277 -0.0990  0.7437  0.1684
 4115TIP3   OH233759   3.302   4.074  16.345  0.2671  0.4002 -0.0672
 4115TIP3    H133760   3.390   4.042  16.363  0.7012  1.4297 -0.2590
 4115TIP3    H233761   3.290   4.061  16.251  0.1458  0.1041 -0.0118
 4116TIP3   OH233762   3.089   1.255  15.224 -0.5700 -0.2746 -0.3267
 4116TIP3    H133763   3.106   1.171  15.268 -0.1138 -0.1838 -0.3195
 4116TIP3    H233764   3.005   1.283  15.258 -1.1906 -1.2013 -1.0523
 4117TIP3   OH233765   6.442   3.445  11.593 -0.8302  0.5831  0.0767
 4117TIP3    H133766   6.492   3.524  11.574 -2.0070  1.3569  0.0515
 4117TIP3    H233767   6.438   3.398  11.510 -0.5284  0.7370 -0.0261
 4118TIP3   OH233768   0.169   3.798   2.792 -0.3931  0.5859 -0.0391
 4118TIP3    H133769   0.165   3.853   2.714 -0.2225  1.2178  0.3821
 4118TIP3    H233770   0.079   3.793   2.823 -0.5381 -0.0852 -0.5524
 4119TIP3   OH233771   3.114   2.931   3.402 -0.2546  0.1384  0.0985
 4119TIP3    H133772   3.152   2.861   3.455 -0.7267 -0.4427 -0.3238
 4119TIP3    H233773   3.179   3.002   3.406  1.8896 -1.5277 -2.2477
 4120TIP3   OH233774   4.000   3.895   0.821 -0.8509  0.3957 -0.0642
 4120TIP3    H133775   4.017   3.887   0.728  0.6896 -1.3969  0.3135
 4120TIP3    H233776   4.021   3.986   0.842  1.6827  0.0706 -0.9496
 4121TIP3   OH233777   6.105   1.158  17.070 -0.4386  0.0233  0.8378
 4121TIP3    H133778   6.062   1.092  17.017 -0.8047  1.4398 -0.7106
 4121TIP3    H233779   6.149   1.109  17.139 -0.4950 -1.8307 -0.3923
 4122TIP3   OH233780   1.513   4.047   3.422 -0.0803 -0.2616 -0.0164
 4122TIP3    H133781   1.426   4.088   3.418  0.1103  0.1036 -0.5573
 4122TIP3    H233782   1.497   3.954   3.408 -0.6129 -0.5299  2.0171
 4123TIP3   OH233783   1.003   6.070   4.035  0.3243  0.2604 -0.3060
 4123TIP3    H133784   0.958   6.041   3.956 -1.4648 -0.7525  1.0211
 4123TIP3    H233785   1.026   5.990   4.081  3.0889  0.7673 -0.6537
 4124TIP3   OH233786   6.634   0.026   6.711 -0.2004  0.3875 -0.4180
 4124TIP3    H133787   6.604  -0.056   6.671 -1.6710  0.9641 -0.5602
 4124TIP3    H233788   6.578   0.093   6.673 -0.2804  1.2249  1.0977
 4125TIP3   OH233789   6.405   6.516   4.577  0.2395 -0.2791  0.2538
 4125TIP3    H133790   6.330   6.520   4.636 -0.5642  0.4372 -0.7764
 4125TIP3    H233791   6.379   6.568   4.501  0.5119 -2.6198 -1.5683
 4126TIP3   OH233792   6.377   0.025   0.439  0.7321 -0.5055  0.7562
 4126TIP3    H133793   6.376   0.112   0.399 -0.6178 -0.5465  0.6734
 4126TIP3    H233794   6.470   0.008   0.455  1.6007 -1.1392 -3.6862
 4127TIP3   OH233795   1.804   1.082   0.805  0.3086  0.3019  0.3120
 4127TIP3    H133796   1.883   1.094   0.753 -0.4608  0.5662 -0.8136
 4127TIP3    H233797   1.742   1.145   0.770 -0.7241 -0.5504  0.5545
 4128TIP3   OH233798   2.651   6.747   3.731  0.6441  0.5134 -0.1071
 4128TIP3    H133799   2.646   6.831   3.777  1.5743  0.7695 -0.4413
 4128TIP3    H233800   2.614   6.683   3.792 -0.6582  1.2497 -0.1002
 4129TIP3   OH233801   5.456   4.294  14.083  0.3862 -0.0563 -0.0929
 4129TIP3    H133802   5.426   4.384  14.094  1.9028  0.3141  1.4247
 4129TIP3    H233803   5.378   4.246  14.055  0.0782  2.1539 -3.6894
 4130TIP3   OH233804   5.402   5.026   0.504 -0.3033  0.1650  0.1169
 4130TIP3    H133805   5.367   4.950   0.551 -0.3229  0.2282  0.2056
 4130TIP3    H233806   5.477   4.992   0.456 -0.7613 -0.0703 -0.4453
 4131TIP3   OH233807   4.922   6.528  11.808 -0.1280  0.2809 -0.0606
 4131TIP3    H133808   4.990   6.591  11.831  0.6618  0.1646 -1.9191
 4131TIP3    H233809   4.923   6.525  11.713 -3.0389  0.5609 -0.1946
 4132TIP3   OH233810   4.556   5.217   1.666 -0.1332  0.0004  0.1686
 4132TIP3    H133811   4.617   5.289   1.651 -0.8099  0.8497  1.3158
 4132TIP3    H233812   4.494   5.223   1.593  0.4320 -0.0987 -0.3262
 4133TIP3   OH233813   5.209   6.384   2.171 -0.4266 -0.0590  0.5231
 4133TIP3    H133814   5.233   6.468   2.134  1.3892  1.2403  4.1919
 4133TIP3    H233815   5.135   6.403   2.228 -0.1134 -0.9771  1.2587
 4134TIP3   OH233816   0.170   1.623   5.397 -0.3142 -0.0717  0.0768
 4134TIP3    H133817   0.181   1.670   5.314 -0.8375  0.3589  0.2451
 4134TIP3    H233818   0.109   1.553   5.376 -0.2899 -0.0869  0.0559
 4135TIP3   OH233819   5.826   5.409  15.262 -0.3734  0.0425 -0.0158
 4135TIP3    H133820   5.744   5.359  15.265  0.1881 -0.8540  0.5652
 4135TIP3    H233821   5.857   5.399  15.172 -1.7747  1.8595 -0.7736
 4136TIP3   OH233822   2.771   2.141   0.427 -0.1991  0.2017 -0.3406
 4136TIP3    H133823   2.706   2.073   0.447 -1.3608  1.3115 -0.1872
 4136TIP3    H233824   2.725   2.200   0.367  0.7449  0.9028 -0.3856
 4137TIP3   OH233825   4.525   5.443   2.848 -0.2697 -0.0353  0.1941
 4137TIP3    H133826   4.465   5.375   2.818 -1.5910  1.3597 -0.4677
 4137TIP3    H233827   4.472   5.522   2.850  0.7462  0.6837  2.6392
 4138TIP3   OH233828   1.250   6.229   0.262 -0.0549  0.3372 -0.2819
 4138TIP3    H133829   1.210   6.157   0.310 -0.5796 -0.3100 -1.6638
 4138TIP3    H233830   1.266   6.195   0.175 -0.0028  1.7781 -0.8713
 4139TIP3   OH233831   3.260   0.202   1.836  0.3444  0.2857  0.3790
 4139TIP3    H133832   3.327   0.135   1.828  0.6818  0.5216  1.1518
 4139TIP3    H233833   3.215   0.201   1.751 -0.5444 -1.8319  0.8006
 4140TIP3   OH233834   2.698   5.968   4.347 -0.2347 -0.5224 -0.0912
 4140TIP3    H133835   2.750   5.890   4.329 -0.5953 -0.6717 -0.5100
 4140TIP3    H233836   2.615   5.934   4.380 -1.2779 -0.4459 -2.4297
 4141TIP3   OH233837   3.718   6.372  10.446 -0.0884 -0.3248 -0.2588
 4141TIP3    H133838   3.696   6.417  10.528  1.6988 -0.8572  0.5816
 4141TIP3    H233839   3.687   6.283  10.459  1.2065 -0.7188  0.3723
 4142TIP3   OH233840   2.291   4.575   0.673  0.5313 -0.1702 -0.5428
 4142TIP3    H133841   2.346   4.613   0.605  0.4276  0.4030 -0.3046
 4142TIP3    H233842   2.342   4.500   0.706  1.5980  0.9117  0.3401
 4143TIP3   OH233843   1.673   5.967  16.144 -0.0751  0.1779  0.1927
 4143TIP3    H133844   1.648   6.038  16.204 -2.1196 -0.0163 -0.3526
 4143TIP3    H233845   1.683   5.891  16.201 -1.3231  0.1501  0.4134
 4144TIP3   OH233846   2.469   0.134   3.113  0.1599  0.8068 -0.1494
 4144TIP3    H133847   2.479   0.085   3.032 -0.1226  0.2692  0.1352
 4144TIP3    H233848   2.414   0.209   3.089  0.2393  0.7581 -0.4909
 4145TIP3   OH233849   6.450   1.129   3.974  0.3691  0.5368  0.4477
 4145TIP3    H133850   6.435   1.195   3.906 -0.1239 -0.3122 -0.2981
 4145TIP3    H233851   6.540   1.099   3.960  0.0534 -0.1189 -0.2998
 4146TIP3   OH233852   2.663   3.829   2.380  0.1901 -0.0711 -0.0630
 4146TIP3    H133853   2.719   3.875   2.318  0.5084 -1.9499 -1.2136
 4146TIP3    H233854   2.706   3.843   2.465  1.5682 -0.2127 -0.7070
 4147TIP3   OH233855   1.211   3.288   0.518  0.2301 -0.4013 -0.2830
 4147TIP3    H133856   1.253   3.203   0.506 -2.3566 -1.5940 -1.7027
 4147TIP3    H233857   1.194   3.293   0.612  1.4087 -0.9146 -0.0223
 4148TIP3   OH233858   1.370   6.166   3.495  0.1593  0.7092  0.0882
 4148TIP3    H133859   1.416   6.193   3.575  2.4512 -0.5318 -0.7119
 4148TIP3    H233860   1.286   6.132   3.526  0.6497  1.0334  1.8805
 4149TIP3   OH233861   1.992   3.141  15.937  0.0710 -0.1358 -0.2081
 4149TIP3    H133862   1.950   3.066  15.893  0.8179 -1.7881  1.7226
 4149TIP3    H233863   2.079   3.146  15.899  0.9680 -2.0049  1.3828
 4150TIP3   OH233864   6.494   3.333   6.698  0.1923  0.1230 -0.2997
 4150TIP3    H133865   6.409   3.296   6.721  0.3004  0.3492  0.4907
 4150TIP3    H233866   6.494   3.419   6.740  0.9797 -0.0446  0.0567
 4151TIP3   OH233867   0.622   5.897  15.331  0.0236 -0.6204 -0.3917
 4151TIP3    H133868   0.576   5.965  15.281  1.3172  0.1726 -0.5382
 4151TIP3    H233869   0.701   5.880  15.280  0.2087 -1.5187  0.1783
 4152TIP3   OH233870   5.898   2.428  14.740  0.9055  0.3417  0.0796
 4152TIP3    H133871   5.928   2.373  14.668  2.0447 -0.6241  1.2221
 4152TIP3    H233872   5.849   2.368  14.797  1.4074  0.6930  0.9049
 4153TIP3   OH233873   5.463   4.529  13.414  0.1107 -0.2991  0.4594
 4153TIP3    H133874   5.540   4.484  13.446 -1.3044 -3.0778  0.3129
 4153TIP3    H233875   5.401   4.526  13.487 -0.4175  0.3776  0.0513
 4154TIP3   OH233876   0.528   6.224  10.893 -0.6082 -0.3216 -0.2590
 4154TIP3    H133877   0.528   6.268  10.808 -0.9054  3.3822  1.4844
 4154TIP3    H233878   0.446   6.175  10.894 -0.5572 -0.5136 -2.0905
 4155TIP3   OH233879   1.785   3.488  12.009 -0.3055 -0.1462  0.2889
 4155TIP3    H133880   1.844   3.511  11.937  1.3160  1.2732  1.9542
 4155TIP3    H233881   1.739   3.409  11.979  1.2301 -0.3373 -1.7596
 4156TIP3   OH233882   5.423   4.055   0.223  0.1752  0.2450  0.0014
 4156TIP3    H133883   5.344   4.041   0.276 -0.4319  0.8215 -0.7201
 4156TIP3    H233884   5.489   4.085   0.286 -0.8289  1.9303  0.3168
 4157TIP3   OH233885   5.728   6.484  15.150  0.0027  0.0264  0.5886
 4157TIP3    H133886   5.662   6.449  15.089 -1.2206 -0.6772  2.2367
 4157TIP3    H233887   5.803   6.504  15.094 -0.6872 -1.5089 -1.0241
 4158TIP3   OH233888   5.578   5.215   4.721  0.5578 -0.3867  0.0544
 4158TIP3    H133889   5.590   5.196   4.814  0.7887 -0.5642 -0.0135
 4158TIP3    H233890   5.498   5.167   4.697 -0.0272  0.3897  0.3770
 4159TIP3   OH233891   1.235   2.809  11.190  0.2661  0.3726 -0.0728
 4159TIP3    H133892   1.314   2.757  11.173 -0.2531 -0.5212  0.1664
 4159TIP3    H233893   1.262   2.899  11.173  1.2251  0.0444 -0.3982
 4160TIP3   OH233894   4.628   1.632   0.664  0.3750 -0.4730 -0.0203
 4160TIP3    H133895   4.544   1.590   0.649  0.0352  0.2904 -0.2782
 4160TIP3    H233896   4.686   1.595   0.598  0.0400 -0.4311 -0.3381
 4161TIP3   OH233897   2.179   3.810   0.293  0.7620 -0.0186  0.2207
 4161TIP3    H133898   2.146   3.761   0.217  0.1668  0.0263  0.4462
 4161TIP3    H233899   2.129   3.893   0.291  1.2531  0.2792  0.2514
 4162TIP3   OH233900   2.416   4.765  15.311  0.2954  0.1766  0.0102
 4162TIP3    H133901   2.422   4.716  15.228 -1.1149  0.4656 -0.2931
 4162TIP3    H233902   2.431   4.856  15.286 -1.3412  0.4213 -0.1517
 4163TIP3   OH233903   5.850   4.098  15.582  0.3397  0.6941  0.1644
 4163TIP3    H133904   5.914   4.166  15.562 -0.9580  1.7812 -0.5025
 4163TIP3    H233905   5.861   4.033  15.513 -0.0762  1.4832 -0.6638
 4164TIP3   OH233906   5.680   2.559   2.163 -0.1518 -0.0609 -0.1528
 4164TIP3    H133907   5.768   2.581   2.193  0.0693 -2.8243  1.5325
 4164TIP3    H233908   5.623   2.585   2.236 -0.5099  0.0642 -0.4772
 4165TIP3   OH233909   1.106   6.178   3.564 -0.0773  0.5766  0.5685
 4165TIP3    H133910   1.048   6.115   3.606 -0.3922  0.5735  0.1416
 4165TIP3    H233911   1.047   6.240   3.522  0.0628 -1.3881 -2.9393
 4166TIP3   OH233912   3.698   5.429  17.171  0.0647 -0.1241 -0.0424
 4166TIP3    H133913   3.789   5.444  17.144  0.2821  0.1152  0.8098
 4166TIP3    H233914   3.651   5.507  17.143 -0.1051 -0.6635 -1.3887
 4167TIP3   OH233915   0.474   6.307  17.007 -0.2294 -0.0862  0.6512
 4167TIP3    H133916   0.467   6.234  16.945 -2.1165  1.0555 -0.5842
 4167TIP3    H233917   0.442   6.271  17.090 -0.4202 -0.8711  0.2496
 4168TIP3   OH233918   4.647   4.081  12.646 -0.1172  0.5742  0.0583
 4168TIP3    H133919   4.648   4.019  12.718  0.7769  2.1143  1.4391
 4168TIP3    H233920   4.620   4.164  12.685  4.6001  2.6010 -0.2088
 4169TIP3   OH233921   2.798   3.710   5.553 -0.0362 -0.0931  0.0793
 4169TIP3    H133922   2.772   3.797   5.524 -0.7436 -0.4997 -0.5724
 4169TIP3    H233923   2.754   3.651   5.491 -1.8454 -1.0464  2.1175
 4170TIP3   OH233924   6.147   2.391  13.950 -0.4271  0.7298 -0.1660
 4170TIP3    H133925   6.140   2.305  13.911 -1.0430  1.2429 -1.2285
 4170TIP3    H233926   6.057   2.415  13.972 -0.1176  0.5373  1.4072
 4171TIP3   OH233927   6.337   4.363   4.409 -0.5229  0.5286  0.4665
 4171TIP3    H133928   6.367   4.451   4.431 -0.4973  0.8561 -0.7958
 4171TIP3    H233929   6.367   4.350   4.319  0.4340 -1.2000  0.9951
 4172TIP3   OH233930   5.053   2.289  12.508 -0.6757  0.2708 -0.7403
 4172TIP3    H133931   5.011   2.340  12.439  1.6394 -0.4565 -2.8256
 4172TIP3    H233932   5.068   2.203  12.468  0.1348 -0.4151  0.9299
 4173TIP3   OH233933   5.939   0.765  14.886  0.1610 -0.4702  0.1836
 4173TIP3    H133934   6.034   0.778  14.886  0.2412 -1.0353 -0.1008
 4173TIP3    H233935   5.926   0.679  14.846 -0.5787  0.3581 -1.4151
 4174TIP3   OH233936   2.289   5.705   4.112  0.0786 -0.1243 -0.2422
 4174TIP3    H133937   2.315   5.613   4.106  0.2628 -0.0771 -0.1459
 4174TIP3    H233938   2.363   5.754   4.076  0.1009  0.0058 -0.0176
 4175TIP3   OH233939   5.983   0.625  11.638  0.8863 -0.1275  0.6600
 4175TIP3    H133940   5.907   0.638  11.582  1.2358 -0.7117  0.0289
 4175TIP3    H233941   5.989   0.705  11.690 -1.6293 -1.0133  2.5585
 4176TIP3   OH233942   5.796   0.914  15.935  0.0133  0.3612  0.0537
 4176TIP3    H133943   5.890   0.894  15.933  0.0342  0.4527 -1.6964
 4176TIP3    H233944   5.754   0.829  15.948  0.3101  0.0820 -0.7315
 4177TIP3   OH233945   6.111   2.617   1.199  0.1750  0.1459  0.5432
 4177TIP3    H133946   6.121   2.713   1.194  0.7835  0.0910  0.6501
 4177TIP3    H233947   6.196   2.586   1.229 -0.8914 -0.2044  3.5180
 4178TIP3   OH233948   6.235   2.652   2.254 -0.3928  0.2276 -0.5129
 4178TIP3    H133949   6.268   2.566   2.282  0.7079 -0.2140 -2.8916
 4178TIP3    H233950   6.309   2.693   2.210 -1.5635  1.3823 -1.5147
 4179TIP3   OH233951   0.387   1.873   2.869  0.7465  0.4406  0.4181
 4179TIP3    H133952   0.471   1.916   2.854  1.0994 -0.0781  0.8814
 4179TIP3    H233953   0.410   1.782   2.886  0.0293  0.1284 -0.2439
 4180TIP3   OH233954   5.713   3.089  11.889 -0.3943  0.0106 -0.1543
 4180TIP3    H133955   5.715   2.994  11.901  1.3450  0.1733  1.2461
 4180TIP3    H233956   5.624   3.115  11.912 -1.5733 -1.4538 -2.5821
 4181TIP3   OH233957   4.501   2.351  17.083  0.1482  0.2846 -0.1524
 4181TIP3    H133958   4.507   2.264  17.122 -0.6531  0.6365  0.7873
 4181TIP3    H233959   4.591   2.374  17.061  0.2730 -1.1680 -1.3028
 4182TIP3   OH233960   3.183   5.857   6.274  0.7455 -0.1343  0.2321
 4182TIP3    H133961   3.173   5.944   6.233 -0.1061  0.0082  0.7273
 4182TIP3    H233962   3.231   5.874   6.355  1.0701 -0.2061  0.0564
 4183TIP3   OH233963   3.691   0.858  16.529  0.2716 -0.3209 -1.1665
 4183TIP3    H133964   3.775   0.840  16.571 -0.3163 -1.8367 -0.5523
 4183TIP3    H233965   3.682   0.953  16.533  0.7047 -0.3075  1.3065
 4184TIP3   OH233966   4.509   6.314  14.853  0.2526  0.2469 -0.3829
 4184TIP3    H133967   4.529   6.380  14.787 -0.3009  0.0940 -0.7140
 4184TIP3    H233968   4.512   6.231  14.805  0.3737  0.0897 -0.1020
 4185TIP3   OH233969   4.607   5.867   3.487 -0.3554  0.5111 -0.6282
 4185TIP3    H133970   4.512   5.870   3.504 -0.0800 -1.7081  1.8997
 4185TIP3    H233971   4.635   5.782   3.521  2.9770  2.1632  1.2562
 4186TIP3   OH233972   3.299   1.164   0.149  0.1664 -0.0952  0.5275
 4186TIP3    H133973   3.274   1.128   0.064  0.8185 -1.2385  0.7940
 4186TIP3    H233974   3.215   1.179   0.194 -0.3512  3.0115 -1.2147
 4187TIP3   OH233975   5.247   0.398  12.536  0.3884  0.1432 -0.2185
 4187TIP3    H133976   5.172   0.429  12.587  0.2115  0.3410 -0.5886
 4187TIP3    H233977   5.227   0.426  12.446 -0.0883 -1.5592 -0.6917
 4188TIP3   OH233978   0.920   4.329  14.140 -0.4789  0.0498 -0.5281
 4188TIP3    H133979   0.862   4.260  14.108  0.5753  0.0038 -2.4394
 4188TIP3    H233980   0.942   4.381  14.063 -0.3504  1.8932  0.6724
 4189TIP3   OH233981   2.541   2.062  17.149  0.1314  0.4200 -0.3052
 4189TIP3    H133982   2.567   2.008  17.075 -0.3295  0.7541 -0.7170
 4189TIP3    H233983   2.445   2.064  17.145  0.1461  1.4854 -0.4563
 4190TIP3   OH233984   4.649   3.342  16.548 -0.0745  0.4582  0.4770
 4190TIP3    H133985   4.637   3.411  16.612  1.5225  0.3125  0.9914
 4190TIP3    H233986   4.743   3.324  16.549 -0.2587 -0.7913 -0.6129
 4191TIP3   OH233987   1.350   0.799   0.561  0.1242  0.3880  0.0302
 4191TIP3    H133988   1.445   0.809   0.575  0.2265 -0.1397 -0.2918
 4191TIP3    H233989   1.315   0.781   0.648  0.0321  2.6350  0.5364
 4192TIP3   OH233990   0.438   0.017   1.486  0.5803  0.4569 -0.0306
 4192TIP3    H133991   0.492   0.081   1.531  0.2722  0.1711  0.7815
 4192TIP3    H233992   0.356   0.017   1.535  0.2886  0.0256 -0.5109
 4193TIP3   OH233993   2.304   6.638  12.030  0.6155 -0.2750 -0.1374
 4193TIP3    H133994   2.258   6.601  12.106  0.5390  1.7542  0.8613
 4193TIP3    H233995   2.315   6.730  12.051  4.3710 -0.4272 -0.6927
 4194TIP3   OH233996   4.068   2.952   3.737  0.3067  0.3141  0.1113
 4194TIP3    H133997   3.981   2.939   3.776 -0.3429 -0.5066 -1.4662
 4194TIP3    H233998   4.060   3.034   3.687 -0.0411 -0.4412 -1.1338
 4195TIP3   OH233999   1.063   6.619   4.998  0.0415  0.1220  0.4784
 4195TIP3    H134000   1.031   6.546   5.052 -1.6704  0.1691 -0.3918
 4195TIP3    H234001   0.983   6.659   4.963  1.0564  0.7660 -1.2078
 4196TIP3   OH234002   4.148   2.496  16.676 -0.3994 -0.6665  0.0862
 4196TIP3    H134003   4.163   2.565  16.611  0.1656 -2.0762 -1.3504
 4196TIP3    H234004   4.113   2.542  16.752  0.6459  1.2983 -0.5503
 4197TIP3   OH234005   2.935   0.761  15.630 -0.3950  0.1137 -0.6349
 4197TIP3    H134006   2.973   0.817  15.562 -1.0941  1.3450 -0.0361
 4197TIP3    H234007   2.971   0.794  15.712  1.1658 -1.9463 -0.4189
 4198TIP3   OH234008   2.656   5.375   0.478  0.1494  0.0230 -0.3254
 4198TIP3    H134009   2.583   5.351   0.421  0.4919  0.5498 -0.9942
 4198TIP3    H234010   2.723   5.408   0.419  0.7280  0.0461  0.3342
 4199TIP3   OH234011   5.111   4.570   2.059  0.0720  0.3415 -0.3448
 4199TIP3    H134012   5.040   4.626   2.028 -0.1132  0.6002  0.5279
 4199TIP3    H234013   5.141   4.610   2.140  1.9881  0.8823 -1.2461
 4200TIP3   OH234014   4.533   0.876   3.728  0.3494  0.1783  0.1277
 4200TIP3    H134015   4.513   0.788   3.760 -0.1447  0.4931  0.7154
 4200TIP3    H234016   4.514   0.873   3.634 -1.0313  0.0393  0.3944
 4201TIP3   OH234017   4.709   1.051  16.252  0.4411 -0.2367  0.2233
 4201TIP3    H134018   4.698   0.982  16.187  0.1721  1.2423 -1.3579
 4201TIP3    H234019   4.626   1.052  16.300 -0.5140  0.5497 -1.3647
 4202TIP3   OH234020   5.948   2.877  15.620  0.7456  0.0902  0.0871
 4202TIP3    H134021   5.992   2.793  15.637  2.9526  1.0281 -0.5335
 4202TIP3    H234022   5.929   2.875  15.526  0.9843  0.3359  0.0308
 4203TIP3   OH234023   4.736   1.427   1.602  0.0113 -0.1297 -0.2909
 4203TIP3    H134024   4.669   1.466   1.545 -1.3777 -0.1169  1.2513
 4203TIP3    H234025   4.705   1.338   1.618 -0.8238  0.5020  2.0833
 4204TIP3   OH234026   3.373   1.433   4.187 -0.2260  0.0361  0.1402
 4204TIP3    H134027   3.464   1.445   4.160 -0.2753  0.5525  0.1970
 4204TIP3    H234028   3.358   1.339   4.179  0.1451  0.0167 -0.4126
 4205TIP3   OH234029   4.400   0.295  16.876  0.3749  0.6201  0.0506
 4205TIP3    H134030   4.476   0.238  16.866  0.1477  0.1830  0.7559
 4205TIP3    H234031   4.325   0.237  16.869  0.1293  0.9020  0.3096
 4206TIP3   OH234032   1.565   6.510   5.242  0.4374 -0.2159 -0.4265
 4206TIP3    H134033   1.608   6.455   5.177  2.2122 -0.6219  0.9850
 4206TIP3    H234034   1.636   6.536   5.301 -0.6645  2.1512 -0.0343
 4207TIP3   OH234035   0.458   0.317  13.744  0.2111  0.1302  0.3008
 4207TIP3    H134036   0.542   0.322  13.699  0.6769  1.4723  1.2551
 4207TIP3    H234037   0.474   0.262  13.820 -0.4659 -1.7719 -0.8606
 4208TIP3   OH234038   2.657   4.961   4.580  0.0580  0.8132 -0.7684
 4208TIP3    H134039   2.698   4.878   4.604 -1.2859  0.6959  1.2553
 4208TIP3    H234040   2.641   5.005   4.663  0.8593  3.2062 -1.7940
 4209TIP3   OH234041   0.776   1.804   2.283 -0.1540  0.3397 -0.2022
 4209TIP3    H134042   0.838   1.757   2.339 -0.6731 -0.1449 -0.0214
 4209TIP3    H234043   0.769   1.749   2.205  1.2491  1.4486 -1.1787
 4210TIP3   OH234044   4.785   0.943  10.535 -0.0163  0.1326 -0.5607
 4210TIP3    H134045   4.806   0.981  10.620 -0.7628  0.4303 -0.5097
 4210TIP3    H234046   4.745   0.858  10.556 -1.6708  0.8926 -0.5495
 4211TIP3   OH234047   2.103   0.301  13.771 -0.5002 -0.0918  0.1019
 4211TIP3    H134048   2.196   0.308  13.792 -0.6515  2.1232  0.3047
 4211TIP3    H234049   2.100   0.260  13.685  0.7836  1.3660 -0.6798
 4212TIP3   OH234050   5.377   0.746   3.235 -0.3351 -0.3288  0.5500
 4212TIP3    H134051   5.466   0.724   3.206 -0.3355 -0.2857  0.5178
 4212TIP3    H234052   5.371   0.708   3.323  0.1147  0.6840  1.0331
 4213TIP3   OH234053   5.266   6.388  12.223 -0.3082 -0.2290 -0.7205
 4213TIP3    H134054   5.260   6.301  12.183  0.7550 -1.1862  1.0541
 4213TIP3    H234055   5.243   6.449  12.153 -1.1866 -1.9390 -1.9866
 4214TIP3   OH234056   1.929   0.489  15.951  0.3471 -0.5853 -0.1589
 4214TIP3    H134057   2.002   0.543  15.922  1.8138 -2.3802  0.0433
 4214TIP3    H234058   1.940   0.406  15.905  0.1070 -1.8949  2.0231
 4215TIP3   OH234059   4.676   0.779  14.452  0.3147 -1.2762  0.0068
 4215TIP3    H134060   4.607   0.844  14.439 -0.2899 -1.4614  1.9034
 4215TIP3    H234061   4.677   0.728  14.371 -0.7557 -0.3287 -0.6309
 4216TIP3   OH234062   0.027   1.562   0.235  0.0301 -0.0651 -0.2429
 4216TIP3    H134063  -0.037   1.577   0.304  2.4371  2.7001  1.6319
 4216TIP3    H234064   0.109   1.545   0.281  1.3936  0.1363 -2.4515
 4217TIP3   OH234065   4.058   1.670   3.525 -0.1362  0.3353  0.3707
 4217TIP3    H134066   4.117   1.733   3.568 -1.4417  1.6980  0.2729
 4217TIP3    H234067   3.997   1.725   3.476 -1.5562 -0.9969  0.5642
 4218TIP3   OH234068   5.402   6.099  13.322 -0.5765  0.1680  0.2175
 4218TIP3    H134069   5.310   6.076  13.337 -0.4646 -0.5657 -0.1708
 4218TIP3    H234070   5.446   6.015  13.309  0.1931  0.4992  0.6239
 4219TIP3   OH234071   4.306   3.109   3.906 -0.7136  0.8634 -0.4939
 4219TIP3    H134072   4.241   3.046   3.876 -0.4312  0.5276 -0.4055
 4219TIP3    H234073   4.284   3.125   3.998 -0.5528  0.6022 -0.4102
 4220TIP3   OH234074   5.782   5.987  16.416  0.1387  0.2404 -0.1916
 4220TIP3    H134075   5.701   5.975  16.466  0.2029  0.9740  0.1108
 4220TIP3    H234076   5.828   6.057  16.463  0.9404 -0.1677 -0.3675
 4221TIP3   OH234077   5.165   6.177  15.253 -0.1394 -0.0833  0.0715
 4221TIP3    H134078   5.120   6.106  15.298 -2.6788  1.4700  0.2144
 4221TIP3    H234079   5.231   6.134  15.199  0.3000 -2.2852  2.2164
 4222TIP3   OH234080   3.765   2.623  16.090  0.8739 -0.2406 -0.3588
 4222TIP3    H134081   3.817   2.684  16.037  0.5782  0.0022 -0.3710
 4222TIP3    H234082   3.829   2.563  16.126  1.1647  0.0455 -0.3889
 4223TIP3   OH234083   6.530   4.814  14.609  0.4562  0.4715  0.5461
 4223TIP3    H134084   6.543   4.725  14.578 -0.0409  0.2265  1.0173
 4223TIP3    H234085   6.585   4.868  14.552  0.4813 -0.0930  0.0226
 4224TIP3   OH234086   0.380   6.406  12.870  0.1726 -0.0801  0.7231
 4224TIP3    H134087   0.463   6.430  12.829  0.7155  0.4142  2.0555
 4224TIP3    H234088   0.316   6.463  12.827 -0.0233 -2.2998 -2.2584
 4225TIP3   OH234089   5.458   1.922   3.389 -0.3742 -0.7014 -0.3488
 4225TIP3    H134090   5.363   1.916   3.398 -0.5856  2.4549  0.9669
 4225TIP3    H234091   5.489   1.936   3.479  1.4618 -2.3125 -0.6618
 4226TIP3   OH234092   6.725   3.146  13.562  0.0736 -0.1889  0.2006
 4226TIP3    H134093   6.800   3.147  13.622 -0.9285  1.0463  1.5051
 4226TIP3    H234094   6.663   3.086  13.603  0.5560 -1.7253 -1.2110
 4227TIP3   OH234095   4.760   1.189   3.189  0.3598  0.1777 -0.1934
 4227TIP3    H134096   4.732   1.220   3.103 -0.9455  0.3293  0.2624
 4227TIP3    H234097   4.725   1.100   3.195  0.5425  0.1268  0.1457
 4228TIP3   OH234098   4.642   3.755  13.804  0.0697 -0.4569  0.0919
 4228TIP3    H134099   4.704   3.723  13.870  0.4733 -1.3359 -0.7061
 4228TIP3    H234100   4.600   3.676  13.770  0.1380 -0.0393 -0.9779
 4229TIP3   OH234101   3.545   6.617   4.308 -0.7988  0.1823 -0.6849
 4229TIP3    H134102   3.537   6.562   4.386 -0.7581  0.8034 -0.2315
 4229TIP3    H234103   3.462   6.664   4.303 -0.2186  1.3015 -0.1080
 4230TIP3   OH234104   4.422   4.340  13.807  0.0965  0.4515 -0.1307
 4230TIP3    H134105   4.430   4.263  13.751  0.0308 -0.4122  1.0067
 4230TIP3    H234106   4.440   4.414  13.749  1.9653 -0.5204 -0.8743
 4231TIP3   OH234107   3.464   0.874  15.038 -0.0438 -0.0853  0.0328
 4231TIP3    H134108   3.475   0.794  15.089 -0.2294 -0.0751  0.0890
 4231TIP3    H234109   3.407   0.928  15.091 -0.4759 -0.1930 -0.3211
 4232TIP3   OH234110   5.579   4.859   0.033  0.0446 -0.0077 -0.4641
 4232TIP3    H134111   5.674   4.849   0.036  0.2194 -0.8435 -4.0410
 4232TIP3    H234112   5.547   4.777  -0.005 -2.2332  0.0292  1.1224
 4233TIP3   OH234113   5.629   3.193   5.688  0.2036 -0.4537  0.1273
 4233TIP3    H134114   5.694   3.184   5.618 -1.7623  1.2125 -2.1081
 4233TIP3    H234115   5.561   3.248   5.649 -2.3254 -1.6954  2.4829
 4234TIP3   OH234116   0.290   0.276   2.507  0.1940  0.2149  0.3992
 4234TIP3    H134117   0.305   0.294   2.414  1.3002  0.0174  0.5252
 4234TIP3    H234118   0.319   0.355   2.551 -2.9467  1.4898  0.4647
 4235TIP3   OH234119   6.091   4.161   5.990  0.3957  0.2110 -0.6780
 4235TIP3    H134120   6.176   4.182   6.028  0.6826 -2.4064  0.3510
 4235TIP3    H234121   6.027   4.201   6.049  0.8891  0.7640 -0.5117
 4236TIP3   OH234122   5.906   6.180   0.913 -0.0495  0.4824 -0.1295
 4236TIP3    H134123   5.948   6.258   0.948  1.8073 -0.3277 -0.4538
 4236TIP3    H234124   5.977   6.117   0.901 -0.7716  0.1304 -3.7911
 4237TIP3   OH234125   4.146   6.661   0.481 -0.3524  0.2547  0.1542
 4237TIP3    H134126   4.116   6.619   0.561  1.6661 -0.4535  0.6119
 4237TIP3    H234127   4.238   6.634   0.473 -0.6700 -0.2860 -2.7693
 4238TIP3   OH234128   6.581   0.770  11.479  0.1875  0.4883  0.4826
 4238TIP3    H134129   6.578   0.861  11.509 -1.6922  0.6773 -0.1806
 4238TIP3    H234130   6.491   0.739  11.489  0.5634 -0.9401 -0.4126
 4239TIP3   OH234131   5.304   5.251  14.971  0.4371  0.3580 -0.2304
 4239TIP3    H134132   5.233   5.249  15.035  0.5391 -0.0435 -0.1264
 4239TIP3    H234133   5.325   5.159  14.956 -0.0680  0.4207 -1.3905
 4240TIP3   OH234134   4.327   3.916   5.387 -0.4755 -0.3587  0.1748
 4240TIP3    H134135   4.409   3.871   5.405 -0.6357 -0.1294  1.5917
 4240TIP3    H234136   4.333   3.999   5.435 -1.8358 -0.6919  0.9867
 4241TIP3   OH234137   3.506   1.358  11.748 -0.1799  0.1992  0.3012
 4241TIP3    H134138   3.523   1.376  11.656 -1.0351  1.3132  0.3442
 4241TIP3    H234139   3.416   1.387  11.762  0.0982  0.5101  1.5971
 4242TIP3   OH234140   4.696   6.526   0.633 -0.4815 -0.2728 -0.1911
 4242TIP3    H134141   4.606   6.533   0.600 -1.3491  0.3451  2.0999
 4242TIP3    H234142   4.696   6.447   0.686 -0.3395  0.8825  1.6014
 4243TIP3   OH234143   2.642   2.911   6.803  0.1358 -0.0904  0.5039
 4243TIP3    H134144   2.615   2.934   6.892  0.5101  0.9468  0.3621
 4243TIP3    H234145   2.561   2.915   6.752 -0.3629 -2.0969  1.0251
 4244TIP3   OH234146   1.974   2.176   2.295  0.5991 -0.2486 -0.1973
 4244TIP3    H134147   1.944   2.150   2.382  1.6228  0.8700  0.5133
 4244TIP3    H234148   1.948   2.268   2.287  0.3813 -0.3834 -1.1352
 4245TIP3   OH234149   2.813   6.266  16.360  0.0667  0.3106 -0.4274
 4245TIP3    H134150   2.734   6.310  16.391  0.9893  0.2129  2.3624
 4245TIP3    H234151   2.855   6.329  16.302 -1.3463  0.8971 -0.8440
 4246TIP3   OH234152   0.391   3.616   1.255  0.0910 -0.1973  0.0660
 4246TIP3    H134153   0.314   3.671   1.266 -0.0108 -0.3827  0.2951
 4246TIP3    H234154   0.435   3.651   1.178  1.3416  1.7621  1.5760
 4247TIP3   OH234155   4.431   1.692   0.237  0.1463 -0.3396  0.2856
 4247TIP3    H134156   4.521   1.669   0.261  0.0347 -2.4574 -1.1593
 4247TIP3    H234157   4.382   1.611   0.245 -1.0538  0.1453 -1.6148
 4248TIP3   OH234158   4.550   5.428  12.850  0.0998  0.0875 -0.6402
 4248TIP3    H134159   4.456   5.441  12.858 -0.0019 -0.8756 -0.0279
 4248TIP3    H234160   4.586   5.458  12.934  0.4707  1.4387 -1.2643
 4249TIP3   OH234161   6.253   3.040   0.708  0.6884 -0.1297  0.2937
 4249TIP3    H134162   6.281   3.041   0.800  0.3996 -1.2787  0.3995
 4249TIP3    H234163   6.288   2.958   0.673  2.0703  0.9543 -1.0433
 4250TIP3   OH234164   2.452   3.782  13.871  0.0261 -0.5199 -0.4429
 4250TIP3    H134165   2.401   3.796  13.951 -0.1768 -0.4288 -0.5881
 4250TIP3    H234166   2.425   3.853  13.813 -0.4658 -1.0924 -0.9173
 4251TIP3   OH234167   5.841   3.050  11.154 -0.6312  0.4089  0.0893
 4251TIP3    H134168   5.916   3.022  11.101 -0.6096 -0.0670  0.3669
 4251TIP3    H234169   5.820   2.974  11.209  0.8573  1.6046  2.5001
 4252TIP3   OH234170   0.391   3.066  15.778  0.3756  0.3030 -0.5002
 4252TIP3    H134171   0.440   3.072  15.860 -0.0164  1.7170 -0.3407
 4252TIP3    H234172   0.408   2.977  15.746  3.3774  0.8435 -0.6990
 4253TIP3   OH234173   0.404   3.313  12.488  0.1707 -0.1859 -0.8171
 4253TIP3    H134174   0.471   3.254  12.453  1.5596  0.0297  1.2990
 4253TIP3    H234175   0.436   3.401  12.467  2.0319  0.0472  2.3778
 4254TIP3   OH234176   1.380   5.080  11.305 -0.1918  0.1477  0.2870
 4254TIP3    H134177   1.467   5.039  11.308 -0.5451 -0.7088 -0.7401
 4254TIP3    H234178   1.325   5.016  11.260 -1.1685  1.0370  0.1866
 4255TIP3   OH234179   6.266   1.389  11.734  0.4452  0.4862 -0.0783
 4255TIP3    H134180   6.184   1.345  11.757  2.5557 -1.8469  3.8406
 4255TIP3    H234181   6.251   1.481  11.759 -1.1701  0.2623 -0.1080
 4256TIP3   OH234182   5.729   6.299   0.136 -0.1160  0.2740  0.0552
 4256TIP3    H134183   5.666   6.295   0.208  0.4308 -1.8407  0.4790
 4256TIP3    H234184   5.804   6.347   0.172  0.1929 -0.8368  0.9813
 4257TIP3   OH234185   1.677   2.662  14.404 -0.3543  0.3239 -0.0914
 4257TIP3    H134186   1.757   2.653  14.456 -0.8457 -1.5481  0.4238
 4257TIP3    H234187   1.677   2.753  14.375  1.0777  0.8146  1.3162
 4258TIP3   OH234188   2.736   1.529   4.554  0.5631 -0.5510  0.0831
 4258TIP3    H134189   2.643   1.552   4.557  0.6743  0.2190 -1.5242
 4258TIP3    H234190   2.743   1.451   4.609 -0.7994  0.0983  1.2422
 4259TIP3   OH234191   2.128   0.897   5.803  0.2214  0.7374  0.0866
 4259TIP3    H134192   2.144   0.817   5.753 -0.7559 -0.7534  2.0104
 4259TIP3    H234193   2.090   0.957   5.740  2.1356  0.1572 -1.7088
 4260TIP3   OH234194   1.655   0.160   0.825 -0.3777 -0.0514  0.5489
 4260TIP3    H134195   1.718   0.220   0.784 -1.3586  2.5341  2.5314
 4260TIP3    H234196   1.691   0.143   0.912 -0.5475 -1.7433  0.3224
 4261TIP3   OH234197   3.740   5.144   4.219 -0.2641  0.0475  0.3334
 4261TIP3    H134198   3.676   5.141   4.290 -0.9541 -0.7713 -0.3036
 4261TIP3    H234199   3.710   5.078   4.156  0.2132  0.9018 -0.8295
 4262TIP3   OH234200   6.503   4.113  11.500 -0.2589 -0.3414  0.8648
 4262TIP3    H134201   6.574   4.110  11.565  0.4798  2.5383  0.3318
 4262TIP3    H234202   6.531   4.179  11.437 -1.6830 -1.9299 -1.5932
 4263TIP3   OH234203   5.012   6.299  14.952  0.0634 -0.2043  0.2511
 4263TIP3    H134204   5.069   6.223  14.964  0.8944  0.5047  1.0075
 4263TIP3    H234205   4.947   6.293  15.022 -0.7946 -0.9903 -0.5851
 4264TIP3   OH234206   5.382   1.939  13.227  0.2902  0.0757  0.2452
 4264TIP3    H134207   5.413   1.928  13.137 -1.0110 -0.3930 -0.1780
 4264TIP3    H234208   5.418   1.864  13.274 -0.8005 -0.9290 -0.4326
 4265TIP3   OH234209   6.512   6.115   4.435  0.6846 -0.2455 -0.4389
 4265TIP3    H134210   6.418   6.113   4.453  0.3377  2.5319 -1.5082
 4265TIP3    H234211   6.523   6.058   4.359 -0.1856 -0.3851 -0.4663
 4266TIP3   OH234212   1.041   2.586  17.208 -0.1950 -0.1681 -0.0353
 4266TIP3    H134213   1.136   2.580  17.203 -0.0907  0.2137  1.1598
 4266TIP3    H234214   1.024   2.680  17.217 -0.7609 -0.1311 -1.1993
 4267TIP3   OH234215   2.903   3.800  15.608 -0.1599  0.3211  0.1781
 4267TIP3    H134216   2.945   3.743  15.544 -2.0272  0.7224 -1.5062
 4267TIP3    H234217   2.953   3.882  15.604  2.1298 -0.8519  2.1428
 4268TIP3   OH234218   4.862   3.281  15.854 -0.0075  0.7929 -0.6381
 4268TIP3    H134219   4.787   3.339  15.839 -1.6989 -1.6710 -2.7944
 4268TIP3    H234220   4.930   3.315  15.797  0.3151  2.6441  0.7911
 4269TIP3   OH234221   1.709   2.868  12.799 -0.3833  0.0981  0.2082
 4269TIP3    H134222   1.772   2.885  12.729 -2.4254  0.1149 -1.7726
 4269TIP3    H234223   1.663   2.790  12.770  0.2307 -1.3128  2.7668
 4270TIP3   OH234224   6.370   5.957   1.535 -0.3305 -0.3152  0.4271
 4270TIP3    H134225   6.277   5.946   1.514 -0.0249 -3.5351  0.2987
 4270TIP3    H234226   6.376   5.935   1.628  0.3070 -0.3018  0.3925
 4271TIP3   OH234227   1.390   5.993   2.545  0.1732 -0.0889  0.4802
 4271TIP3    H134228   1.479   5.960   2.531  0.2022  0.3192 -0.3575
 4271TIP3    H234229   1.395   6.086   2.520 -0.3161  0.1142  1.1319
 4272TIP3   OH234230   4.490   2.207   5.307  0.4742  0.0544 -0.0890
 4272TIP3    H134231   4.529   2.211   5.219 -1.3364 -0.0504 -0.9332
 4272TIP3    H234232   4.546   2.146   5.355  0.5998 -1.1141 -1.6529
 4273TIP3   OH234233   4.853   3.829  11.722 -0.3073 -0.2825 -0.0591
 4273TIP3    H134234   4.773   3.875  11.745 -1.1584 -1.8422  0.2642
 4273TIP3    H234235   4.870   3.854  11.631 -0.5681  0.8515  0.1863
 4274TIP3   OH234236   5.132   1.470  14.099  0.2238  0.5675 -0.1730
 4274TIP3    H134237   5.168   1.387  14.130 -0.4061  0.5370  0.5034
 4274TIP3    H234238   5.071   1.445  14.030  0.0464  0.4711  0.0187
 4275TIP3   OH234239   4.476   3.631  16.523 -0.5199  0.4307  0.1214
 4275TIP3    H134240   4.413   3.661  16.457 -0.5535 -0.6834 -0.3834
 4275TIP3    H234241   4.559   3.672  16.496 -1.0315  2.0954  0.9275
 4276TIP3   OH234242   0.444   4.581   2.222  0.3630  0.3891 -0.3758
 4276TIP3    H134243   0.440   4.502   2.169 -0.8280  0.9034 -1.0897
 4276TIP3    H234244   0.522   4.626   2.191  0.1971  0.2292 -1.0540
 4277TIP3   OH234245   4.964   2.348   3.355 -0.1210 -0.4720  0.0134
 4277TIP3    H134246   4.890   2.333   3.414  0.9796  1.3618  2.0173
 4277TIP3    H234247   5.038   2.365   3.414  1.8454 -1.8393 -1.9051
 4278TIP3   OH234248   6.171   0.971   0.709 -0.5836  0.2875 -0.1027
 4278TIP3    H134249   6.223   1.016   0.643 -1.2961 -0.0513 -0.9134
 4278TIP3    H234250   6.085   0.960   0.669 -1.0020 -0.0237  0.8422
 4279TIP3   OH234251   4.096   0.789   3.925 -0.0096 -0.3988  0.4178
 4279TIP3    H134252   4.117   0.856   3.860  0.8571 -1.7948 -0.8129
 4279TIP3    H234253   4.042   0.835   3.990 -0.5423  1.1656 -1.0413
 4280TIP3   OH234254   3.266   2.052   6.465  0.2551  0.0921 -0.2916
 4280TIP3    H134255   3.304   2.128   6.509 -0.2364 -0.3632  0.9653
 4280TIP3    H234256   3.306   1.977   6.509 -2.0921 -0.4135  1.1375
 4281TIP3   OH234257   0.572   4.985   5.391  0.1510 -0.3709 -0.0036
 4281TIP3    H134258   0.618   5.034   5.459  0.5700 -0.2291 -0.3855
 4281TIP3    H234259   0.641   4.944   5.340 -0.0893  0.5071 -1.0860
 4282TIP3   OH234260   3.094   2.032   1.538  0.1959  0.3367 -0.3631
 4282TIP3    H134261   3.013   2.066   1.574  0.3963  0.4149  0.0164
 4282TIP3    H234262   3.091   2.055   1.445 -0.1428  0.4745 -0.3172
 4283TIP3   OH234263   5.726   0.664   0.909  0.2544 -0.5024  0.8241
 4283TIP3    H134264   5.674   0.584   0.904 -0.8007  0.1144  1.5985
 4283TIP3    H234265   5.678   0.726   0.854  0.6141 -0.1586  0.8992
 4284TIP3   OH234266   4.436   6.277  17.187  0.1130  0.7868  0.1329
 4284TIP3    H134267   4.348   6.271  17.225 -0.1491  0.4578 -0.5009
 4284TIP3    H234268   4.493   6.234  17.251 -0.4383 -0.4772 -0.1831
 4285TIP3   OH234269   5.185   3.440  11.959  0.1613  0.4580  0.1125
 4285TIP3    H134270   5.235   3.364  11.929  1.3061 -0.0402  2.9843
 4285TIP3    H234271   5.251   3.500  11.994 -0.7369  2.7720 -1.8364
 4286TIP3   OH234272   2.633   3.575  11.390  0.1162 -0.0446  0.2233
 4286TIP3    H134273   2.554   3.549  11.438 -0.4322  2.3242  0.7395
 4286TIP3    H234274   2.615   3.550  11.299 -0.7841 -0.4521  0.4987
 4287TIP3   OH234275   6.659   1.391  15.714 -0.3930  0.9145  0.0361
 4287TIP3    H134276   6.718   1.339  15.659 -1.0041  0.0219  0.1886
 4287TIP3    H234277   6.605   1.439  15.651  0.3527  1.5867 -0.1058
 4288TIP3   OH234278   0.565   6.669   1.246 -0.1518  0.3645  0.8188
 4288TIP3    H134279   0.576   6.629   1.332  4.0479 -1.5493 -0.3506
 4288TIP3    H234280   0.620   6.747   1.248  0.3709  0.0495 -0.1971
 4289TIP3   OH234281   3.522   4.242  15.838 -0.2361 -0.5510 -0.2589
 4289TIP3    H134282   3.543   4.331  15.811 -2.6124  0.1194 -0.0754
 4289TIP3    H234283   3.556   4.187  15.768 -0.8145  0.6976 -1.5655
 4290TIP3   OH234284   6.104   0.008   1.073  0.2940  0.2126  0.0217
 4290TIP3    H134285   6.038   0.075   1.095  1.9002  2.4992 -1.6483
 4290TIP3    H234286   6.182   0.058   1.051  1.9522 -2.3274 -0.2282
 4291TIP3   OH234287   6.451   5.982   3.042 -0.7155 -0.0714  0.1911
 4291TIP3    H134288   6.395   6.028   2.980 -0.3288 -0.5819 -0.5428
 4291TIP3    H234289   6.537   5.979   3.000 -0.7809 -1.6500  0.1273
 4292TIP3   OH234290   0.377   3.389  14.607 -0.0788  0.3026 -0.1055
 4292TIP3    H134291   0.360   3.481  14.626 -2.2995 -0.1414  0.2880
 4292TIP3    H234292   0.415   3.355  14.687 -0.7958  0.5273  0.3432
 4293TIP3   OH234293   0.920   1.655  13.646  0.6218 -0.2384  0.7162
 4293TIP3    H134294   0.867   1.645  13.567 -0.0410  0.4470  1.0670
 4293TIP3    H234295   0.996   1.598  13.631  1.0352  0.6791 -0.8626
 4294TIP3   OH234296   5.611   6.118   4.405  0.3508  0.1004  0.5020
 4294TIP3    H134297   5.535   6.156   4.450 -0.7002 -1.8594  0.4784
 4294TIP3    H234298   5.602   6.148   4.314 -0.0301  0.4033  0.6378
 4295TIP3   OH234299   5.655   0.697   6.518 -0.4177  0.2943 -0.2976
 4295TIP3    H134300   5.639   0.606   6.492 -1.1556  0.5402 -0.7414
 4295TIP3    H234301   5.643   0.747   6.437  2.8083  0.5238 -0.7648
 4296TIP3   OH234302   2.773   2.021   3.407 -0.0119  0.0310 -0.0947
 4296TIP3    H134303   2.807   2.026   3.496 -0.2279 -0.7754  0.0493
 4296TIP3    H234304   2.696   1.964   3.414 -0.2781  0.2987 -0.7230
 4297TIP3   OH234305   5.641   2.495  14.126  0.1941  0.5976  0.4407
 4297TIP3    H134306   5.550   2.472  14.141 -0.5580  2.6756 -0.5251
 4297TIP3    H234307   5.639   2.558  14.054  2.3587  1.0231  0.6598
 4298TIP3   OH234308   1.272   0.736   3.437  0.0697 -0.3415  0.3572
 4298TIP3    H134309   1.337   0.735   3.366 -1.3737  0.7871 -1.0549
 4298TIP3    H234310   1.316   0.785   3.507  1.1685 -0.5970 -0.1196
 4299TIP3   OH234311   4.925   5.647  13.912 -0.0492  0.7967 -0.0199
 4299TIP3    H134312   4.901   5.702  13.987  0.0654 -0.8870  1.2899
 4299TIP3    H234313   4.992   5.698  13.867 -0.6122  2.1532  0.5907
 4300TIP3   OH234314   2.434   6.264  14.760 -0.1618  0.4654 -0.7484
 4300TIP3    H134315   2.520   6.295  14.787  0.1692 -0.5850 -0.5457
 4300TIP3    H234316   2.372   6.326  14.800  0.4549  0.6015  0.0088
 4301TIP3   OH234317   1.110   2.278   5.041  0.3944 -0.3754 -0.2914
 4301TIP3    H134318   1.055   2.251   5.114  2.1018 -0.0233  1.1929
 4301TIP3    H234319   1.106   2.374   5.043  0.2390 -0.3688 -0.8363
 4302TIP3   OH234320   4.467   3.655  11.283 -0.5854 -0.3180 -0.0130
 4302TIP3    H134321   4.419   3.732  11.252 -0.1712  0.0033  0.1420
 4302TIP3    H234322   4.405   3.583  11.271 -0.8375 -0.0252 -0.5255
 4303TIP3   OH234323   2.978   4.149  16.311 -0.3316  0.0073  0.2723
 4303TIP3    H134324   2.949   4.239  16.295 -0.8255  0.1618  1.9063
 4303TIP3    H234325   2.899   4.102  16.335  0.1605 -0.4795  0.9835
 4304TIP3   OH234326   4.670   6.119  14.705  0.7132  0.2027 -0.0759
 4304TIP3    H134327   4.741   6.068  14.667 -0.7303 -2.4865  0.6163
 4304TIP3    H234328   4.711   6.203  14.727  3.3150 -0.7311 -0.8971
 4305TIP3   OH234329   3.114   1.545  16.965 -0.3811 -1.0221  0.5491
 4305TIP3    H134330   3.122   1.452  16.986 -0.2247 -0.9783  0.6856
 4305TIP3    H234331   3.023   1.567  16.987  0.0334 -0.7389  2.1679
 4306TIP3   OH234332   2.080   5.926   3.319 -0.0877 -0.7078 -0.1009
 4306TIP3    H134333   2.026   5.877   3.257 -0.5265  0.9594 -1.0995
 4306TIP3    H234334   2.046   5.902   3.405  0.0546 -2.5129 -0.5072
 4307TIP3   OH234335   4.148   5.025  15.032 -0.2311  0.2000 -0.1242
 4307TIP3    H134336   4.158   5.105  15.084  0.3318 -0.1959  0.3926
 4307TIP3    H234337   4.207   5.037  14.958  0.1726  0.0861  0.1767
 4308TIP3   OH234338   4.187   0.194  11.248  0.0763 -0.6531  0.1263
 4308TIP3    H134339   4.163   0.254  11.178 -1.0157  0.6278  1.5319
 4308TIP3    H234340   4.108   0.186  11.301  0.6721 -2.1307  0.8413
 4309TIP3   OH234341   5.104   5.584   0.843  0.1830 -0.1600 -0.2711
 4309TIP3    H134342   5.116   5.604   0.750  1.9381 -0.3504 -0.1121
 4309TIP3    H234343   5.193   5.569   0.876 -0.5897 -2.7308  0.8591
 4310TIP3   OH234344   1.536   1.266   5.691  0.1537  0.2769 -0.2756
 4310TIP3    H134345   1.545   1.347   5.741  0.8196  0.4226 -0.6223
 4310TIP3    H234346   1.443   1.245   5.697 -0.0800  1.2105 -0.4024
 4311TIP3   OH234347   3.350   1.630   0.889 -0.1228  0.1386  0.3784
 4311TIP3    H134348   3.408   1.666   0.957 -1.4556  0.6516  1.2926
 4311TIP3    H234349   3.273   1.601   0.938 -2.1559  2.6538 -1.1241
 4312TIP3   OH234350   2.130   2.839  16.016 -0.0030 -0.6140  0.0208
 4312TIP3    H134351   2.176   2.815  15.936 -1.5151  2.2145 -1.8665
 4312TIP3    H234352   2.181   2.911  16.053 -0.1136 -0.9177  0.7906
 4313TIP3   OH234353   6.084   2.742  14.621 -0.3478  0.0585 -0.2090
 4313TIP3    H134354   5.995   2.709  14.607 -0.7027  0.5143  0.8185
 4313TIP3    H234355   6.090   2.818  14.565 -0.6501  0.0871 -0.2079
 4314TIP3   OH234356   4.886   0.003   1.848 -0.3404  0.1918 -0.0482
 4314TIP3    H134357   4.798  -0.014   1.813 -0.5338 -1.6397  1.1853
 4314TIP3    H234358   4.943  -0.054   1.797  0.1259  1.1793 -0.6615
 4315TIP3   OH234359   1.565   1.108   1.286  0.1407  0.0507 -0.3009
 4315TIP3    H134360   1.529   1.024   1.316  1.1793 -0.2155  0.2770
 4315TIP3    H234361   1.562   1.103   1.191  1.0046 -1.0452 -0.3059
 4316TIP3   OH234362   0.065   5.316   5.108  0.2810  0.0223  0.0803
 4316TIP3    H134363   0.059   5.387   5.172 -0.0888 -0.4802  0.6132
 4316TIP3    H234364  -0.005   5.256   5.133 -0.0004 -0.0816 -0.9242
 4317TIP3   OH234365   2.956   0.148  16.417  0.2847  0.0541  0.2031
 4317TIP3    H134366   2.964   0.136  16.512  0.2715 -1.0074  0.0796
 4317TIP3    H234367   2.909   0.071  16.387  0.9013  0.0390 -0.7548
 4318TIP3   OH234368   3.873   1.356  14.124  0.3761 -1.2466  0.3228
 4318TIP3    H134369   3.894   1.420  14.191  0.1010 -1.2787  0.4399
 4318TIP3    H234370   3.839   1.407  14.051 -0.3399 -1.3019  0.6142
 4319TIP3   OH234371   3.604   6.212  16.153  0.6583 -0.4396 -0.3810
 4319TIP3    H134372   3.697   6.210  16.128  0.7253  2.4063 -0.6931
 4319TIP3    H234373   3.566   6.280  16.097 -1.1403 -0.0380  1.2536
 4320TIP3   OH234374   2.572   2.002  14.531 -0.0346 -0.6228 -0.8031
 4320TIP3    H134375   2.555   1.925  14.586  1.6453 -0.1532  0.4761
 4320TIP3    H234376   2.568   2.076  14.591  1.1253 -0.0105 -1.4393
 4321TIP3   OH234377   5.030   5.072   2.268 -0.5745  0.0005 -0.0451
 4321TIP3    H134378   5.054   5.113   2.351 -0.9626 -0.7912  0.4664
 4321TIP3    H234379   5.114   5.054   2.225 -0.3552 -0.0598  0.4043
 4322TIP3   OH234380   3.070   2.195   1.972  0.7218  0.1693  0.5476
 4322TIP3    H134381   3.014   2.166   2.044 -0.9180  0.1539 -0.6749
 4322TIP3    H234382   3.096   2.114   1.927  0.3152  0.2686  0.1219
 4323TIP3   OH234383   3.974   1.304  11.261  0.5545 -0.1311  0.4194
 4323TIP3    H134384   4.004   1.386  11.223  3.2465 -0.9010  0.6759
 4323TIP3    H234385   3.887   1.290  11.223  0.9141  1.7671 -1.2442
 4324TIP3   OH234386   5.236   2.183  12.300 -0.5228 -0.0626  0.4104
 4324TIP3    H134387   5.245   2.105  12.355  0.0072  0.4543  1.0705
 4324TIP3    H234388   5.288   2.250  12.344 -1.6947  0.9270  0.3336
 4325TIP3   OH234389   0.384   1.798  13.494  0.5474 -0.2043  0.0846
 4325TIP3    H134390   0.306   1.747  13.471 -0.1626  1.2059 -0.8046
 4325TIP3    H234391   0.396   1.783  13.587 -1.9487  1.0028  0.6782
 4326TIP3   OH234392   2.860   0.920  11.676 -0.3726  0.6249  0.3018
 4326TIP3    H134393   2.776   0.921  11.723 -0.6642  0.1534 -0.1952
 4326TIP3    H234394   2.837   0.894  11.587  0.4250 -0.4830  0.3954
 4327TIP3   OH234395   4.756   3.918  14.125 -0.2593 -0.3568  0.1774
 4327TIP3    H134396   4.724   3.833  14.096  0.6313 -0.5907 -0.1505
 4327TIP3    H234397   4.799   3.900  14.208 -1.3506  0.0328  0.8457
 4328TIP3   OH234398   2.211   4.566  15.873  0.0176  0.0427  0.5069
 4328TIP3    H134399   2.252   4.564  15.959 -0.0237  0.7607  0.5462
 4328TIP3    H234400   2.156   4.644  15.873  0.1080  0.1196 -0.2052
 4329TIP3   OH234401   4.857   5.045  16.750 -0.3180  0.0505  0.3202
 4329TIP3    H134402   4.902   4.969  16.714 -2.3300 -1.3750  0.6034
 4329TIP3    H234403   4.908   5.120  16.721  0.2873 -1.2507 -2.2281
 4330TIP3   OH234404   4.865   5.664  11.946 -0.0253  0.1142 -0.1495
 4330TIP3    H134405   4.958   5.671  11.968  0.3132 -1.0090 -1.1391
 4330TIP3    H234406   4.821   5.666  12.031  0.8956  0.6388  0.3353
 4331TIP3   OH234407   3.067   3.143  13.731 -0.0843 -0.0869 -0.2983
 4331TIP3    H134408   3.016   3.178  13.804 -1.0604 -2.2242  0.1315
 4331TIP3    H234409   3.004   3.132  13.660  1.3624  4.9266 -2.8086
 4332TIP3   OH234410   2.657   5.374   0.158  0.1354  0.2397 -0.2355
 4332TIP3    H134411   2.668   5.465   0.185  0.3872 -0.4201  2.1535
 4332TIP3    H234412   2.744   5.335   0.170 -0.3850 -0.7083  0.5512
 4333TIP3   OH234413   0.285   1.640   0.026 -0.3824  0.2380 -0.6019
 4333TIP3    H134414   0.303   1.551   0.055 -0.8090  0.3564  0.0359
 4333TIP3    H234415   0.217   1.630  -0.041 -0.6546  0.1033 -0.3085
 4334TIP3   OH234416   2.199   4.186   6.373  0.0053 -0.4155 -0.2296
 4334TIP3    H134417   2.209   4.127   6.298  0.1257 -0.4204 -0.2106
 4334TIP3    H234418   2.283   4.181   6.418 -1.1037 -2.9308  1.7809
 4335TIP3   OH234419   5.386   6.519  13.150  0.7332  0.7474  0.0023
 4335TIP3    H134420   5.419   6.493  13.236  0.9623  0.3826 -0.1914
 4335TIP3    H234421   5.337   6.443  13.119  0.5442  0.9237 -0.1392
 4336TIP3   OH234422   2.656   0.225   6.131  0.7203  0.7515  0.2769
 4336TIP3    H134423   2.643   0.243   6.224  1.7930 -0.5825  0.7301
 4336TIP3    H234424   2.715   0.149   6.130 -0.5278 -0.2756 -1.4608
 4337TIP3   OH234425   1.553   3.941   4.190  0.6042 -0.2406  0.1405
 4337TIP3    H134426   1.527   3.849   4.181 -1.3996  0.3950 -1.3052
 4337TIP3    H234427   1.514   3.985   4.114 -0.6545  2.2550  2.0663
 4338TIP3   OH234428   1.687   0.555  11.236  0.2830  0.1698  0.6103
 4338TIP3    H134429   1.669   0.566  11.329 -0.8521 -1.8741  0.6840
 4338TIP3    H234430   1.608   0.585  11.192  1.7270  3.6186  0.0301
 4339TIP3   OH234431   1.421   6.005  12.769  0.1530 -0.3224  0.0557
 4339TIP3    H134432   1.422   6.072  12.700  0.0947  0.9752  1.2541
 4339TIP3    H234433   1.328   5.985  12.782  0.1973 -1.0903 -0.6871
 4340TIP3   OH234434   2.328   6.662   2.186  0.5114 -0.0302 -0.0150
 4340TIP3    H134435   2.405   6.719   2.183  1.0007 -0.5783  1.4795
 4340TIP3    H234436   2.255   6.720   2.162  1.1133  1.0190  0.5964
 4341TIP3   OH234437   3.022   6.419   2.253  0.0300  0.4439 -0.0304
 4341TIP3    H134438   3.056   6.447   2.168  0.3614  0.6610  0.1708
 4341TIP3    H234439   2.935   6.458   2.257  0.2871  1.0352  0.0262
 4342TIP3   OH234440   3.295   0.778   4.889 -0.1479  0.6603 -0.5745
 4342TIP3    H134441   3.333   0.722   4.956 -2.2761 -1.1996 -0.7952
 4342TIP3    H234442   3.280   0.719   4.815 -1.6304  1.7217 -1.1540
 4343TIP3   OH234443   0.723   1.265   3.295 -0.9543 -0.0356 -0.4871
 4343TIP3    H134444   0.734   1.313   3.378 -1.0651  0.1310 -0.5681
 4343TIP3    H234445   0.735   1.331   3.227  0.4724 -0.4305 -0.6481
 4344TIP3   OH234446   2.813   1.092   0.754  0.7519  0.0773  0.3244
 4344TIP3    H134447   2.850   1.168   0.709 -1.1331  0.6346 -0.4077
 4344TIP3    H234448   2.865   1.083   0.834  2.5088  0.6736 -0.6984
 4345TIP3   OH234449   3.624   6.324  13.019 -0.1298 -0.5204  0.2334
 4345TIP3    H134450   3.671   6.349  12.940 -0.6935  0.0793  0.0781
 4345TIP3    H234451   3.533   6.350  13.002 -0.3717 -0.9463  0.8341
 4346TIP3   OH234452   3.608   3.187  12.065  0.0902  0.0520  0.1537
 4346TIP3    H134453   3.622   3.126  12.138  1.2595 -0.1237 -0.1961
 4346TIP3    H234454   3.519   3.221  12.079  0.8268  1.2287  2.5693
 4347TIP3   OH234455   3.835   2.687   0.887  0.3749  0.8702  0.3834
 4347TIP3    H134456   3.925   2.688   0.920  0.3852  0.4834  0.3702
 4347TIP3    H234457   3.792   2.619   0.938  0.4207  0.1786 -0.4856
 4348TIP3   OH234458   5.884   3.784   5.969 -0.2002 -0.4941 -0.1252
 4348TIP3    H134459   5.891   3.731   6.048  0.9583  0.0131  0.1416
 4348TIP3    H234460   5.791   3.788   5.950 -0.3762 -1.8731  0.3557
 4349TIP3   OH234461   2.296   2.055   4.073 -0.1176  0.0001 -0.2340
 4349TIP3    H134462   2.281   1.989   4.140 -2.1506  0.3215 -0.3189
 4349TIP3    H234463   2.371   2.106   4.105 -0.3240 -0.5653  1.2034
 4350TIP3   OH234464   4.796   2.963   0.320 -0.1940  0.3495 -0.8832
 4350TIP3    H134465   4.767   3.022   0.390  0.2142  1.2143 -1.4280
 4350TIP3    H234466   4.717   2.915   0.295 -0.7942  1.4370 -1.1589
 4351TIP3   OH234467   1.879   6.453   5.185  0.1706  0.2916 -0.2368
 4351TIP3    H134468   1.952   6.403   5.220  0.6967  2.7611  2.5467
 4351TIP3    H234469   1.899   6.463   5.092  2.4026 -0.6587  0.0793
 4352TIP3   OH234470   0.910   1.345   6.004 -0.1190 -0.2081 -0.4584
 4352TIP3    H134471   0.967   1.300   6.067 -2.3470 -3.2540 -0.3718
 4352TIP3    H234472   0.884   1.425   6.050  0.8632 -0.7405  1.1421
 4353TIP3   OH234473   6.294   5.148  14.207 -0.1102 -0.4911  0.2369
 4353TIP3    H134474   6.238   5.169  14.281 -1.7678 -1.5607 -0.6378
 4353TIP3    H234475   6.323   5.058  14.224  1.2679 -0.0138  0.5901
 4354TIP3   OH234476   2.340   5.664  16.986 -0.2475 -0.5427 -0.0444
 4354TIP3    H134477   2.427   5.649  16.951 -0.0899  1.6812 -0.7420
 4354TIP3    H234478   2.354   5.716  17.065 -0.9522  1.4580 -1.1538
 4355TIP3   OH234479   3.417   4.053   5.003  0.0678  0.0189 -0.2522
 4355TIP3    H134480   3.461   4.030   5.085  2.0448 -1.3752 -1.6142
 4355TIP3    H234481   3.332   4.010   5.008 -0.2127  0.7079  1.4239
 4356TIP3   OH234482   6.400   0.270   4.049 -0.5830  0.1682  0.2970
 4356TIP3    H134483   6.483   0.274   4.096 -0.8452  0.6478  0.7266
 4356TIP3    H234484   6.397   0.353   4.000 -0.8023  0.1487  0.2788
 4357TIP3   OH234485   2.085   4.653   6.233 -0.8617 -0.5077  0.3330
 4357TIP3    H134486   2.023   4.691   6.295  0.9001  0.8899  1.3599
 4357TIP3    H234487   2.087   4.715   6.160  0.4344  0.3053  1.0251
 4358TIP3   OH234488   1.429   1.906  13.569 -0.0022  0.0663 -0.0155
 4358TIP3    H134489   1.402   1.946  13.486 -0.4526 -0.6441 -0.2198
 4358TIP3    H234490   1.379   1.954  13.636  0.4711  0.7374 -0.1382
 4359TIP3   OH234491   2.273   4.461   5.654  0.2413  0.5079  0.1432
 4359TIP3    H134492   2.294   4.552   5.674 -2.5447  1.5628 -1.2055
 4359TIP3    H234493   2.177   4.459   5.648  0.2104 -2.5143  0.0202
 4360TIP3   OH234494   0.650   3.520   0.841  0.3549 -0.1678 -0.1849
 4360TIP3    H134495   0.576   3.460   0.846  0.1139  0.2051  1.1522
 4360TIP3    H234496   0.675   3.520   0.748 -0.9866 -0.6906 -0.5737
 4361TIP3   OH234497   4.190   0.545   3.660  0.2763 -0.4352  0.8822
 4361TIP3    H134498   4.118   0.545   3.723 -0.5779  0.3406 -0.0776
 4361TIP3    H234499   4.191   0.456   3.624  0.2633 -0.6498  1.3975
 4362TIP3   OH234500   6.302   5.443   5.247  0.3874 -0.5757  0.1120
 4362TIP3    H134501   6.228   5.384   5.231  1.4000 -1.7126 -0.5333
 4362TIP3    H234502   6.365   5.422   5.179  1.3388  0.3581  0.6657
 4363TIP3   OH234503   3.411   5.032   3.923  0.1418 -0.1895 -0.1041
 4363TIP3    H134504   3.443   5.074   4.002  1.9659 -0.3598 -0.7068
 4363TIP3    H234505   3.463   4.952   3.915 -0.0773 -0.2283 -1.4142
 4364TIP3   OH234506   4.108   0.796  11.439 -0.3884 -0.3718  0.1955
 4364TIP3    H134507   4.036   0.843  11.481  0.3892 -0.2809  1.4535
 4364TIP3    H234508   4.125   0.845  11.358  1.4406  2.5814  2.1861
 4365TIP3   OH234509   2.313   3.822  14.962  0.0014 -0.1137 -0.0487
 4365TIP3    H134510   2.223   3.833  14.930  0.0516 -0.8109 -0.4589
 4365TIP3    H234511   2.358   3.776  14.891  0.6363  0.0755  0.2257
 4366TIP3   OH234512   3.845   5.119  13.026  0.2088  0.8979  1.0518
 4366TIP3    H134513   3.866   5.128  12.933 -0.3954 -0.3432  0.7738
 4366TIP3    H234514   3.769   5.176  13.039 -1.1315 -0.5964  0.2265
 4367TIP3   OH234515   0.623   5.187   2.475  0.0826  0.0822  0.7354
 4367TIP3    H134516   0.598   5.125   2.543 -1.3649  0.4950  0.6202
 4367TIP3    H234517   0.540   5.228   2.448  0.5265 -0.3325 -1.5203
 4368TIP3   OH234518   6.399   0.683   4.772  0.3463  0.0720  0.6394
 4368TIP3    H134519   6.346   0.608   4.747  0.3364 -0.4383  2.0943
 4368TIP3    H234520   6.481   0.644   4.805  1.8901  0.8436 -1.9866
 4369TIP3   OH234521   2.226   1.276   0.564  0.2353 -0.0675 -0.2450
 4369TIP3    H134522   2.158   1.334   0.600 -0.1104 -0.4337 -0.3019
 4369TIP3    H234523   2.180   1.196   0.542  0.6886 -0.3153 -0.3041
 4370TIP3   OH234524   6.627   6.256  12.516  0.3446 -0.0244 -0.4750
 4370TIP3    H134525   6.712   6.213  12.521 -0.1286 -1.2872 -2.2229
 4370TIP3    H234526   6.574   6.214  12.584  1.4744  1.8441  1.6983
 4371TIP3   OH234527   2.534   6.127   0.793  0.4141  0.1201  0.0886
 4371TIP3    H134528   2.586   6.125   0.873 -0.2131  0.8459  0.5291
 4371TIP3    H234529   2.487   6.210   0.796 -0.1620 -0.1561 -0.6861
 4372TIP3   OH234530   1.240   0.627   2.548 -0.0583  0.6336 -0.1067
 4372TIP3    H134531   1.163   0.582   2.583  0.6835 -0.4425  0.1918
 4372TIP3    H234532   1.251   0.591   2.460  2.1958 -2.0034  1.1246
 4373TIP3   OH234533   3.859   5.052   5.265  0.7544 -0.2073  0.1779
 4373TIP3    H134534   3.822   4.993   5.331  0.8057 -1.3686 -0.7939
 4373TIP3    H234535   3.946   5.074   5.297  0.5049 -0.1788  0.8404
 4374TIP3   OH234536   4.024   0.333   4.033  0.3958  0.0216  0.2560
 4374TIP3    H134537   4.000   0.241   4.036 -0.0652  0.1207 -0.1612
 4374TIP3    H234538   4.119   0.333   4.019  0.3149 -0.3987 -0.3470
 4375TIP3   OH234539   3.380   2.395   5.619 -0.0702 -0.6460  0.1847
 4375TIP3    H134540   3.459   2.445   5.638  0.4412 -1.2088 -0.4128
 4375TIP3    H234541   3.400   2.348   5.538 -1.2614 -0.2810 -0.3399
 4376TIP3   OH234542   5.508   1.188   3.136 -0.2639  0.2695  0.6108
 4376TIP3    H134543   5.498   1.130   3.211  1.1920  0.5092  1.0332
 4376TIP3    H234544   5.480   1.137   3.060  0.2835 -0.7247  1.0683
 4377TIP3   OH234545   0.110   0.376  13.764 -0.1593  0.4219  0.1795
 4377TIP3    H134546   0.107   0.465  13.798 -0.7912  0.3512  0.3166
 4377TIP3    H234547   0.147   0.324  13.836  2.0697  0.8609 -0.5655
 4378TIP3   OH234548   2.268   4.804  17.257 -0.8352  0.4599  0.4998
 4378TIP3    H134549   2.297   4.753  17.333  0.5671  3.0156  1.8210
 4378TIP3    H234550   2.347   4.815  17.204 -1.3568  0.3654 -0.3072
 4379TIP3   OH234551   6.421   2.053  13.935  0.3292  0.2444 -0.0316
 4379TIP3    H134552   6.476   2.131  13.938  0.0478  0.4364  0.3162
 4379TIP3    H234553   6.405   2.033  14.028 -0.9237  0.7236 -0.1207
 4380TIP3   OH234554   0.181   1.261  11.280  0.0960  0.7442  0.1897
 4380TIP3    H134555   0.253   1.231  11.225  0.1645  2.3447 -0.6493
 4380TIP3    H234556   0.103   1.220  11.241  0.2926  0.8204 -0.2916
 4381TIP3   OH234557   5.187   6.170  12.093  0.2486 -0.3030 -0.0648
 4381TIP3    H134558   5.116   6.224  12.058 -1.1677 -1.1322  1.3663
 4381TIP3    H234559   5.217   6.119  12.018 -2.7739 -2.1497 -0.2200
 4382TIP3   OH234560   3.938   5.999  12.532 -0.9055 -0.0928 -0.2025
 4382TIP3    H134561   3.949   5.905  12.520  1.0167 -0.0003  0.3881
 4382TIP3    H234562   4.017   6.026  12.580 -1.6549  1.7345  0.0832
 4383TIP3   OH234563   5.507   1.169   2.700 -0.3065 -0.0779  0.1276
 4383TIP3    H134564   5.597   1.163   2.731 -0.5359  1.0150  1.0717
 4383TIP3    H234565   5.515   1.178   2.605  0.4982 -1.3800  0.0558
 4384TIP3   OH234566   1.606   0.058  11.093  0.3500 -0.3885  0.5509
 4384TIP3    H134567   1.695   0.023  11.092  0.7514  0.5198 -1.7717
 4384TIP3    H234568   1.614   0.142  11.139  0.2500 -1.2224  2.1580
 4385TIP3   OH234569   6.340   5.136   5.016 -0.0189  0.2324 -0.1724
 4385TIP3    H134570   6.273   5.168   5.077 -0.5297  1.4648 -1.3366
 4385TIP3    H234571   6.301   5.058   4.977  0.1385 -0.3187  0.7468
 4386TIP3   OH234572   3.382   4.633  11.771 -0.3363 -0.7114 -0.0418
 4386TIP3    H134573   3.358   4.550  11.731  0.3646 -0.3660 -1.2295
 4386TIP3    H234574   3.432   4.679  11.703  0.8804 -0.0892  1.2326
 4387TIP3   OH234575   4.706   4.758  13.320 -0.0144 -0.1578 -0.2000
 4387TIP3    H134576   4.686   4.785  13.410  0.0573  0.0710 -0.2535
 4387TIP3    H234577   4.621   4.751  13.277  0.0616  2.1062 -0.8055
 4388TIP3   OH234578   0.672   1.661  16.792 -0.4261 -0.1079 -0.1936
 4388TIP3    H134579   0.767   1.649  16.794 -0.5979 -1.7466 -0.0028
 4388TIP3    H234580   0.639   1.593  16.851 -1.7871 -0.5920 -1.4656
 4389TIP3   OH234581   0.853   5.873   3.233  0.0809  0.0556  0.2697
 4389TIP3    H134582   0.825   5.894   3.322 -0.6150 -0.3963  0.1720
 4389TIP3    H234583   0.867   5.958   3.191 -0.7108  0.3011  0.4778
 4390TIP3   OH234584   6.734   5.497   3.981  0.2446  0.2248 -0.0247
 4390TIP3    H134585   6.669   5.547   3.932 -2.9564 -2.6401  0.9316
 4390TIP3    H234586   6.785   5.452   3.914  0.6708  1.7197 -0.7680
 4391TIP3   OH234587   3.083   0.536   0.065  1.2085  0.5531  0.0587
 4391TIP3    H134588   3.106   0.565   0.153 -0.0820  0.5422  0.4141
 4391TIP3    H234589   3.127   0.599   0.007  1.8250  0.7321  0.7065
 4392TIP3   OH234590   0.868   5.862  11.676 -0.4332  0.2946 -0.0142
 4392TIP3    H134591   0.850   5.945  11.633  0.1244  0.8721  0.8470
 4392TIP3    H234592   0.814   5.864  11.755 -2.5535 -1.3529 -1.2842
 4393TIP3   OH234593   3.898   1.712   5.121 -0.1123 -0.1776  0.4023
 4393TIP3    H134594   3.907   1.749   5.209 -0.5534 -1.7086  1.1278
 4393TIP3    H234595   3.952   1.633   5.123 -0.4465 -0.4433 -0.5860
 4394TIP3   OH234596   1.722   0.595   2.753 -0.0730  0.4442  0.4611
 4394TIP3    H134597   1.669   0.569   2.678  0.2871  0.2364  0.2728
 4394TIP3    H234598   1.680   0.674   2.787 -0.8208 -0.0258  0.6563
 4395TIP3   OH234599   4.765   3.593  13.267 -0.5915  0.0844  0.0614
 4395TIP3    H134600   4.685   3.611  13.217 -0.2518  0.0679 -0.4992
 4395TIP3    H234601   4.746   3.624  13.356 -1.8072 -1.4439  0.3648
 4396TIP3   OH234602   0.893   0.290   5.870 -0.0357  0.2564 -0.7443
 4396TIP3    H134603   0.957   0.250   5.812 -1.6774 -0.7996 -1.9447
 4396TIP3    H234604   0.888   0.230   5.945  0.4163  0.3815 -0.6128
 4397TIP3   OH234605   0.881   1.904   4.895  0.6756  0.5402 -0.4680
 4397TIP3    H134606   0.883   1.819   4.940 -1.4295  0.1915 -0.9186
 4397TIP3    H234607   0.876   1.968   4.965 -0.7596  0.1023 -0.1407
 4398TIP3   OH234608   3.873   3.286   0.529  0.1166  0.4954 -0.5994
 4398TIP3    H134609   3.933   3.360   0.529 -0.1729  0.7308 -0.6654
 4398TIP3    H234610   3.880   3.249   0.617  2.5483 -1.2747 -1.4033
 4399TIP3   OH234611   6.416   2.067  11.908 -0.4097  0.6472 -0.1454
 4399TIP3    H134612   6.477   2.026  11.847 -0.1843 -1.9781  1.6747
 4399TIP3    H234613   6.346   2.101  11.852  1.3744  1.3499 -2.0682
 4400TIP3   OH234614   1.186   1.085  13.076 -0.0989 -0.3482 -0.1211
 4400TIP3    H134615   1.174   1.132  13.159  2.0398  0.4395 -0.2000
 4400TIP3    H234616   1.198   0.994  13.102 -2.1631 -0.5741  0.1965
 4401TIP3   OH234617   1.646   1.230   4.125  0.0112  0.4423 -0.2133
 4401TIP3    H134618   1.559   1.231   4.086  0.4212  1.9751 -1.1603
 4401TIP3    H234619   1.630   1.220   4.219 -1.0804 -1.0335 -0.5126
 4402TIP3   OH234620   5.524   4.069   4.364  0.7419  0.0509 -0.0233
 4402TIP3    H134621   5.428   4.077   4.362  0.6655 -0.8635 -0.9407
 4402TIP3    H234622   5.555   4.139   4.307  0.7231  1.2484  1.3631
 4403TIP3   OH234623   3.179   3.542   3.300  0.0075  0.7151  0.1426
 4403TIP3    H134624   3.266   3.558   3.265  0.2642  0.5883  0.7024
 4403TIP3    H234625   3.164   3.448   3.287  0.4986  0.4741  1.2163
 4404TIP3   OH234626   4.269   5.262  12.071  0.3833 -0.4270  0.2419
 4404TIP3    H134627   4.195   5.244  12.013 -0.8928  0.5964  1.4779
 4404TIP3    H234628   4.345   5.267  12.013 -0.5424 -1.2529 -1.0966
 4405TIP3   OH234629   1.921   6.054   1.135 -0.3043  0.5234  0.0977
 4405TIP3    H134630   1.968   5.983   1.178  0.2982  0.0111 -1.3700
 4405TIP3    H234631   1.840   6.014   1.103  0.5630  0.1790 -1.7550
 4406TIP3   OH234632   3.048   3.026   2.168  0.0155 -0.1126 -0.4936
 4406TIP3    H134633   2.980   3.054   2.229  0.1070  0.6578 -0.7314
 4406TIP3    H234634   3.011   3.044   2.082  0.3499 -0.1012 -0.6352
 4407TIP3   OH234635   4.152   2.935   1.906 -0.3150  0.2424  0.4773
 4407TIP3    H134636   4.091   2.910   1.837  1.3122  0.3124 -1.0618
 4407TIP3    H234637   4.096   2.959   1.980 -2.1020 -0.4567 -0.5823
 4408TIP3   OH234638   2.376   1.254   5.957  0.4890  0.1343  0.5676
 4408TIP3    H134639   2.411   1.301   5.882 -1.7268  0.6879 -0.1933
 4408TIP3    H234640   2.368   1.321   6.025 -0.2575  0.3137  0.3151
 4409TIP3   OH234641   0.383   4.975  17.066  0.4046  0.0767 -0.2905
 4409TIP3    H134642   0.451   5.013  17.122  0.7757 -1.0804  0.0633
 4409TIP3    H234643   0.301   5.011  17.100  0.8125  1.5742 -0.7839
 4410TIP3   OH234644   5.954   1.005  12.786 -0.8993 -0.3181 -0.7250
 4410TIP3    H134645   5.986   1.080  12.736 -2.3483  0.0999 -1.1005
 4410TIP3    H234646   6.032   0.954  12.807 -0.1961 -0.3215 -3.1105
 4411TIP3   OH234647   1.023   5.480   4.356  0.3691 -0.5086  0.4050
 4411TIP3    H134648   0.987   5.396   4.329 -1.8334  0.7833 -0.9071
 4411TIP3    H234649   0.993   5.491   4.446 -1.7343  0.0499 -0.3137
 4412TIP3   OH234650   0.322   4.427   6.770 -0.1310  0.6855  0.4389
 4412TIP3    H134651   0.311   4.348   6.823  2.0424 -0.8005 -1.1700
 4412TIP3    H234652   0.259   4.416   6.698 -0.6397  1.0261  0.8190
 4413TIP3   OH234653   3.413   3.773  16.853  0.2502  0.6404  0.4415
 4413TIP3    H134654   3.472   3.849  16.853  0.7390  0.2783 -0.5803
 4413TIP3    H234655   3.329   3.809  16.826  0.6603  0.7192 -0.8323
 4414TIP3   OH234656   3.545   0.627  15.551 -0.2228 -0.7514 -0.2057
 4414TIP3    H134657   3.511   0.558  15.607 -0.3014 -2.7799 -2.5915
 4414TIP3    H234658   3.635   0.601  15.533  0.6977  1.2870  1.0157
 4415TIP3   OH234659   5.770   5.610   3.128  0.4799  0.0509  0.0598
 4415TIP3    H134660   5.711   5.542   3.098  0.1718 -0.1764  1.1286
 4415TIP3    H234661   5.802   5.652   3.048  1.8227 -2.2822 -0.7106
 4416TIP3   OH234662   1.904   1.696   1.900  0.1233  0.4777  0.7494
 4416TIP3    H134663   1.849   1.760   1.856 -1.9783 -0.9616  1.1183
 4416TIP3    H234664   1.983   1.744   1.923 -1.1134  2.7743  0.5106
 4417TIP3   OH234665   2.050   1.330  16.455  0.2325  0.0977 -0.5565
 4417TIP3    H134666   1.956   1.333  16.434  0.0829  0.2898  0.1289
 4417TIP3    H234667   2.089   1.399  16.402 -0.1885  0.7822  0.0060
 4418TIP3   OH234668   2.797   6.117   0.074  0.5656  0.0379  0.5043
 4418TIP3    H134669   2.814   6.101  -0.018  1.1547 -0.8742  0.7561
 4418TIP3    H234670   2.862   6.064   0.120  1.7192  2.1284  1.4384
 4419TIP3   OH234671   1.321   5.830  14.732 -0.4018 -0.5826  0.0552
 4419TIP3    H134672   1.235   5.789  14.724  0.4422 -2.8304  1.5382
 4419TIP3    H234673   1.359   5.792  14.811  2.1815 -0.0745 -0.8414
 4420TIP3   OH234674   2.579   1.125  13.642  0.3027  0.2739 -0.1539
 4420TIP3    H134675   2.587   1.042  13.689 -0.2780  0.2901 -0.0108
 4420TIP3    H234676   2.508   1.110  13.579  0.4231  0.5548 -0.3582
 4421TIP3   OH234677   3.384   1.802   6.560  0.0055  0.1568 -0.2438
 4421TIP3    H134678   3.372   1.717   6.603 -1.0552  0.4354  0.0340
 4421TIP3    H234679   3.444   1.783   6.487 -0.9516 -1.0269 -0.7636
 4422TIP3   OH234680   6.018   5.035  12.655  0.0213 -0.1469 -0.0095
 4422TIP3    H134681   5.938   4.996  12.621 -0.6768  0.9978  0.2580
 4422TIP3    H234682   6.068   5.061  12.578 -0.0984 -0.4143 -0.1747
 4423TIP3   OH234683   5.054   5.213  12.927  0.3148  0.1603 -0.0796
 4423TIP3    H134684   5.059   5.156  13.004 -0.4054 -0.2480 -0.3287
 4423TIP3    H234685   4.961   5.233  12.918  0.5673  1.6200  0.1726
 4424TIP3   OH234686   2.030   1.894   6.937  0.3356  0.2631  0.2499
 4424TIP3    H134687   2.043   1.884   6.842  1.2558  1.1296  0.2594
 4424TIP3    H234688   2.003   1.808   6.967 -2.1222  0.4537 -1.1106
 4425TIP3   OH234689   3.863   3.647   4.337  0.1937 -0.1756  0.0866
 4425TIP3    H134690   3.771   3.632   4.315 -0.9157  1.6329  2.9490
 4425TIP3    H234691   3.887   3.724   4.285 -0.3013  0.1057  0.2665
 4426TIP3   OH234692   4.607   0.834   0.902 -0.1055  0.2430 -0.7109
 4426TIP3    H134693   4.651   0.752   0.879  2.3455  1.0773  0.5344
 4426TIP3    H234694   4.583   0.873   0.818 -0.3057 -1.2147 -1.3560
 4427TIP3   OH234695   6.221   0.099   5.555  0.5350  0.1844  0.1875
 4427TIP3    H134696   6.161   0.125   5.624 -0.5778 -2.7610  0.4831
 4427TIP3    H234697   6.165   0.061   5.487  1.7794  0.9448 -1.3253
 4428TIP3   OH234698   1.304   3.261   4.716  0.1021  0.0190  0.0779
 4428TIP3    H134699   1.223   3.305   4.741  0.0176 -0.6826  1.1294
 4428TIP3    H234700   1.324   3.204   4.791  1.1230 -0.4275 -0.5126
 4429TIP3   OH234701   2.977   4.444   5.548 -0.3194 -0.3779 -0.2624
 4429TIP3    H134702   3.002   4.374   5.487  0.2472 -0.4450  0.0409
 4429TIP3    H234703   2.933   4.398   5.619 -1.4562 -0.2493 -0.8506
 4430TIP3   OH234704   3.120   5.241   3.592 -0.2481  0.5611  0.3994
 4430TIP3    H134705   3.152   5.311   3.535  0.1782  1.1330  1.3302
 4430TIP3    H234706   3.193   5.223   3.651 -1.0111  0.6399  1.3919
 4431TIP3   OH234707   4.818   0.997  15.069  0.2232  0.1025 -0.0334
 4431TIP3    H134708   4.872   0.945  15.129  0.7714 -0.4840 -1.0117
 4431TIP3    H234709   4.764   0.932  15.024 -0.9587  0.6383  0.5710
 4432TIP3   OH234710   3.158   2.939  12.877 -0.5248  0.5046  0.3421
 4432TIP3    H134711   3.245   2.962  12.909 -0.7356 -0.5912  1.8365
 4432TIP3    H234712   3.117   2.894  12.951 -1.7203 -0.5415 -0.9071
 4433TIP3   OH234713   5.728   4.660  12.946 -0.1656  0.3571  0.1562
 4433TIP3    H134714   5.691   4.730  12.892  0.8401  2.2139  1.7313
 4433TIP3    H234715   5.651   4.610  12.975 -0.9512  0.9870 -0.7461
 4434TIP3   OH234716   0.873   5.526  15.022 -0.3600 -0.5492  0.6246
 4434TIP3    H134717   0.877   5.536  15.117 -0.3252 -0.8866  0.6617
 4434TIP3    H234718   0.822   5.446  15.009 -0.2472 -0.5800  0.3628
 4435TIP3   OH234719   4.518   3.734  16.108  0.0177  0.2722 -0.3168
 4435TIP3    H134720   4.466   3.732  16.188  1.4396 -0.0527  0.6292
 4435TIP3    H234721   4.576   3.658  16.116 -1.3435 -1.1656 -2.7428
 4436TIP3   OH234722   0.695   3.373  15.059  0.2833  0.3557  0.6143
 4436TIP3    H134723   0.650   3.325  15.128 -0.1626  1.1705  0.9102
 4436TIP3    H234724   0.674   3.465  15.076  0.5894  0.6103 -0.3043
 4437TIP3   OH234725   2.892   1.346  13.086 -0.0585 -0.5278  0.0355
 4437TIP3    H134726   2.865   1.276  13.146  0.4402 -0.9842 -0.2633
 4437TIP3    H234727   2.832   1.338  13.012 -0.7418  0.1012  0.4986
 4438TIP3   OH234728   0.836   3.414   6.030  0.1492 -0.8715 -0.6509
 4438TIP3    H134729   0.917   3.369   6.056  0.4453  0.0884  0.1469
 4438TIP3    H234730   0.770   3.382   6.091  0.3661 -0.2417 -0.0654
 4439TIP3   OH234731   1.926   4.351  15.564 -0.2415 -0.0322  0.0405
 4439TIP3    H134732   2.020   4.346  15.577 -0.3016 -0.2351  0.4228
 4439TIP3    H234733   1.889   4.347  15.653 -0.6210 -0.3421 -0.1250
 4440TIP3   OH234734   3.232   3.083   6.152 -0.3123  0.0753 -0.0432
 4440TIP3    H134735   3.222   2.999   6.197  1.1062 -0.3241 -0.4078
 4440TIP3    H234736   3.193   3.069   6.066 -1.8465  0.4287  0.5662
 4441TIP3   OH234737   4.546   1.970   4.134 -0.3715  0.2734  0.3419
 4441TIP3    H134738   4.603   1.896   4.151 -1.0724 -0.3533  0.0092
 4441TIP3    H234739   4.598   2.047   4.158  0.0494 -0.3667  1.5471
 4442TIP3   OH234740   6.083   2.842  15.921 -0.3717  0.3620 -0.0573
 4442TIP3    H134741   6.014   2.906  15.903  0.5099  1.1269 -0.7778
 4442TIP3    H234742   6.150   2.859  15.855 -0.2110 -1.4733 -0.4202
 4443TIP3   OH234743   5.647   4.905  11.306 -0.3063  0.1700 -0.9367
 4443TIP3    H134744   5.661   4.999  11.294  0.2907  0.3030  0.5583
 4443TIP3    H234745   5.572   4.884  11.250 -2.0988  2.0547  0.6005
 4444TIP3   OH234746   0.209   0.975   1.829  1.4114 -0.3125 -0.1962
 4444TIP3    H134747   0.282   1.021   1.871  0.5015  0.1396  0.9454
 4444TIP3    H234748   0.246   0.941   1.748  2.4990  1.2148 -0.3902
 4445TIP3   OH234749   2.527   5.844   3.396  0.5661 -0.3216 -1.2032
 4445TIP3    H134750   2.481   5.900   3.333  1.4781  0.2244 -1.3942
 4445TIP3    H234751   2.595   5.801   3.343  0.1556 -1.2827 -0.9689
 4446TIP3   OH234752   3.814   0.557  15.468  0.4291  0.0217  0.0518
 4446TIP3    H134753   3.808   0.506  15.548  1.4899  0.4687  0.4353
 4446TIP3    H234754   3.908   0.575  15.458  0.1188  1.5675 -0.2709
 4447TIP3   OH234755   3.284   6.377  15.527 -0.3524 -0.1504 -0.5164
 4447TIP3    H134756   3.268   6.349  15.437  1.9322  1.8052 -1.6542
 4447TIP3    H234757   3.210   6.342  15.577 -1.7200 -1.2626 -3.1372
 4448TIP3   OH234758   4.787   3.613  15.956  0.3738 -0.1100 -0.5283
 4448TIP3    H134759   4.877   3.582  15.966 -0.2699 -1.6558  1.1989
 4448TIP3    H234760   4.748   3.602  16.043 -2.1481 -1.8260 -1.7267
 4449TIP3   OH234761   0.258   3.412   4.726 -0.1701  0.5631  0.3270
 4449TIP3    H134762   0.312   3.344   4.687  0.8370  1.5990 -0.1335
 4449TIP3    H234763   0.189   3.364   4.773  0.6084 -0.7611  0.1639
 4450TIP3   OH234764   4.437   1.647  11.967 -0.3016  0.0712 -0.1564
 4450TIP3    H134765   4.509   1.679  11.912 -0.6126  0.6487 -0.2360
 4450TIP3    H234766   4.467   1.562  11.998  0.7369  0.6129  0.3962
 4451TIP3   OH234767   5.133   1.889  11.622 -0.4315  0.3325 -0.6415
 4451TIP3    H134768   5.194   1.859  11.689  0.3105  2.7716 -0.0998
 4451TIP3    H234769   5.049   1.848  11.644  0.0931  0.1110  1.0487
 4452TIP3   OH234770   5.079   1.482   5.576  0.0776  0.3435  0.1548
 4452TIP3    H134771   5.015   1.514   5.512  0.4054  0.6967 -0.0026
 4452TIP3    H234772   5.138   1.556   5.589  0.9109 -0.2288 -0.2957
 4453TIP3   OH234773   4.322   0.229  12.642 -0.2455 -0.1662  0.0858
 4453TIP3    H134774   4.232   0.195  12.647  0.0034 -0.6638  2.0976
 4453TIP3    H234775   4.375   0.152  12.623  0.0545 -0.5454  2.1906
 4454TIP3   OH234776   3.790   3.967   5.587  0.4516  0.9465 -0.4828
 4454TIP3    H134777   3.874   3.993   5.625 -0.4599  0.8245  1.7682
 4454TIP3    H234778   3.778   4.025   5.513  2.7924  0.5525 -1.2333
 4455TIP3   OH234779   4.238   6.588  16.675 -0.2220 -0.4756  0.0933
 4455TIP3    H134780   4.177   6.604  16.603  0.3701  0.4303 -0.2296
 4455TIP3    H234781   4.324   6.608  16.637 -0.0086  1.2955  1.4079
 4456TIP3   OH234782   0.125   1.301   4.502 -0.5384  0.0367  0.1377
 4456TIP3    H134783   0.059   1.341   4.559 -2.3094 -1.2494 -0.9100
 4456TIP3    H234784   0.092   1.213   4.486  1.2286 -0.4888 -0.8108
 4457TIP3   OH234785   2.030   3.609   4.739 -0.9895  0.2941 -0.1528
 4457TIP3    H134786   2.011   3.661   4.661  1.5590  0.9789 -0.4338
 4457TIP3    H234787   2.050   3.674   4.807 -2.8845 -0.2976  1.0386
 4458TIP3   OH234788   2.241   3.579  11.039 -0.6188 -0.2719  0.0091
 4458TIP3    H134789   2.159   3.589  10.991 -0.4170  1.4627 -0.0645
 4458TIP3    H234790   2.308   3.618  10.982 -0.3848  1.9092  1.5969
 4459TIP3   OH234791   0.322   3.638   3.501 -0.7871  0.6938 -0.6315
 4459TIP3    H134792   0.373   3.719   3.510  0.1916  0.1657 -1.2416
 4459TIP3    H234793   0.387   3.568   3.509 -1.7091 -0.0729  0.5191
 4460TIP3   OH234794   4.194   2.798  14.237  0.0458 -0.3508 -0.2218
 4460TIP3    H134795   4.158   2.833  14.319  0.2627 -0.4766 -0.0706
 4460TIP3    H234796   4.188   2.870  14.175 -0.7533 -0.4655 -0.2841
 4461TIP3   OH234797   1.767   5.683   2.847  0.0984 -0.0222  0.2635
 4461TIP3    H134798   1.784   5.588   2.851  3.6852  0.4531 -0.6956
 4461TIP3    H234799   1.694   5.691   2.785  0.3617 -2.0809 -0.4089
 4462TIP3   OH234800   4.048   5.146  14.054 -0.7922 -0.3161  0.1589
 4462TIP3    H134801   4.073   5.077  13.992  0.5182 -1.7647  2.1758
 4462TIP3    H234802   3.953   5.137  14.061 -1.2020  0.8439 -2.6282
 4463TIP3   OH234803   1.723   4.546   6.115 -0.0537  0.0765 -0.0277
 4463TIP3    H134804   1.707   4.632   6.076  0.3686  0.1829  0.0282
 4463TIP3    H234805   1.671   4.546   6.195  0.8575  0.7329  0.5756
 4464TIP3   OH234806   0.380   0.873   1.612  0.4420  0.0975  0.0270
 4464TIP3    H134807   0.447   0.900   1.675 -0.1220 -0.4570  0.8784
 4464TIP3    H234808   0.417   0.795   1.571  0.4086 -0.0955  0.3577
 4465TIP3   OH234809   1.303   6.730  14.783  0.4851  0.3134  0.1674
 4465TIP3    H134810   1.213   6.697  14.785  1.0133 -1.2225  1.3666
 4465TIP3    H234811   1.299   6.813  14.830 -0.3559  0.4206 -0.0773
 4466TIP3   OH234812   4.847   1.396  11.062  0.3029 -0.4593 -0.1251
 4466TIP3    H134813   4.799   1.420  10.983  0.2560 -0.5693 -0.1293
 4466TIP3    H234814   4.886   1.311  11.041  1.8756  0.3734 -0.7399
 4467TIP3   OH234815   5.549   1.671   1.409 -0.1041  0.4475  0.1851
 4467TIP3    H134816   5.553   1.598   1.470 -1.5395  1.2275  1.2834
 4467TIP3    H234817   5.457   1.675   1.382  0.3558  0.5920 -1.4555
 4468TIP3   OH234818   0.431   3.589   5.519 -0.1553 -0.1188  0.2761
 4468TIP3    H134819   0.511   3.641   5.525 -0.9021  1.3274 -1.3680
 4468TIP3    H234820   0.369   3.633   5.577 -0.4533  0.2048 -0.2743
 4469TIP3   OH234821   2.839   2.442  13.544  0.3043  0.1198 -0.3533
 4469TIP3    H134822   2.933   2.428  13.539  0.6580  0.9530  2.3655
 4469TIP3    H234823   2.805   2.366  13.592 -0.0178  0.9435  0.7699
 4470TIP3   OH234824   0.190   2.445   5.320 -0.2938  0.8373 -0.0413
 4470TIP3    H134825   0.118   2.478   5.265  1.1648  1.1983 -1.8398
 4470TIP3    H234826   0.260   2.510   5.310  1.6383 -1.3022 -1.3933
 4471TIP3   OH234827   3.849   1.522   1.569  0.7594 -0.0295 -0.5772
 4471TIP3    H134828   3.774   1.474   1.605  0.4460  0.3604 -0.7102
 4471TIP3    H234829   3.866   1.480   1.485  0.2884  0.2919 -0.8343
 4472TIP3   OH234830   3.185   2.685   1.820 -0.2626  0.3990 -0.3478
 4472TIP3    H134831   3.128   2.670   1.745  1.3424 -1.1037 -1.3491
 4472TIP3    H234832   3.172   2.609   1.876 -1.1177  1.2986  0.7284
 4473TIP3   OH234833   6.198   6.432   2.720  0.0748 -0.1472  0.7677
 4473TIP3    H134834   6.108   6.422   2.688  0.5488 -3.3341  0.1081
 4473TIP3    H234835   6.197   6.517   2.766 -2.5258  1.1731 -1.4165
 4474TIP3   OH234836   6.109   0.227   6.285  0.2789 -0.2824  0.0638
 4474TIP3    H134837   6.140   0.286   6.216  1.5896 -1.0053 -0.0185
 4474TIP3    H234838   6.014   0.224   6.274  0.5181 -1.2216 -2.4529
 4475TIP3   OH234839   2.308   4.201   5.968 -0.2532  0.5130 -0.4696
 4475TIP3    H134840   2.227   4.246   5.992 -0.9261 -0.7607 -0.2827
 4475TIP3    H234841   2.322   4.137   6.038 -0.3167 -0.8068 -1.6112
 4476TIP3   OH234842   1.603   0.802   1.377  0.3175 -0.9728  0.6187
 4476TIP3    H134843   1.691   0.776   1.406  1.2455  0.9877 -0.2600
 4476TIP3    H234844   1.619   0.863   1.306 -1.6714  1.2432  1.9425
 4477TIP3   OH234845   3.581   1.792   4.687 -1.0894 -0.0314 -0.1587
 4477TIP3    H134846   3.578   1.888   4.681  0.0109  0.1441  1.4691
 4477TIP3    H234847   3.672   1.770   4.670 -1.2899 -0.7808 -0.2736
 4478TIP3   OH234848   4.494   5.291  11.264  0.3073 -0.0977 -0.8801
 4478TIP3    H134849   4.549   5.220  11.230  0.0776 -0.2473 -0.9462
 4478TIP3    H234850   4.451   5.328  11.187  0.5108  0.1861 -0.8580
 4479TIP3   OH234851   1.297   2.277  12.326  0.1634  0.4538  0.1965
 4479TIP3    H134852   1.298   2.371  12.342 -0.1622  0.4152  0.4416
 4479TIP3    H234853   1.207   2.258  12.299  0.4369  0.3525 -0.7001
 4480TIP3   OH234854   1.004   1.641  12.121  0.4708  0.4432 -0.2828
 4480TIP3    H134855   0.979   1.714  12.064 -0.0231 -0.8079 -1.7331
 4480TIP3    H234856   1.076   1.675  12.173 -0.8506  2.5063  0.3144
 4481TIP3   OH234857   0.885   0.433   5.635  0.0999 -0.3701  0.2659
 4481TIP3    H134858   0.827   0.374   5.587  2.2617 -2.5811  0.1409
 4481TIP3    H234859   0.891   0.395   5.723 -0.5121  1.2254  1.0346
 4482TIP3   OH234860   5.243   2.768  13.859  0.1742 -0.1649  0.4662
 4482TIP3    H134861   5.245   2.798  13.768  1.2675  0.9485  0.8315
 4482TIP3    H234862   5.150   2.769  13.883 -0.0731  0.0003 -0.4729
 4483TIP3   OH234863   0.630   1.739   4.878 -0.3347  0.3830  0.4038
 4483TIP3    H134864   0.557   1.758   4.820 -1.7250 -0.5701  1.7445
 4483TIP3    H234865   0.682   1.819   4.879 -1.9376  1.4685  0.2067
 4484TIP3   OH234866   1.785   3.805   0.678  0.7473  0.5121  1.0721
 4484TIP3    H134867   1.739   3.723   0.658  0.2231  0.5081  2.2518
 4484TIP3    H234868   1.773   3.817   0.772  1.0359  1.8219  0.9540
 4485TIP3   OH234869   3.301   2.035  16.864 -0.0352 -0.5153  0.0871
 4485TIP3    H134870   3.277   2.071  16.949  1.3825  1.0868 -0.1318
 4485TIP3    H234871   3.303   1.940  16.878  0.8941 -0.2614  2.0571
 4486TIP3   OH234872   2.635   3.197  15.697 -0.6169 -0.2793  0.1928
 4486TIP3    H134873   2.701   3.254  15.659 -0.1011 -0.7891  0.3035
 4486TIP3    H234874   2.663   3.108  15.674 -0.8328 -0.5432  0.8976
 4487TIP3   OH234875   3.086   3.539   3.549  0.3923  0.2722 -0.0561
 4487TIP3    H134876   3.108   3.555   3.457  0.0251  0.5003 -0.1044
 4487TIP3    H234877   3.156   3.581   3.598  0.7724 -0.1429 -0.2381
 4488TIP3   OH234878   2.982   6.565  13.914  0.2430 -0.1749  0.0013
 4488TIP3    H134879   3.017   6.548  14.001  0.0715 -0.0119  0.1031
 4488TIP3    H234880   3.056   6.553  13.855 -0.3876 -3.9783 -0.2635
 4489TIP3   OH234881   5.976   2.762  16.340 -0.4129  0.1467 -0.1607
 4489TIP3    H134882   6.045   2.828  16.347 -0.1169 -0.2957  2.0348
 4489TIP3    H234883   5.947   2.749  16.431 -1.3421 -1.8161 -0.6826
 4490TIP3   OH234884   4.209   6.100  12.630 -0.7893 -0.0172  0.5636
 4490TIP3    H134885   4.298   6.086  12.598 -0.4703 -0.9685  1.7694
 4490TIP3    H234886   4.178   6.177  12.582  0.3633 -0.1787 -0.4983
 4491TIP3   OH234887   0.986   3.628   3.948 -0.1340  0.1555  0.7839
 4491TIP3    H134888   1.079   3.645   3.931  0.1702 -1.8191  0.1622
 4491TIP3    H234889   0.942   3.710   3.927  0.8423 -0.3212 -4.4860
 4492TIP3   OH234890   3.063   3.479   1.403  0.3940  0.0038  0.0086
 4492TIP3    H134891   2.997   3.519   1.460 -0.4075  1.1449 -1.6416
 4492TIP3    H234892   3.036   3.387   1.397 -0.7045  0.3255 -0.1566
 4493TIP3   OH234893   1.742   4.926   4.351  0.0376  0.1366 -0.1606
 4493TIP3    H134894   1.722   4.958   4.440 -0.9337 -0.4041 -0.1731
 4493TIP3    H234895   1.659   4.891   4.319  0.1861  1.0171 -1.5845
 4494TIP3   OH234896   0.752   0.902   5.178  0.0513 -0.4191  0.3992
 4494TIP3    H134897   0.828   0.880   5.232  0.3431 -1.5066 -0.4074
 4494TIP3    H234898   0.779   0.980   5.129  2.3028 -2.9415 -2.8468
 4495TIP3   OH234899   4.503   1.651   1.950  0.3690  0.2102  0.7962
 4495TIP3    H134900   4.553   1.692   2.020 -1.5877  1.2608  1.6541
 4495TIP3    H234901   4.412   1.675   1.968 -0.2287  0.4286 -2.0434
 4496TIP3   OH234902   4.977   0.190   0.046  0.3037 -0.3014 -0.1996
 4496TIP3    H134903   4.970   0.120   0.111  1.8134 -1.8393 -1.6133
 4496TIP3    H234904   4.927   0.158  -0.029  0.3476  0.5043 -0.5840
 4497TIP3   OH234905   5.388   4.663  14.995 -0.0035 -0.1300  0.7006
 4497TIP3    H134906   5.404   4.758  14.989 -0.6063 -0.0865 -0.6042
 4497TIP3    H234907   5.339   4.653  15.077  0.5900  0.5936  1.1698
 4498TIP3   OH234908   2.501   2.927  15.161  0.1478  0.3146  0.2805
 4498TIP3    H134909   2.431   2.869  15.193  0.0167  0.7810  0.8420
 4498TIP3    H234910   2.467   3.015  15.175  0.1885  0.5436 -0.9268
 4499TIP3   OH234911   4.795   1.233  12.128  0.2753  0.0770 -0.5833
 4499TIP3    H134912   4.786   1.140  12.108 -0.4098  0.0111  0.0025
 4499TIP3    H234913   4.814   1.274  12.044  0.9161 -0.6318 -0.7883
 4500TIP3   OH234914   6.015   5.306  10.938  0.0551 -0.1491  0.2379
 4500TIP3    H134915   6.096   5.255  10.933  0.9808  1.2322  0.6271
 4500TIP3    H234916   6.010   5.352  10.855 -0.1494  0.0335  0.3507
 4501TIP3   OH234917   6.198   1.635  11.792  0.2620  0.0043  0.7077
 4501TIP3    H134918   6.234   1.698  11.855 -1.5750  2.8813 -0.9285
 4501TIP3    H234919   6.103   1.645  11.799 -0.0916 -2.1590 -0.1331
 4502TIP3   OH234920   1.217   2.257   1.368  0.4400 -0.3710  0.2660
 4502TIP3    H134921   1.157   2.190   1.336  0.6936  0.4339 -2.1311
 4502TIP3    H234922   1.287   2.209   1.412 -1.2198 -1.4014  1.9498
 4503TIP3   OH234923   5.569   0.416   4.725 -0.3830 -0.2328 -0.1104
 4503TIP3    H134924   5.503   0.370   4.674  0.7705 -3.2505  0.8683
 4503TIP3    H234925   5.521   0.453   4.800 -1.4212  0.6122 -1.1650
 4504TIP3   OH234926   3.826   3.092   4.988  0.4212 -0.1078 -0.2429
 4504TIP3    H134927   3.789   3.177   5.016  1.3981  0.2995 -0.1623
 4504TIP3    H234928   3.841   3.045   5.070  0.1332 -0.2545 -0.2734
 4505TIP3   OH234929   1.332   3.644   2.037  0.4926 -0.0692 -0.2255
 4505TIP3    H134930   1.342   3.698   1.959 -1.0547 -0.9857 -1.0875
 4505TIP3    H234931   1.328   3.554   2.005  2.2887 -0.6922  1.1307
 4506TIP3   OH234932   3.668   6.525   1.355  0.2098  0.6084 -0.9971
 4506TIP3    H134933   3.672   6.620   1.345  1.3147  0.5945 -0.8458
 4506TIP3    H234934   3.590   6.499   1.306  0.0419  1.5637 -1.2583
 4507TIP3   OH234935   0.736   5.161   5.529 -0.7541  0.0618  0.3431
 4507TIP3    H134936   0.750   5.135   5.620  1.5642 -0.1692 -0.0247
 4507TIP3    H234937   0.713   5.254   5.534 -1.3241 -0.1082  1.1776
 4508TIP3   OH234938   1.480   3.488   5.009 -0.2661 -0.0674 -0.5425
 4508TIP3    H134939   1.575   3.491   5.015 -0.1801  0.6812 -1.8089
 4508TIP3    H234940   1.454   3.418   5.069  1.0538 -0.1401 -0.0176
 4509TIP3   OH234941   1.672   2.013   4.085  0.3364  0.1694 -0.1625
 4509TIP3    H134942   1.645   2.104   4.098 -0.2921 -0.1252  0.7189
 4509TIP3    H234943   1.591   1.967   4.062  0.1813 -0.5776  1.6828
 4510TIP3   OH234944   4.207   1.403   5.505  0.2092  0.5958  0.5339
 4510TIP3    H134945   4.155   1.405   5.585  0.8582  1.1730  0.9533
 4510TIP3    H234946   4.150   1.362   5.440  0.5530 -2.1905  1.8776
 4511TIP3   OH234947   2.234   6.491  16.455 -0.0657 -0.0285  0.0324
 4511TIP3    H134948   2.299   6.483  16.525  0.4866 -2.5843 -0.6881
 4511TIP3    H234949   2.169   6.423  16.474 -0.3893 -0.1630 -1.4499
 4512TIP3   OH234950   5.376   1.220  17.036 -0.1201  0.0215 -0.3824
 4512TIP3    H134951   5.314   1.154  17.004 -0.3341  0.7047 -1.4419
 4512TIP3    H234952   5.396   1.273  16.959 -0.7455  1.8406  0.6535
 4513TIP3   OH234953   4.695   0.721   1.854 -0.6683  0.6456  0.6423
 4513TIP3    H134954   4.666   0.630   1.856 -2.0841  1.0453 -0.2905
 4513TIP3    H234955   4.700   0.743   1.761 -0.8429  1.6759  0.8606
 4514TIP3   OH234956   0.284   4.127   0.035 -0.3936 -0.6256 -1.1569
 4514TIP3    H134957   0.348   4.067  -0.002  0.2653 -0.2083 -0.7246
 4514TIP3    H234958   0.202   4.079   0.034  0.1145 -1.5277 -0.8369
 4515TIP3   OH234959   2.133   3.783   3.354  0.0591 -0.3507 -0.1520
 4515TIP3    H134960   2.074   3.708   3.346  0.3068 -0.8652  2.1448
 4515TIP3    H234961   2.171   3.775   3.441  2.2790  0.8970 -0.9027
 4516TIP3   OH234962   0.033   1.894  16.421  0.4138 -0.5230  0.0740
 4516TIP3    H134963   0.038   1.882  16.516  0.0348 -0.4148  0.1083
 4516TIP3    H234964   0.122   1.918  16.395  0.8510 -1.9313  0.1970
 4517TIP3   OH234965   6.247   6.099   5.941  0.4594 -0.4751 -0.1581
 4517TIP3    H134966   6.206   6.163   5.882  0.9850  1.5861  1.5930
 4517TIP3    H234967   6.340   6.122   5.940  0.5332 -0.6400  1.1481
 4518TIP3   OH234968   5.320   5.035   3.396 -0.0459 -0.3370  0.2110
 4518TIP3    H134969   5.377   4.985   3.338  0.0247 -1.8629  1.5429
 4518TIP3    H234970   5.365   5.034   3.480 -0.8383  0.6103  0.6655
 4519TIP3   OH234971   1.082   3.590  15.013 -0.7899 -0.1146 -0.1377
 4519TIP3    H134972   1.035   3.551  15.087 -1.8299  0.2630 -0.5694
 4519TIP3    H234973   1.015   3.642  14.968 -0.2053 -0.4341 -1.4170
 4520TIP3   OH234974   3.467   4.246   4.610 -0.0141  0.0585 -0.0126
 4520TIP3    H134975   3.384   4.271   4.650  0.5233  0.2873  0.9910
 4520TIP3    H234976   3.504   4.328   4.577 -0.6416 -0.1821 -1.3924
 4521TIP3   OH234977   5.138   4.226   0.570  0.2311 -0.3031  0.4117
 4521TIP3    H134978   5.151   4.234   0.475 -0.0080  0.3327  0.4226
 4521TIP3    H234979   5.112   4.135   0.583  1.6550 -0.7959  0.0435
 4522TIP3   OH234980   3.065   1.078  15.952  0.5641 -0.2603  0.1265
 4522TIP3    H134981   3.146   1.063  15.903  0.0254 -1.7676 -0.3670
 4522TIP3    H234982   3.046   1.170  15.939  1.7133 -0.0959 -0.5270
 4523TIP3   OH234983   2.675   3.037   2.712  0.1894  0.4510 -0.1560
 4523TIP3    H134984   2.597   2.986   2.691  0.5434 -0.7688  1.2877
 4523TIP3    H234985   2.641   3.121   2.743 -0.5899 -0.1520  0.6837
 4524TIP3   OH234986   5.879   3.332   4.650  0.2233 -0.5127 -0.4898
 4524TIP3    H134987   5.916   3.417   4.673 -0.4586 -0.1997 -0.5569
 4524TIP3    H234988   5.840   3.345   4.564 -1.6551 -0.3547  0.3574
 4525TIP3   OH234989   4.853   3.321   1.211  0.2254 -0.4831  0.2698
 4525TIP3    H134990   4.925   3.367   1.168  0.5758 -0.2448  1.0876
 4525TIP3    H234991   4.789   3.389   1.232  1.8587  0.1951  3.7977
 4526TIP3   OH234992   3.134   5.309   4.440 -0.3787 -0.2776  0.0926
 4526TIP3    H134993   3.051   5.288   4.398 -0.0915 -0.0698 -0.6161
 4526TIP3    H234994   3.196   5.313   4.367  0.2110 -0.2469  0.5910
 4527TIP3   OH234995   2.422   4.901   3.548  0.0608  0.0335  0.1007
 4527TIP3    H134996   2.358   4.900   3.619  0.0194  2.7149  0.2056
 4527TIP3    H234997   2.507   4.896   3.592 -0.0112 -0.6253  0.1678
 4528TIP3   OH234998   6.239   0.431   2.039  0.0854  0.3672  0.0595
 4528TIP3    H134999   6.195   0.482   2.106  0.5567  0.2957  0.4345
 4528TIP3    H235000   6.276   0.356   2.087  0.1938  0.1724 -0.3243
 4529TIP3   OH235001   2.420   3.527  14.185 -0.2397 -0.3288 -0.4823
 4529TIP3    H135002   2.441   3.491  14.271 -0.6034 -0.7536 -0.5697
 4529TIP3    H235003   2.336   3.487  14.162 -0.2836  0.0037 -0.9085
 4530TIP3   OH235004   4.999   2.573   0.207 -0.1149 -0.4521  0.1101
 4530TIP3    H135005   4.950   2.501   0.246 -1.7738  0.2988 -0.4867
 4530TIP3    H235006   4.960   2.584   0.121 -0.9785  2.1585  0.7669
 4531TIP3   OH235007   4.026   2.029   5.038 -0.0944  0.1758  0.0788
 4531TIP3    H135008   4.091   2.017   5.107 -0.5748 -2.8164  0.1639
 4531TIP3    H235009   4.075   2.019   4.957  0.1129  1.5556  0.0175
 4532TIP3   OH235010   6.662   6.512   5.513 -0.2698  0.5733  0.3390
 4532TIP3    H135011   6.611   6.586   5.480  0.2545  0.7788 -0.0123
 4532TIP3    H235012   6.740   6.551   5.552  0.6892  0.1454 -1.0704
 4533TIP3   OH235013   2.362   3.468  12.095  0.4023  0.1602  0.2541
 4533TIP3    H135014   2.431   3.486  12.158  0.0758 -0.3316  0.7700
 4533TIP3    H235015   2.307   3.546  12.096 -0.1082 -0.1913  1.2701
 4534TIP3   OH235016   1.377   5.552   0.286  0.2384 -0.2594  0.1102
 4534TIP3    H135017   1.441   5.586   0.225  0.9688 -0.1048  0.9474
 4534TIP3    H235018   1.352   5.467   0.250  1.3086 -0.5548  0.0421
 4535TIP3   OH235019   1.929   6.255  11.909 -0.2155  0.1465  0.5335
 4535TIP3    H135020   1.990   6.204  11.857 -0.4583 -0.2567  0.6384
 4535TIP3    H235021   1.842   6.225  11.880 -0.3524 -0.2005  1.2740
 4536TIP3   OH235022   4.961   1.872  15.434 -0.0781  0.0369  0.0143
 4536TIP3    H135023   4.954   1.853  15.340 -0.3285  1.0725 -0.1997
 4536TIP3    H235024   4.931   1.963  15.441  1.8983  0.6760  0.7944
 4537TIP3   OH235025   1.298   1.007  16.560 -0.1010  0.7895  0.5700
 4537TIP3    H135026   1.294   1.087  16.613  1.9694  0.6058  1.0800
 4537TIP3    H235027   1.305   0.936  16.624 -0.4713  0.3050  0.0882
 4538TIP3   OH235028   2.439   3.490  11.590  0.6815  0.4649 -0.3014
 4538TIP3    H135029   2.422   3.410  11.639 -0.5819 -0.7135 -2.5216
 4538TIP3    H235030   2.440   3.559  11.657 -1.4641 -0.9655  1.3484
 4539TIP3   OH235031   1.978   1.318  16.779 -0.2042 -0.1617  0.3673
 4539TIP3    H135032   2.014   1.241  16.735  1.8441  0.6731  0.4367
 4539TIP3    H235033   1.950   1.375  16.707 -0.1891 -0.2948  0.2551
 4540TIP3   OH235034   3.785   5.706   4.549  0.0906  0.0849  0.2605
 4540TIP3    H135035   3.710   5.725   4.492 -0.8286 -2.2051  0.5980
 4540TIP3    H235036   3.861   5.716   4.492 -0.4461  2.1104 -0.1843
 4541TIP3   OH235037   1.282   1.243  13.541  0.0623  0.5537 -0.3348
 4541TIP3    H135038   1.333   1.168  13.510 -2.4108 -0.6838 -1.8495
 4541TIP3    H235039   1.262   1.223  13.632  0.9741  0.3115 -0.1809
 4542TIP3   OH235040   0.280   4.765  14.319 -0.4976  0.3541  0.6651
 4542TIP3    H135041   0.271   4.801  14.407 -2.5231  1.9710 -0.1188
 4542TIP3    H235042   0.191   4.738  14.295  0.1083 -0.5760 -0.7031
 4543TIP3   OH235043   0.818   6.720   5.629  0.0119 -0.1955  0.7322
 4543TIP3    H135044   0.779   6.802   5.598 -0.6454 -1.5739 -2.5323
 4543TIP3    H235045   0.904   6.718   5.588  0.9269 -0.2016  2.5710
 4544TIP3   OH235046   6.341   0.864  11.720  0.3362 -0.1951  0.0662
 4544TIP3    H135047   6.328   0.837  11.629 -0.5332  2.3103 -0.6561
 4544TIP3    H235048   6.323   0.786  11.772 -1.2765 -1.1503 -1.8226
 4545TIP3   OH235049   0.446   1.573  11.620  0.2015  0.4207  0.0760
 4545TIP3    H135050   0.411   1.645  11.674  0.4729  1.0497 -0.5635
 4545TIP3    H235051   0.442   1.496  11.677 -1.7900  0.5539  0.2020
 4546TIP3   OH235052   2.293   5.074  14.995 -0.0882  0.7308 -0.2851
 4546TIP3    H135053   2.290   5.131  14.918  0.5752  1.4006  0.1686
 4546TIP3    H235054   2.344   4.999  14.967 -0.0261  0.8734 -0.5614
 4547TIP3   OH235055   2.101   4.644   0.886 -0.1050  0.4814 -0.4819
 4547TIP3    H135056   2.031   4.708   0.877  0.0665  0.7598  0.1516
 4547TIP3    H235057   2.159   4.662   0.812 -1.5382 -0.8316 -2.0088
 4548TIP3   OH235058   5.404   1.460  16.096 -0.2855  0.3873  0.0159
 4548TIP3    H135059   5.488   1.504  16.103 -0.1588  0.3829 -1.3450
 4548TIP3    H235060   5.342   1.521  16.136  0.2053  0.8431  0.0904
 4549TIP3   OH235061   3.570   5.095  13.324 -0.0241 -0.4109  0.0577
 4549TIP3    H135062   3.543   5.032  13.392 -1.4368 -0.2149 -0.2918
 4549TIP3    H235063   3.510   5.078  13.251  0.0604  0.8403 -0.3177
 4550TIP3   OH235064   3.736   6.150   3.222  0.0477  0.4900 -0.0624
 4550TIP3    H135065   3.717   6.059   3.197  0.0380  0.0829  1.3406
 4550TIP3    H235066   3.651   6.189   3.239  0.1283  0.2695  0.9105
 4551TIP3   OH235067   5.195   6.317  13.064  0.2355 -0.0822  0.1506
 4551TIP3    H135068   5.163   6.241  13.114  0.4911 -0.7131 -0.6223
 4551TIP3    H235069   5.121   6.377  13.062 -0.6483 -1.1491 -0.8803
 4552TIP3   OH235070   6.509   2.701   2.919  0.7796 -0.0567  0.0729
 4552TIP3    H135071   6.417   2.695   2.896  1.0512  0.7594 -1.3002
 4552TIP3    H235072   6.513   2.672   3.010 -0.7983 -0.2559  0.0955
 4553TIP3   OH235073   4.224   3.063   5.482  0.1809  0.0116 -0.1269
 4553TIP3    H135074   4.231   3.156   5.505 -0.2503 -0.4022  1.9574
 4553TIP3    H235075   4.315   3.034   5.473  0.3156  0.6446 -0.9155
 4554TIP3   OH235076   1.206   3.803   3.326 -0.3489 -0.5775  0.5433
 4554TIP3    H135077   1.301   3.800   3.331 -0.2384  1.5165  0.3825
 4554TIP3    H235078   1.187   3.793   3.232 -0.2683 -0.6582  0.5358
 4555TIP3   OH235079   2.854   1.594  16.513 -0.3487 -0.7493 -0.4075
 4555TIP3    H135080   2.902   1.549  16.583 -0.6180  2.8775  2.3801
 4555TIP3    H235081   2.922   1.640  16.463 -0.4769  0.7079  0.6991
 4556TIP3   OH235082   5.491   0.036  11.468  0.0413  0.0879  0.1468
 4556TIP3    H135083   5.562   0.096  11.490  1.3908 -0.1491 -3.0024
 4556TIP3    H235084   5.439   0.083  11.403 -2.4953  0.0364  1.9883
 4557TIP3   OH235085   4.844   1.676   1.457  0.2299 -0.6851  0.2888
 4557TIP3    H135086   4.918   1.668   1.397  0.8814 -0.5234  1.0581
 4557TIP3    H235087   4.798   1.593   1.448 -0.6122 -0.0682 -1.6091
 4558TIP3   OH235088   2.469   5.227  13.078  0.2029 -0.3545  0.8476
 4558TIP3    H135089   2.498   5.136  13.064  0.6362 -0.3230  1.4763
 4558TIP3    H235090   2.485   5.270  12.994 -1.0452 -1.1183  0.1928
 4559TIP3   OH235091   4.766   2.242  13.126 -0.1560 -0.0782 -0.1558
 4559TIP3    H135092   4.737   2.253  13.036 -2.2865 -0.7401  0.3891
 4559TIP3    H235093   4.826   2.168  13.123  0.0586  0.1243 -1.0852
 4560TIP3   OH235094   6.460   6.402  11.972  0.0456  0.0175  0.4868
 4560TIP3    H135095   6.532   6.451  12.010  0.0006 -0.7718  1.6199
 4560TIP3    H235096   6.474   6.312  12.001  0.3199 -0.7471 -1.8192
 4561TIP3   OH235097   0.742   6.414  17.008 -0.3704 -0.1225 -0.1184
 4561TIP3    H135098   0.742   6.457  17.094 -0.1017  0.3240 -0.3379
 4561TIP3    H235099   0.650   6.395  16.991 -0.5506  0.7448 -0.2000
 4562TIP3   OH235100   3.187   0.776  15.791 -0.0651 -0.0635  0.0648
 4562TIP3    H135101   3.259   0.797  15.731 -2.5032  2.9329 -2.1056
 4562TIP3    H235102   3.182   0.852  15.849 -1.2577 -0.3788  0.3867
 4563TIP3   OH235103   4.263   3.174  15.687 -0.8208 -0.6265  0.3043
 4563TIP3    H135104   4.350   3.149  15.657 -0.1645  0.2478  1.4272
 4563TIP3    H235105   4.252   3.264  15.656  0.0781  0.4875  2.9803
 4564TIP3   OH235106   3.949   0.508  12.016 -0.4924  0.4572 -0.5566
 4564TIP3    H135107   3.859   0.476  12.020 -0.0191 -1.5798 -3.0464
 4564TIP3    H235108   3.999   0.447  12.071 -0.7529  2.6208  2.2737
 4565TIP3   OH235109   1.122   1.956  16.156  0.0230 -0.0196  0.4130
 4565TIP3    H135110   1.058   2.025  16.141 -0.1405 -0.2502  0.0397
 4565TIP3    H235111   1.076   1.891  16.209  0.7252  0.9905  2.3851
 4566TIP3   OH235112   0.956   1.682   1.446  0.2384 -0.1359  0.3206
 4566TIP3    H135113   0.974   1.768   1.483 -2.6665  0.9640 -0.5967
 4566TIP3    H235114   0.991   1.686   1.357 -0.8405  0.5349 -0.0908
 4567TIP3   OH235115   5.657   0.773  16.787  0.1703 -0.1038  0.2485
 4567TIP3    H135116   5.648   0.684  16.821 -1.8849 -0.1129 -0.2008
 4567TIP3    H235117   5.656   0.762  16.692 -3.7373  0.5558  0.0555
 4568TIP3   OH235118   5.539   0.427   1.614 -0.5003 -0.3856  0.0454
 4568TIP3    H135119   5.581   0.505   1.577 -0.5305  0.3511  1.5073
 4568TIP3    H235120   5.553   0.359   1.548  0.5303  0.5596 -0.7506
 4569TIP3   OH235121   1.557   4.232   3.228  0.6176 -0.0775  0.3694
 4569TIP3    H135122   1.466   4.212   3.209  0.3888  1.2013  0.0626
 4569TIP3    H235123   1.581   4.172   3.298 -0.4372 -0.4497  0.4189
 4570TIP3   OH235124   5.739   1.392  16.839  0.7521 -0.3884 -0.4209
 4570TIP3    H135125   5.741   1.386  16.744 -0.3400 -1.1658 -0.4040
 4570TIP3    H235126   5.649   1.417  16.860  0.9881 -0.1862  0.4175
 4571TIP3   OH235127   0.758   4.905   1.177 -0.3024  0.3223  0.1692
 4571TIP3    H135128   0.768   4.955   1.096 -1.0906  2.3284  1.2324
 4571TIP3    H235129   0.843   4.863   1.190 -0.5727 -1.2429 -2.3813
 4572TIP3   OH235130   3.266   4.313  16.718 -0.5144 -0.2436  0.4010
 4572TIP3    H135131   3.230   4.330  16.632 -0.9486 -1.0539  0.4164
 4572TIP3    H235132   3.353   4.353  16.716 -0.2486 -0.8417 -0.6468
 4573TIP3   OH235133   1.052   4.030  16.678  0.2489 -0.1819 -0.1361
 4573TIP3    H135134   0.996   4.060  16.607  1.3941 -1.2156 -1.5469
 4573TIP3    H235135   1.140   4.028  16.640  0.5142 -3.5345  0.3379
 4574TIP3   OH235136   3.686   0.380  11.992  0.2413 -0.5811  0.0485
 4574TIP3    H135137   3.615   0.410  11.936  0.3001  0.3172  0.4391
 4574TIP3    H235138   3.643   0.326  12.059 -0.2980  1.1892  1.1811
 4575TIP3   OH235139   3.118   3.049   4.702 -0.5287 -0.2851 -0.4369
 4575TIP3    H135140   3.137   2.960   4.730 -0.4457 -0.2379 -0.3406
 4575TIP3    H235141   3.197   3.099   4.724  0.1112 -0.5269 -2.0850
 4576TIP3   OH235142   0.449   4.773   1.701 -0.1027  0.4390  0.2172
 4576TIP3    H135143   0.384   4.754   1.633 -0.3650  2.0397 -0.0210
 4576TIP3    H235144   0.420   4.722   1.777 -1.0639  0.3628 -0.1886
 4577TIP3   OH235145   4.029   5.852   2.117 -0.3884  0.4879 -0.0975
 4577TIP3    H135146   4.029   5.798   2.038 -1.5533 -0.8229  0.7420
 4577TIP3    H235147   3.942   5.892   2.119 -0.1740  0.9406  0.2450
 4578TIP3   OH235148   2.254   5.170   1.035 -0.6540 -0.2452 -0.0283
 4578TIP3    H135149   2.211   5.177   0.950 -1.3715 -0.4043  0.3079
 4578TIP3    H235150   2.187   5.200   1.098 -0.9092 -2.1861  0.6741
 4579TIP3   OH235151   6.312   1.513   1.033 -0.2149 -0.4825  0.4988
 4579TIP3    H135152   6.321   1.566   1.112  0.9981  0.3936 -0.1925
 4579TIP3    H235153   6.329   1.423   1.062 -0.1391 -0.2186  1.2931
 4580TIP3   OH235154   5.021   5.962   4.290 -0.5522 -0.1057  0.6879
 4580TIP3    H135155   5.066   5.991   4.369 -0.4324 -0.2120  0.6588
 4580TIP3    H235156   5.009   5.868   4.302  1.9392 -0.6960 -0.6036
 4581TIP3   OH235157   2.713   1.954   1.361  0.3433  0.3323  0.2545
 4581TIP3    H135158   2.761   1.871   1.370 -0.7514 -0.4971 -1.0744
 4581TIP3    H235159   2.622   1.930   1.377  0.1917  1.6716  1.6408
 4582TIP3   OH235160   1.375   1.817   0.057 -0.3394 -0.1457 -0.0237
 4582TIP3    H135161   1.295   1.862   0.032 -0.9835 -1.5344 -0.5588
 4582TIP3    H235162   1.348   1.728   0.077  1.1172 -0.7583 -0.5954
 4583TIP3   OH235163   2.788   3.486   3.746  0.0057 -0.2490  0.0663
 4583TIP3    H135164   2.879   3.501   3.721  0.2442 -1.2792  0.2727
 4583TIP3    H235165   2.792   3.461   3.838 -0.3843 -1.2098 -0.1658
 4584TIP3   OH235166   4.843   4.063  14.533  0.0255 -0.1469 -0.1881
 4584TIP3    H135167   4.874   4.126  14.468 -1.0907  0.1739 -0.4329
 4584TIP3    H235168   4.765   4.103  14.570  0.4089 -0.5158  1.0641
 4585TIP3   OH235169   1.313   1.643   0.361 -0.1374  0.2014 -0.1169
 4585TIP3    H135170   1.249   1.592   0.410  0.1160  0.4758  0.5020
 4585TIP3    H235171   1.343   1.584   0.292 -0.7620 -0.0602 -0.1743
 4586TIP3   OH235172   5.636   2.790   6.462  0.0571 -0.1666  0.1274
 4586TIP3    H135173   5.669   2.701   6.458  0.6685  0.0740 -0.4751
 4586TIP3    H235174   5.579   2.798   6.385  0.6644  0.2069 -0.2927
 4587TIP3   OH235175   1.138   4.376   6.680 -0.1092 -0.1779 -0.5062
 4587TIP3    H135176   1.221   4.328   6.682 -1.3220 -2.4137  0.3982
 4587TIP3    H235177   1.137   4.426   6.762  1.2193  1.5904 -1.5101
 4588TIP3   OH235178   0.014   2.592   5.528 -0.1193  0.3567 -0.1045
 4588TIP3    H135179   0.020   2.520   5.591 -2.0660  0.7980  0.6570
 4588TIP3    H235180   0.054   2.557   5.448  0.2646 -1.0461  0.6596
 4589TIP3   OH235181   4.286   3.520   3.817 -0.5395 -0.7271 -0.5985
 4589TIP3    H135182   4.239   3.453   3.767 -1.2744  0.5877 -1.7927
 4589TIP3    H235183   4.329   3.573   3.749  1.2677 -0.8769  0.3941
 4590TIP3   OH235184   2.841   3.014  15.102 -0.2188  0.2521 -0.3129
 4590TIP3    H135185   2.841   2.981  15.192  0.1650 -0.4111 -0.5451
 4590TIP3    H235186   2.777   3.086  15.102  0.3010  0.7306  0.6516
 4591TIP3   OH235187   3.547   3.537  15.322  0.2045 -0.1399  0.0459
 4591TIP3    H135188   3.513   3.461  15.370 -0.0267 -0.9284 -1.2934
 4591TIP3    H235189   3.482   3.552  15.253  0.7301  0.6841 -0.2766
 4592TIP3   OH235190   5.176   5.177  17.043  0.6311  0.2252 -0.1794
 4592TIP3    H135191   5.165   5.215  17.130  1.3037  0.1201 -0.0478
 4592TIP3    H235192   5.113   5.224  16.988 -0.7038 -0.5631  0.6203
 4593TIP3   OH235193   2.928   1.360   1.462  0.0363  0.0997  0.0750
 4593TIP3    H135194   2.927   1.450   1.430  0.1531  0.3788  0.8532
 4593TIP3    H235195   3.017   1.347   1.495 -0.2253 -0.0148  0.7537
 4594TIP3   OH235196   0.134   5.742  14.700  0.0474  0.3780  0.1227
 4594TIP3    H135197   0.047   5.759  14.737 -0.1679  1.2099 -0.7368
 4594TIP3    H235198   0.127   5.656  14.659 -0.4619  0.5646 -0.1886
 4595TIP3   OH235199   3.108   5.473   0.938 -0.1541  0.4813 -0.6391
 4595TIP3    H135200   3.097   5.439   1.027 -2.1850 -2.6275 -1.8895
 4595TIP3    H235201   3.025   5.516   0.918 -0.2020  0.0615 -1.4068
 4596TIP3   OH235202   5.675   1.226  14.888 -0.7143 -0.2479 -0.0902
 4596TIP3    H135203   5.715   1.144  14.858 -1.6784 -0.4718 -0.8004
 4596TIP3    H235204   5.603   1.198  14.944 -1.3739  0.0923 -0.7540
 4597TIP3   OH235205   2.249   1.579   6.561  0.4536 -0.0954 -0.6986
 4597TIP3    H135206   2.250   1.504   6.503 -2.8276 -0.0458 -0.9792
 4597TIP3    H235207   2.336   1.618   6.552  1.1249 -1.9676 -3.0225
 4598TIP3   OH235208   1.469   1.728   5.051  0.0435  0.1416  0.1069
 4598TIP3    H135209   1.378   1.702   5.043 -0.2953  0.9294  1.0967
 4598TIP3    H235210   1.471   1.783   5.130  0.9586  1.8670 -1.0511
 4599TIP3   OH235211   1.919   0.434   6.156  0.7240  0.1908  0.3486
 4599TIP3    H135212   1.853   0.366   6.144  1.9451 -0.8606 -0.7530
 4599TIP3    H235213   1.933   0.470   6.068  3.1779 -1.1824  0.0825
 4600TIP3   OH235214   1.123   6.134   5.233  0.2756 -0.3301 -0.2931
 4600TIP3    H135215   1.090   6.053   5.271  1.8913 -1.0766 -0.4204
 4600TIP3    H235216   1.080   6.140   5.147  2.2292 -2.5856 -1.5341
 4601TIP3   OH235217   4.530   0.599  14.722 -0.0260 -0.1280 -0.3589
 4601TIP3    H135218   4.563   0.650  14.648 -0.9218 -0.8778 -1.3322
 4601TIP3    H235219   4.481   0.661  14.775  0.0464  0.3001 -0.7856
 4602TIP3   OH235220   6.290   2.540  11.615 -0.4775 -0.4765 -0.6242
 4602TIP3    H135221   6.281   2.625  11.659 -0.6885 -0.8496  0.0862
 4602TIP3    H235222   6.218   2.538  11.552 -1.1639 -0.5648  0.1308
 4603TIP3   OH235223   4.022   0.305  16.101  0.0408  0.2693 -0.0235
 4603TIP3    H135224   3.959   0.270  16.164 -0.6483  0.4178 -0.6162
 4603TIP3    H235225   4.102   0.319  16.152 -0.2285 -0.4428  0.6187
 4604TIP3   OH235226   3.029   2.814  13.751 -0.1958 -0.2163  0.0949
 4604TIP3    H135227   3.057   2.904  13.770 -0.5894  0.1517 -1.0523
 4604TIP3    H235228   3.077   2.790  13.672 -1.4659 -0.3620 -0.6491
 4605TIP3   OH235229   5.531   2.889   2.512 -0.0671 -0.1518 -0.1605
 4605TIP3    H135230   5.593   2.962   2.517 -0.8767  0.5972 -0.8061
 4605TIP3    H235231   5.483   2.892   2.595  0.0408 -0.0805 -0.1011
 4606TIP3   OH235232   4.760   1.184  14.670 -0.6950 -0.4146 -0.6776
 4606TIP3    H135233   4.743   1.278  14.682 -0.4545 -0.6479  2.3163
 4606TIP3    H235234   4.855   1.177  14.673 -0.7058 -0.7517 -1.0771
 4607TIP3   OH235235   6.404   0.449  13.133 -0.3848 -0.1897 -0.5626
 4607TIP3    H135236   6.391   0.536  13.171 -1.6721 -0.1987 -0.9271
 4607TIP3    H235237   6.498   0.433  13.142 -0.5464  0.0198  2.0714
 4608TIP3   OH235238   3.903   2.044   2.038 -0.1964 -0.0773  0.1851
 4608TIP3    H135239   3.932   2.009   1.953 -0.3999  0.5780 -0.1632
 4608TIP3    H235240   3.818   2.004   2.052 -0.1699 -0.1779  0.0633
 4609TIP3   OH235241   2.976   4.917   5.298  0.5251 -0.3525 -0.2379
 4609TIP3    H135242   3.065   4.922   5.334  0.8705 -0.6238 -1.0179
 4609TIP3    H235243   2.934   4.999   5.325  0.6262 -0.7204  1.1094
 4610TIP3   OH235244   5.126   1.096   4.221 -0.6411 -0.0283  0.4315
 4610TIP3    H135245   5.075   1.065   4.297  0.0644 -0.2797  0.8096
 4610TIP3    H235246   5.135   1.190   4.236 -0.1358 -0.1429  0.8934
 4611TIP3   OH235247   0.058   2.556   3.612  0.5951 -0.1267  0.3465
 4611TIP3    H135248   0.027   2.488   3.671  1.4111 -0.4382  0.4392
 4611TIP3    H235249   0.127   2.601   3.661  0.5807  0.2765  0.0066
 4612TIP3   OH235250   1.523   0.180  13.129  0.1267  0.6057 -0.6230
 4612TIP3    H135251   1.546   0.273  13.124 -0.3473  0.7596  0.0003
 4612TIP3    H235252   1.575   0.139  13.060 -0.3328  1.4687 -1.5087
 4613TIP3   OH235253   3.796   0.853   3.422 -0.7074  0.2914  0.6615
 4613TIP3    H135254   3.838   0.938   3.410 -0.1375 -0.2449 -1.7554
 4613TIP3    H235255   3.713   0.861   3.376 -0.1140 -0.7833 -0.6728
 4614TIP3   OH235256   5.009   1.980   4.326 -0.6076 -0.3550 -0.3106
 4614TIP3    H135257   4.932   1.980   4.383 -0.9593  3.0145 -0.5727
 4614TIP3    H235258   5.076   2.026   4.376  0.0053  0.1259 -1.5362
 4615TIP3   OH235259   3.848   2.214  16.342  0.1110  0.1115 -0.0981
 4615TIP3    H135260   3.791   2.174  16.408  0.0644 -0.6644 -0.5995
 4615TIP3    H235261   3.888   2.288  16.387  1.3310 -1.3353  1.3555
 4616TIP3   OH235262   1.074   6.711   0.255 -0.2699 -0.1877  0.0762
 4616TIP3    H135263   1.105   6.737   0.168 -0.8741 -1.4237 -0.5276
 4616TIP3    H235264   1.153   6.679   0.299  0.4295  2.1850  0.7177
 4617TIP3   OH235265   4.705   1.136   1.544 -0.0327 -0.4800  0.3710
 4617TIP3    H135266   4.669   1.120   1.631 -0.7075 -1.6740 -0.0976
 4617TIP3    H235267   4.780   1.076   1.538  1.7068  1.4991  1.0844
 4618TIP3   OH235268   5.224   3.090   3.457  0.4108 -0.3582 -0.0459
 4618TIP3    H135269   5.216   3.155   3.526  0.3415 -0.1887 -0.2126
 4618TIP3    H235270   5.148   3.033   3.468 -0.6346  0.7631 -1.1254
 4619TIP3   OH235271   5.483   1.120  11.717 -0.2876 -0.5702 -0.3236
 4619TIP3    H135272   5.425   1.101  11.791 -1.5072 -1.1318 -1.3673
 4619TIP3    H235273   5.424   1.156  11.650  1.1855  2.5483 -0.1082
 4620TIP3   OH235274   5.407   2.458   2.332 -0.3384 -0.1214 -0.1678
 4620TIP3    H135275   5.373   2.401   2.400  1.4590 -0.9740  0.0755
 4620TIP3    H235276   5.420   2.401   2.256 -3.5878  1.0464 -1.8220
 4621TIP3   OH235277   4.840   5.685   3.498  0.0245 -0.0673 -0.4829
 4621TIP3    H135278   4.786   5.651   3.569  1.5634  0.3408  0.9458
 4621TIP3    H235279   4.825   5.625   3.425 -1.7364 -0.3914  0.0908
 4622TIP3   OH235280   0.687   2.965  14.983  0.2638 -0.3339  0.7028
 4622TIP3    H135281   0.604   2.989  15.024 -0.4544  0.5192 -1.1740
 4622TIP3    H235282   0.687   2.870  14.983 -0.4454 -0.3439  1.2296
 4623TIP3   OH235283   4.032   0.181  13.605  0.2711  0.5167 -0.5032
 4623TIP3    H135284   4.121   0.197  13.572  0.0915  0.0245 -1.2261
 4623TIP3    H235285   4.043   0.175  13.700  1.3317 -1.4876 -0.7019
 4624TIP3   OH235286   1.690   6.748   6.281  0.2167 -0.1647  0.7679
 4624TIP3    H135287   1.700   6.656   6.307 -1.3082 -0.1912  1.3740
 4624TIP3    H235288   1.605   6.773   6.317  0.3104  1.2896  0.0152
 4625TIP3   OH235289   2.825   3.708   3.427  0.0386  0.0781 -0.0170
 4625TIP3    H135290   2.893   3.699   3.494  0.8707  1.1699 -0.6723
 4625TIP3    H235291   2.747   3.734   3.475  0.6481  0.9564  0.5236
 4626TIP3   OH235292   5.360   1.410   1.323 -0.5615  0.0375 -0.9975
 4626TIP3    H135293   5.451   1.410   1.294 -0.7402  1.0299 -1.6058
 4626TIP3    H235294   5.317   1.342   1.272 -0.6666  1.1477 -2.4530
 4627TIP3   OH235295   3.118   0.329  14.805 -0.0908 -0.2966  0.2443
 4627TIP3    H135296   3.099   0.259  14.868  1.1106 -0.5649  0.3273
 4627TIP3    H235297   3.033   0.369  14.788 -0.6980 -1.3312  0.7224
 4628TIP3   OH235298   5.893   3.209  14.271  0.2460  0.1384 -0.0608
 4628TIP3    H135299   5.921   3.181  14.358 -0.1123 -1.5941 -0.4740
 4628TIP3    H235300   5.966   3.261  14.237 -0.5227  2.9242  2.1565
 4629TIP3   OH235301   5.633   0.276   2.660  0.0484  0.2529 -0.1836
 4629TIP3    H135302   5.714   0.241   2.697 -0.3748 -2.4496 -1.6154
 4629TIP3    H235303   5.661   0.334   2.590  0.7403  0.4571  0.2550
 4630TIP3   OH235304   6.485   1.747   3.749 -0.1925  0.0267 -0.1642
 4630TIP3    H135305   6.543   1.813   3.710  1.3523  0.3778  2.5116
 4630TIP3    H235306   6.486   1.675   3.686  0.6379  1.2623 -1.6571
 4631TIP3   OH235307   2.872   4.026  15.788  0.2574 -0.8591  0.2326
 4631TIP3    H135308   2.837   3.956  15.733  4.0277 -1.4295 -1.7259
 4631TIP3    H235309   2.928   3.981  15.851  0.2734  0.2224  1.0186
 4632TIP3   OH235310   0.151   0.873   4.638  0.3574  0.4198  0.5975
 4632TIP3    H135311   0.098   0.924   4.576 -0.3512 -3.1267 -2.0673
 4632TIP3    H235312   0.093   0.859   4.713 -1.7097 -1.1735 -1.1482
 4633TIP3   OH235313   6.226   3.953  15.409 -0.2781  0.1336 -0.4973
 4633TIP3    H135314   6.208   3.869  15.452 -0.0033  1.4393  2.4308
 4633TIP3    H235315   6.288   3.997  15.467 -0.2198  2.2761 -2.0568
 4634TIP3   OH235316   2.494   4.775   4.942 -0.4959 -0.0061 -0.0397
 4634TIP3    H135317   2.522   4.693   4.901 -1.9490 -0.5430  0.0020
 4634TIP3    H235318   2.531   4.772   5.030 -1.2531 -1.0454  0.2617
 4635TIP3   OH235319   0.156   5.678   1.459  0.7313  0.5195 -0.1144
 4635TIP3    H135320   0.138   5.613   1.527  0.3899 -0.2683 -0.9448
 4635TIP3    H235321   0.072   5.694   1.418  1.3877 -1.3044 -2.3529
 4636TIP3   OH235322   3.158   5.947  10.787 -0.0374  0.0941 -0.0424
 4636TIP3    H135323   3.187   6.014  10.725  1.6757  1.5734  2.1986
 4636TIP3    H235324   3.124   5.876  10.732  3.5648  0.2420 -2.8305
 4637TIP3   OH235325   1.251   1.128  11.683  0.1590  0.1400  0.1908
 4637TIP3    H135326   1.167   1.133  11.728  0.1866 -1.7057  0.5286
 4637TIP3    H235327   1.230   1.134  11.590 -0.2037  0.9046  0.3162
 4638TIP3   OH235328   5.512   1.893  11.907 -0.4558 -0.3494  0.2284
 4638TIP3    H135329   5.520   1.963  11.842 -5.0073  0.7365  0.5345
 4638TIP3    H235330   5.542   1.933  11.989 -0.5444  0.3605 -0.0754
 4639TIP3   OH235331   5.706   2.635  11.157 -0.6042 -0.0486  0.8013
 4639TIP3    H135332   5.781   2.580  11.135 -0.1908  0.8910 -0.2735
 4639TIP3    H235333   5.630   2.585  11.128 -0.3358 -0.6198  1.0706
 4640TIP3   OH235334   1.246   2.549  12.365  0.2772 -0.2611 -0.0567
 4640TIP3    H135335   1.296   2.555  12.447  1.4101  0.9991 -0.7832
 4640TIP3    H235336   1.215   2.638  12.350 -0.9541 -0.7387 -0.3885
 4641TIP3   OH235337   4.893   2.658   4.971 -0.0578 -0.5516 -0.1667
 4641TIP3    H135338   4.940   2.657   4.887  1.9923  0.5251  0.8898
 4641TIP3    H235339   4.886   2.566   4.996  1.8271 -0.7334 -0.2074
 4642TIP3   OH235340   5.248   6.373   3.685  0.0014 -0.0770 -0.1064
 4642TIP3    H135341   5.181   6.391   3.619 -0.0387 -0.3142 -0.1305
 4642TIP3    H235342   5.284   6.288   3.660  0.6814  0.2874 -0.4008
 4643TIP3   OH235343   1.581   3.372  16.860 -0.0085  0.8271  0.3107
 4643TIP3    H135344   1.612   3.307  16.797  0.2186 -1.0250  2.1945
 4643TIP3    H235345   1.657   3.389  16.916 -0.6495  1.0887  1.1196
 4644TIP3   OH235346   3.560   6.268   4.378 -0.3498  0.2426  0.0316
 4644TIP3    H135347   3.523   6.335   4.436 -1.2732  0.2022 -0.4986
 4644TIP3    H235348   3.649   6.255   4.411 -0.9648 -0.0577  1.6907
 4645TIP3   OH235349   0.034   3.636   2.170  0.0516  0.0248  0.0362
 4645TIP3    H135350   0.050   3.676   2.256 -0.1882 -1.2582  0.7163
 4645TIP3    H235351   0.117   3.591   2.149  0.6734  1.6703 -1.1988
 4646TIP3   OH235352   0.736   5.288  14.720  0.1216  0.8060  0.1137
 4646TIP3    H135353   0.769   5.198  14.723  0.5982  0.9838  0.3992
 4646TIP3    H235354   0.770   5.323  14.638  1.5233  1.3077  0.8833
 4647TIP3   OH235355   0.459   0.083  17.340 -0.4019 -0.2360  0.2997
 4647TIP3    H135356   0.508   0.097  17.421 -0.4007  1.0171  0.0939
 4647TIP3    H235357   0.372   0.057  17.370 -1.0314  2.1796  0.8106
 4648TIP3   OH235358   4.939   1.263   5.686  0.0511 -0.2543 -0.9843
 4648TIP3    H135359   4.984   1.314   5.618  0.2471  0.4928 -0.3130
 4648TIP3    H235360   4.965   1.305   5.768 -1.7514  0.1211 -0.5547
 4649TIP3   OH235361   3.257   1.256   3.088 -0.2198 -0.1903 -0.2057
 4649TIP3    H135362   3.348   1.283   3.095 -0.0870 -0.4862 -0.7529
 4649TIP3    H235363   3.228   1.288   3.003 -0.3389 -0.9167 -0.4503
 4650TIP3   OH235364   4.400   2.774   0.928 -0.5191  0.0446  0.2577
 4650TIP3    H135365   4.407   2.860   0.969  3.1259  0.3906 -0.7117
 4650TIP3    H235366   4.412   2.791   0.835  0.6021 -1.4981  0.0889
 4651TIP3   OH235367   0.423   1.257   1.213  0.2743  0.3849  0.1755
 4651TIP3    H135368   0.484   1.188   1.239 -0.8204  0.1601  2.4539
 4651TIP3    H235369   0.336   1.216   1.218 -0.6851  2.3152  3.9810
 4652TIP3   OH235370   2.978   1.107  12.762 -0.4900 -0.1283 -0.1960
 4652TIP3    H135371   3.047   1.059  12.808 -1.0534 -1.3788 -0.6413
 4652TIP3    H235372   2.908   1.116  12.826 -0.9080 -1.0608 -0.5191
 4653TIP3   OH235373   5.359   0.741   3.910 -0.1105 -0.7205  0.4036
 4653TIP3    H135374   5.380   0.660   3.957 -1.2756  0.4097  3.0663
 4653TIP3    H235375   5.331   0.802   3.979 -1.5989  1.1824 -1.7532
 4654TIP3   OH235376   2.048   1.296  11.643 -0.5185  0.4906 -0.6408
 4654TIP3    H135377   2.143   1.306  11.632 -0.3923  1.1884  0.8072
 4654TIP3    H235378   2.016   1.384  11.659 -0.9908 -0.0191  1.5640
 4655TIP3   OH235379   4.599   3.628  14.120  0.2088  0.4050 -0.2645
 4655TIP3    H135380   4.526   3.575  14.088  0.6412 -0.1095 -0.3982
 4655TIP3    H235381   4.619   3.592  14.206  1.1457 -0.2918 -0.7675
 4656TIP3   OH235382   3.607   6.081   2.261 -0.0750  1.0842  0.9631
 4656TIP3    H135383   3.514   6.102   2.255  0.2689  2.8161  1.0277
 4656TIP3    H235384   3.643   6.115   2.179  0.2408 -1.3000  0.0423
 4657TIP3   OH235385   3.808   4.544   2.577  0.0247  0.1081  0.1064
 4657TIP3    H135386   3.872   4.558   2.646  0.4060 -0.5843 -0.1042
 4657TIP3    H235387   3.839   4.467   2.529  1.7162  2.5622 -3.0702
 4658TIP3   OH235388   0.353   2.283  11.383 -0.6620  0.1433 -0.2021
 4658TIP3    H135389   0.435   2.272  11.431 -1.1432  0.4459  0.7208
 4658TIP3    H235390   0.379   2.289  11.291  0.3733  0.4604  0.0976
 4659TIP3   OH235391   0.653   5.623   1.653  0.2268  0.5452  0.0682
 4659TIP3    H135392   0.589   5.554   1.668  0.4138  0.4738  0.5452
 4659TIP3    H235393   0.730   5.578   1.619  1.1213  0.2195  2.3954
 4660TIP3   OH235394   3.100   4.489   6.361  0.5672  0.8909 -0.0923
 4660TIP3    H135395   3.080   4.569   6.410 -1.3553  0.1369  0.4203
 4660TIP3    H235396   3.017   4.442   6.356  0.9597  0.3290 -3.0255
 4661TIP3   OH235397   5.179   1.687   5.188  0.3944  0.3081 -0.5895
 4661TIP3    H135398   5.103   1.678   5.247  0.7771 -1.0614 -0.2586
 4661TIP3    H235399   5.149   1.652   5.105  0.4599  0.3859 -0.6457
 4662TIP3   OH235400   0.952   3.561  15.272  0.0312 -0.2798 -0.5500
 4662TIP3    H135401   1.000   3.590  15.349  1.7218 -2.1902 -0.8069
 4662TIP3    H235402   0.861   3.558  15.301  0.5769 -0.5902  1.2655
 4663TIP3   OH235403   4.059   2.801  16.939  0.1432  0.0544  0.3559
 4663TIP3    H135404   4.062   2.709  16.966 -0.5360  0.3034  1.3501
 4663TIP3    H235405   4.080   2.799  16.846 -0.9824 -1.2332  0.0830
 4664TIP3   OH235406   5.291   4.683  17.383 -0.0799  0.1890 -0.1880
 4664TIP3    H135407   5.269   4.758  17.326  1.6084  1.1577  0.3594
 4664TIP3    H235408   5.374   4.650  17.347  0.7917  0.5498  1.4125
 4665TIP3   OH235409   2.534   1.880  11.660 -0.1560  0.2773  0.1237
 4665TIP3    H135410   2.614   1.879  11.712  0.5888  1.7885 -0.9451
 4665TIP3    H235411   2.489   1.799  11.684  1.1235 -0.0279  1.6011
 4666TIP3   OH235412   2.630   0.167  14.656  0.0918  0.2323  0.6002
 4666TIP3    H135413   2.669   0.080  14.658  2.0413  0.9745 -1.6069
 4666TIP3    H235414   2.580   0.169  14.574  1.9734  1.8789 -0.5869
 4667TIP3   OH235415   6.280   2.267   3.588  0.4730  0.0414 -0.0834
 4667TIP3    H135416   6.269   2.359   3.609  1.2350 -0.2278  1.6147
 4667TIP3    H235417   6.195   2.228   3.607  0.0829  0.4102 -1.0144
 4668TIP3   OH235418   1.013   1.228  16.171  0.0135 -0.2934  0.2362
 4668TIP3    H135419   1.007   1.150  16.227  1.0266 -0.6267 -0.1033
 4668TIP3    H235420   1.016   1.194  16.082 -1.0141  0.2169 -0.0124
 4669TIP3   OH235421   5.463   2.224   2.735 -0.3214 -0.3994 -0.8225
 4669TIP3    H135422   5.428   2.289   2.674 -0.4456 -0.6417 -1.0107
 4669TIP3    H235423   5.490   2.151   2.680 -0.3778 -0.5960 -0.5913
 4670TIP3   OH235424   3.831   2.180  15.728  0.3121  0.4181  0.1449
 4670TIP3    H135425   3.749   2.225  15.707  1.2299  1.5439 -1.2623
 4670TIP3    H235426   3.836   2.109  15.664 -0.2180 -0.5145  1.1289
 4671TIP3   OH235427   2.542   2.802   5.837 -0.3075 -0.0150  0.1303
 4671TIP3    H135428   2.507   2.870   5.779 -0.0331 -0.0765 -0.1072
 4671TIP3    H235429   2.468   2.744   5.853 -0.4588  0.1608  0.0708
 4672TIP3   OH235430   3.386   5.515  11.662 -0.1690  0.0453 -0.2391
 4672TIP3    H135431   3.342   5.474  11.588  0.2284  0.8493 -0.9475
 4672TIP3    H235432   3.456   5.454  11.685 -2.0682 -1.6284  1.4188
 4673TIP3   OH235433   6.498   2.094   4.293 -0.1825 -0.3872  0.2750
 4673TIP3    H135434   6.414   2.127   4.260 -0.2430 -1.5438 -0.8195
 4673TIP3    H235435   6.478   2.060   4.380 -0.7969 -0.4181  0.1284
 4674TIP3   OH235436   0.319   2.083  13.839 -0.1715 -0.2135 -0.2166
 4674TIP3    H135437   0.390   2.147  13.852 -1.0561  0.9681 -1.0448
 4674TIP3    H235438   0.305   2.083  13.745 -0.9566 -0.7904 -0.0985
 4675TIP3   OH235439   6.461   5.749   5.364  0.2116  0.0108  0.0389
 4675TIP3    H135440   6.493   5.660   5.373  2.2641  0.7010  0.2083
 4675TIP3    H235441   6.529   5.793   5.313 -0.6598  1.5195  0.1254
 4676TIP3   OH235442   4.554   4.097  17.150  0.6613 -0.2813  0.1183
 4676TIP3    H135443   4.501   4.155  17.095  0.3366 -0.1660  0.5427
 4676TIP3    H235444   4.633   4.147  17.170  0.6559 -0.2179 -0.0223
 4677TIP3   OH235445   1.014   1.511  12.508 -0.1146 -0.1168  0.0391
 4677TIP3    H135446   1.051   1.573  12.570  1.5557 -0.0566 -0.9519
 4677TIP3    H235447   1.076   1.437  12.508 -0.6565 -0.5872 -0.7476
 4678TIP3   OH235448   4.069   0.310   0.830  0.0256 -0.0308  0.6225
 4678TIP3    H135449   4.090   0.238   0.771  0.1240 -0.2027  0.8652
 4678TIP3    H235450   4.097   0.388   0.783 -0.4652 -0.1165  0.1802
 4679TIP3   OH235451   4.443   4.830   1.730 -0.3607 -0.3100  0.0982
 4679TIP3    H135452   4.367   4.821   1.672 -0.2735  0.9169 -0.2186
 4679TIP3    H235453   4.497   4.754   1.708 -0.4135  0.0181 -1.3236
 4680TIP3   OH235454   5.842   1.032   5.223  0.8862 -0.1230 -0.5510
 4680TIP3    H135455   5.827   0.937   5.223 -2.5062  0.2856 -0.8883
 4680TIP3    H235456   5.877   1.051   5.310  1.5246 -1.6373 -0.4403
 4681TIP3   OH235457   5.355   5.991   1.206 -0.2140  0.2466  0.2204
 4681TIP3    H135458   5.385   6.044   1.280 -1.3198  0.8077  0.2950
 4681TIP3    H235459   5.263   5.971   1.226 -0.5245  0.3699 -0.9640
 4682TIP3   OH235460   3.926   4.399  13.408  0.5711  0.7536 -0.3494
 4682TIP3    H135461   3.908   4.438  13.322 -1.5478 -0.4789 -0.5335
 4682TIP3    H235462   4.019   4.416  13.423  1.2480  0.2301 -3.3080
 4683TIP3   OH235463   3.765   1.004   5.087 -0.1390 -0.1008  0.2673
 4683TIP3    H135464   3.857   1.008   5.063  0.0713 -0.8662  0.8928
 4683TIP3    H235465   3.719   0.989   5.005  0.6666 -3.9303  0.3090
 4684TIP3   OH235466   6.302   4.042   4.313  0.1422 -0.3052  0.3298
 4684TIP3    H135467   6.350   3.979   4.367  0.8049  0.2095  0.3587
 4684TIP3    H235468   6.367   4.108   4.289 -0.5374  0.3909  0.3322
 4685TIP3   OH235469   3.581   2.637   5.382  0.2697 -0.4623 -0.4476
 4685TIP3    H135470   3.596   2.587   5.463 -1.6843  0.0803  0.2926
 4685TIP3    H235471   3.605   2.727   5.405 -1.3346 -0.0918 -0.0624
 4686TIP3   OH235472   3.715   1.237  11.153  0.3138 -0.1541  0.3064
 4686TIP3    H135473   3.699   1.252  11.060  2.0962 -1.0243 -0.1927
 4686TIP3    H235474   3.646   1.286  11.197 -1.4533 -0.8775 -1.4698
 4687TIP3   OH235475   3.481   0.016  17.388 -0.3786 -0.1677  0.2141
 4687TIP3    H135476   3.504  -0.039  17.313  0.9108  1.3725 -0.5696
 4687TIP3    H235477   3.552   0.000  17.451 -0.8719 -0.6149  0.6675
 4688TIP3   OH235478   3.874   1.817  14.010 -0.1450 -0.1449  0.0056
 4688TIP3    H135479   3.858   1.811  13.916 -1.5216  1.4595  0.0844
 4688TIP3    H235480   3.969   1.820  14.018  0.0391  2.5022 -1.6276
 4689TIP3   OH235481   5.326   0.324  12.186 -0.6542 -0.2073  0.1155
 4689TIP3    H135482   5.315   0.413  12.221 -0.4405 -0.6612  1.3517
 4689TIP3    H235483   5.291   0.330  12.097 -2.6544  0.5961  0.8997
 4690TIP3   OH235484   1.406   2.252  10.987  0.5188  0.5786  0.0872
 4690TIP3    H135485   1.468   2.258  11.059  0.7442 -1.0485  0.0606
 4690TIP3    H235486   1.449   2.197  10.922 -0.7190 -0.1362 -0.1620
 4691TIP3   OH235487   4.105   1.772  12.720 -0.1336 -0.4211 -0.2646
 4691TIP3    H135488   4.080   1.704  12.657  0.2534 -1.4460  0.6479
 4691TIP3    H235489   4.034   1.773  12.784  0.5487 -1.0344  0.5361
 4692TIP3   OH235490   0.358   2.799  13.915 -0.0384 -0.3431  0.2957
 4692TIP3    H135491   0.271   2.781  13.950  0.0661  2.1263  2.1583
 4692TIP3    H235492   0.417   2.776  13.987  0.3047  3.4280  1.4227
 4693TIP3   OH235493   1.224   3.278  16.389  0.0705 -0.1477 -0.4443
 4693TIP3    H135494   1.218   3.372  16.373  0.1386 -0.0105  0.3116
 4693TIP3    H235495   1.312   3.254  16.362 -0.4438 -0.2966 -2.1063
 4694TIP3   OH235496   1.571   4.753   5.150  0.5884  0.2443 -0.1347
 4694TIP3    H135497   1.626   4.678   5.127  1.4090  1.1435 -1.2483
 4694TIP3    H235498   1.592   4.819   5.083  0.3373  1.6705  1.1378
 4695TIP3   OH235499   1.260   3.149   1.192  0.1350  0.2479 -0.7943
 4695TIP3    H135500   1.339   3.103   1.222 -0.7198 -1.8796 -1.6202
 4695TIP3    H235501   1.289   3.203   1.119  0.7295 -1.1612 -1.6422
 4696TIP3   OH235502   3.046   2.750   1.531  1.1252 -0.0600 -0.1920
 4696TIP3    H135503   3.041   2.654   1.541  4.0368 -0.2497  0.3793
 4696TIP3    H235504   3.012   2.767   1.444  1.5561 -1.7755 -0.7346
 4697TIP3   OH235505   4.376   5.612  17.225 -0.7098 -0.1846  0.1868
 4697TIP3    H135506   4.366   5.690  17.171 -1.7885 -0.9674 -0.7892
 4697TIP3    H235507   4.308   5.552  17.194  1.5180 -2.4473 -0.7098
 4698TIP3   OH235508   1.519   3.846  14.818 -0.4854  0.3096  0.1339
 4698TIP3    H135509   1.436   3.827  14.863 -0.9819 -1.4800 -1.4469
 4698TIP3    H235510   1.523   3.942  14.816 -2.3671  0.4374  0.5166
 4699TIP3   OH235511   3.415   1.154  13.724  0.0495  0.1635  0.0763
 4699TIP3    H135512   3.453   1.242  13.717  0.3651  0.3575  3.0529
 4699TIP3    H235513   3.348   1.163  13.792 -2.5465 -1.1163 -2.1340
 4700TIP3   OH235514   0.074   5.903   3.226 -0.1299  0.0402 -0.0747
 4700TIP3    H135515   0.106   5.992   3.233 -0.6166  0.2399 -0.3301
 4700TIP3    H235516   0.110   5.870   3.144  1.8924 -0.7773  1.0678
 4701TIP3   OH235517   5.833   1.890   5.008 -0.0707 -0.0123 -0.1421
 4701TIP3    H135518   5.833   1.834   5.086 -0.3400 -0.3111 -0.3549
 4701TIP3    H235519   5.809   1.977   5.041 -1.9138 -0.4907 -0.1375
 4702TIP3   OH235520   3.494   5.994  11.793  0.3406 -0.1017  0.0362
 4702TIP3    H135521   3.415   5.957  11.752  0.8523  1.0558 -2.1769
 4702TIP3    H235522   3.516   6.069  11.737  3.3801 -0.7849  0.1841
 4703TIP3   OH235523   3.185   0.311  15.361  0.0580 -0.3653 -0.1111
 4703TIP3    H135524   3.196   0.379  15.427 -0.0567  0.5942 -1.0534
 4703TIP3    H235525   3.256   0.249  15.378 -0.9099 -1.0192  1.9049
 4704TIP3   OH235526   4.715   1.913   4.873  0.0143 -0.0284 -0.4343
 4704TIP3    H135527   4.788   1.943   4.819 -0.1673 -1.0007 -1.2520
 4704TIP3    H235528   4.661   1.861   4.814 -1.2186  0.4691  0.2261
 4705TIP3   OH235529   4.320   6.610   2.046  0.0734 -0.7947  0.0957
 4705TIP3    H135530   4.228   6.628   2.030  0.0072 -2.0509 -1.1601
 4705TIP3    H235531   4.333   6.630   2.138 -1.2967  0.0005  0.1428
 4706TIP3   OH235532   6.745   4.403  13.089  1.0380  0.4785 -0.3763
 4706TIP3    H135533   6.685   4.328  13.091 -0.3043  1.4686 -1.6298
 4706TIP3    H235534   6.802   4.386  13.014 -0.8143  1.7782 -2.1806
 4707TIP3   OH235535   2.281   1.005  16.684 -0.3209 -0.1905  0.2095
 4707TIP3    H135536   2.203   1.060  16.676  0.2628  0.7081  0.4856
 4707TIP3    H235537   2.326   1.015  16.600  1.0362  1.7663  1.0906
 4708TIP3   OH235538   2.104   6.521  17.003  0.2166 -0.4813 -0.4457
 4708TIP3    H135539   2.082   6.612  17.025  1.4162 -0.3502  0.2592
 4708TIP3    H235540   2.057   6.469  17.068 -0.7613 -0.4135 -1.0653
 4709TIP3   OH235541   5.764   1.194  11.526 -0.1182 -0.0049  0.0667
 4709TIP3    H135542   5.675   1.188  11.560  0.4204  1.0267  1.7381
 4709TIP3    H235543   5.784   1.288  11.525  0.7359 -0.1744 -0.8827
 4710TIP3   OH235544   3.857   2.076  11.551 -0.7533  0.1520  0.2556
 4710TIP3    H135545   3.792   2.021  11.507 -0.3909 -0.0661 -0.0130
 4710TIP3    H235546   3.860   2.156  11.499  0.2624 -0.4235 -0.6174
 4711TIP3   OH235547   1.825   2.106  12.602  0.5304  0.3623 -0.0382
 4711TIP3    H135548   1.815   2.027  12.549  1.9215 -1.3396  2.0516
 4711TIP3    H235549   1.736   2.127  12.631  0.2633 -1.1986  0.3607
 4712TIP3   OH235550   4.535   5.102   0.414  0.0749 -0.5706  0.0894
 4712TIP3    H135551   4.588   5.111   0.494 -0.3873  0.9331  0.2614
 4712TIP3    H235552   4.599   5.100   0.343  0.4620 -1.2793  0.4473
 4713TIP3   OH235553   0.720   3.614   4.999  0.4292  0.1407 -0.2502
 4713TIP3    H135554   0.753   3.667   5.072  0.0580 -1.1419  0.8886
 4713TIP3    H235555   0.798   3.582   4.955  0.7862 -1.9419  1.7384
 4714TIP3   OH235556   2.881   6.192   4.414 -0.1316 -0.2893  0.0728
 4714TIP3    H135557   2.942   6.207   4.342 -0.1525  0.0348  0.1199
 4714TIP3    H235558   2.833   6.113   4.389  0.0371 -0.3230 -0.1481
 4715TIP3   OH235559   2.334   0.294  13.938 -0.1775  0.1100 -0.4380
 4715TIP3    H135560   2.281   0.223  13.975  0.3385  0.3432  0.7907
 4715TIP3    H235561   2.367   0.342  14.014  2.3776 -0.4488 -1.0814
 4716TIP3   OH235562   4.654   1.057   6.355 -0.3070  0.4373  0.2545
 4716TIP3    H135563   4.622   0.975   6.394 -1.1465  0.3055 -0.6595
 4716TIP3    H235564   4.605   1.065   6.273  2.0663  0.2214 -1.2884
 4717TIP3   OH235565   5.015   4.278  16.034 -0.3124 -0.3762  0.2175
 4717TIP3    H135566   4.977   4.219  16.098 -1.5761  0.8427  0.6505
 4717TIP3    H235567   4.960   4.268  15.956 -0.4286  0.0764  0.2350
 4718TIP3   OH235568   2.536   6.016  12.163  0.6737  0.1704 -0.1783
 4718TIP3    H135569   2.600   5.945  12.161  0.8861  0.3797 -1.3768
 4718TIP3    H235570   2.482   5.998  12.241  1.1281 -0.9360 -0.1097
 4719TIP3   OH235571   1.243   2.266  12.721 -0.0140 -0.1746  0.1149
 4719TIP3    H135572   1.195   2.348  12.726 -0.6471 -0.5224 -0.1890
 4719TIP3    H235573   1.183   2.205  12.678  1.3319 -0.1434 -1.9540
 4720TIP3   OH235574   2.824   2.984   0.059 -0.8786  0.1634 -0.2972
 4720TIP3    H135575   2.881   2.969  -0.017  0.7729 -0.5010  1.0011
 4720TIP3    H235576   2.830   3.078   0.075 -1.0658  0.2734 -0.8581
 4721TIP3   OH235577   5.441   1.718  15.620  0.3429  0.7739  0.4538
 4721TIP3    H135578   5.368   1.781  15.613 -0.4816 -0.1972 -0.0394
 4721TIP3    H235579   5.412   1.655  15.686 -0.3088 -0.8897 -1.3147
 4722TIP3   OH235580   5.358   6.535  10.975  0.2845 -0.0291  0.0786
 4722TIP3    H135581   5.362   6.449  11.018  1.6613 -1.6167 -2.8579
 4722TIP3    H235582   5.266   6.547  10.954 -0.0572 -0.3366  1.3527
 4723TIP3   OH235583   1.272   3.652  13.418  0.3753 -0.0861 -0.2460
 4723TIP3    H135584   1.293   3.588  13.486 -1.1309 -0.3078  0.0377
 4723TIP3    H235585   1.265   3.735  13.465 -0.2439 -0.1665 -0.1924
 4724TIP3   OH235586   4.444   4.158  13.568  0.3197 -0.5513  0.5866
 4724TIP3    H135587   4.460   4.228  13.505  0.8183 -1.0972  0.0936
 4724TIP3    H235588   4.352   4.135  13.557  0.6527 -1.3652 -0.7185
 4725TIP3   OH235589   3.768   4.319   6.107 -0.2046 -0.2676 -0.1310
 4725TIP3    H135590   3.759   4.332   6.202  0.4344  0.4403 -0.1614
 4725TIP3    H235591   3.795   4.404   6.073 -1.1723 -0.3175 -1.0582
 4726TIP3   OH235592   1.679   4.722   0.388  0.3001 -0.0606 -0.5048
 4726TIP3    H135593   1.688   4.718   0.483  0.6839  1.1979 -0.4743
 4726TIP3    H235594   1.611   4.788   0.373  2.1470  1.8231 -1.1261
 4727TIP3   OH235595   3.897   2.713  12.243  0.8385  0.4713 -0.2898
 4727TIP3    H135596   3.850   2.794  12.223 -1.4151 -0.6999 -0.0719
 4727TIP3    H235597   3.938   2.729  12.328 -2.1471  0.4227  1.2725
 4728TIP3   OH235598   4.625   1.805   1.317 -0.1355  0.2844  0.1226
 4728TIP3    H135599   4.691   1.741   1.344  0.4579  0.4193 -0.9524
 4728TIP3    H235600   4.622   1.798   1.222 -0.5652  1.3678  0.0419
 4729TIP3   OH235601   4.862   2.187  16.855  0.4859  0.0051  0.2483
 4729TIP3    H135602   4.838   2.124  16.787 -0.0385  1.5461 -1.0721
 4729TIP3    H235603   4.948   2.219  16.829  0.4725  0.2953  0.5522
 4730TIP3   OH235604   2.243   0.666   3.130 -0.0771  0.0397 -0.8662
 4730TIP3    H135605   2.167   0.715   3.100  0.4685  0.1305 -2.1904
 4730TIP3    H235606   2.226   0.576   3.103 -0.0224 -0.0574 -0.5720
 4731TIP3   OH235607   5.923   4.702   2.099  0.1143 -0.1097 -0.0185
 4731TIP3    H135608   5.948   4.784   2.056  2.4530 -1.9924 -2.6026
 4731TIP3    H235609   5.994   4.684   2.160 -0.9965  0.3153  1.4592
 4732TIP3   OH235610   3.153   3.836  16.767 -0.1088  0.3810  0.0840
 4732TIP3    H135611   3.090   3.781  16.718  1.1290 -0.6036 -0.4588
 4732TIP3    H235612   3.136   3.925  16.736  0.0502 -0.1152 -1.5074
 4733TIP3   OH235613   0.787   2.376  13.965 -0.1814 -0.0134  0.6728
 4733TIP3    H135614   0.824   2.330  13.890 -1.5243  0.9382 -0.6286
 4733TIP3    H235615   0.847   2.357  14.037  2.0855  0.4049 -1.0092
 4734TIP3   OH235616   6.283   6.375   2.157 -0.1437  0.5501  0.0153
 4734TIP3    H135617   6.215   6.355   2.221  1.2452 -0.0012  1.3566
 4734TIP3    H235618   6.358   6.322   2.183  1.4006  2.4351 -0.3563
 4735TIP3   OH235619   4.947   0.730  15.597 -0.0840 -0.3588  0.0142
 4735TIP3    H135620   4.900   0.671  15.655 -1.1208  0.3136 -0.1217
 4735TIP3    H235621   4.937   0.816  15.636  1.9378 -0.3031  0.5416
 4736TIP3   OH235622   0.427   3.782   5.265 -0.6445  0.3939  0.0293
 4736TIP3    H135623   0.432   3.699   5.219 -1.0175 -0.8944  2.1915
 4736TIP3    H235624   0.375   3.764   5.343  2.5453  1.5562  2.6941
 4737TIP3   OH235625   2.176   6.647   2.892  0.6880 -0.6369 -0.1737
 4737TIP3    H135626   2.100   6.590   2.902  0.0376 -0.1547 -2.0123
 4737TIP3    H235627   2.248   6.598   2.932 -0.2041 -1.9349 -0.1075
 4738TIP3   OH235628   1.059   3.041   2.644  0.1702  0.2925  0.3282
 4738TIP3    H135629   1.136   3.052   2.699  0.1438 -1.0992  0.6709
 4738TIP3    H235630   1.071   2.956   2.603  0.2136  1.3018 -1.8936
 4739TIP3   OH235631   2.005   3.496  11.561  0.1414 -0.2797 -0.0391
 4739TIP3    H135632   2.048   3.576  11.590 -1.0224 -0.0360  1.1363
 4739TIP3    H235633   2.071   3.427  11.573  0.2129  0.0595  1.8128
 4740TIP3   OH235634   2.304   4.520   3.914 -0.0643  0.2836  0.7089
 4740TIP3    H135635   2.219   4.536   3.874 -0.4216  0.2512  1.4401
 4740TIP3    H235636   2.301   4.428   3.941  1.0539 -0.4089 -1.2505
 4741TIP3   OH235637   2.725   1.801  13.744 -0.1491 -0.0579 -0.4584
 4741TIP3    H135638   2.700   1.822  13.655 -0.5476 -0.1831 -0.3780
 4741TIP3    H235639   2.651   1.828  13.797 -0.1161 -0.4289 -0.2142
 4742TIP3   OH235640   0.126   5.001   3.250  0.4259  0.2525  0.3195
 4742TIP3    H135641   0.105   4.939   3.180  0.8619  1.4708 -0.9339
 4742TIP3    H235642   0.220   4.994   3.261  0.1878 -1.0490  1.9168
 4743TIP3   OH235643   3.351   4.664  10.881  0.2155  0.1963  0.2103
 4743TIP3    H135644   3.435   4.669  10.926  0.2134  0.1561  0.2182
 4743TIP3    H235645   3.298   4.605  10.936  0.3769 -0.2538 -0.1092
 4744TIP3   OH235646   2.200   2.909  16.308  0.4461  0.1887 -0.1692
 4744TIP3    H135647   2.175   2.883  16.397  0.5593  0.0220 -0.1855
 4744TIP3    H235648   2.126   2.961  16.276 -0.1211 -0.7649 -0.4322
 4745TIP3   OH235649   6.516   2.449  13.425 -0.2151  0.6166  0.4472
 4745TIP3    H135650   6.510   2.481  13.515  1.3071 -0.9179  1.1684
 4745TIP3    H235651   6.455   2.375  13.422 -1.2761  1.5035 -0.2118
 4746TIP3   OH235652   2.869   5.351   4.676 -0.2408  0.5243 -0.6366
 4746TIP3    H135653   2.862   5.321   4.767  0.4371  0.5540 -0.5690
 4746TIP3    H235654   2.929   5.289   4.636 -1.8500 -0.5398 -1.5396
 4747TIP3   OH235655   1.307   0.897   5.827  0.2215  0.0331  0.3500
 4747TIP3    H135656   1.232   0.931   5.876 -0.9850 -1.5091 -0.3615
 4747TIP3    H235657   1.275   0.890   5.737  1.6045  0.4510 -0.1941
 4748TIP3   OH235658   5.843   5.887  11.535  0.1337 -0.1542 -0.1921
 4748TIP3    H135659   5.784   5.926  11.470 -2.3891 -1.3786  1.2087
 4748TIP3    H235660   5.790   5.821  11.579  2.3344 -0.7383  1.7974
 4749TIP3   OH235661   4.623   4.515  14.969  0.2974 -0.1617  0.6071
 4749TIP3    H135662   4.595   4.458  15.041  0.6835  1.2055  1.8943
 4749TIP3    H235663   4.708   4.549  14.998 -0.7774  2.5989  0.8671
 4750TIP3   OH235664   2.562   3.368  15.395  0.2218 -0.2299  0.2628
 4750TIP3    H135665   2.597   3.431  15.332  1.4086  0.8014  1.8507
 4750TIP3    H235666   2.618   3.291  15.386  0.1888 -0.2101 -0.1348
 4751TIP3   OH235667   5.935   4.609  13.218 -0.5071 -0.3765  0.2006
 4751TIP3    H135668   5.937   4.699  13.187 -0.3176 -0.4489 -0.0040
 4751TIP3    H235669   5.942   4.616  13.313 -2.9745 -0.0626  0.4201
 4752TIP3   OH235670   0.848   6.129  11.638  0.0476 -0.3555 -0.4096
 4752TIP3    H135671   0.793   6.153  11.564  0.5946 -0.8425 -0.9795
 4752TIP3    H235672   0.896   6.209  11.659 -2.3902  0.7652  1.4955
 4753TIP3   OH235673   2.457   5.379   5.027 -0.0711 -0.6944 -0.1396
 4753TIP3    H135674   2.478   5.470   5.047 -0.3475 -1.1746  2.7863
 4753TIP3    H235675   2.362   5.379   5.013  0.1048 -0.3717 -1.4568
 4754TIP3   OH235676   5.910   6.286   1.359 -0.6534  0.0788 -0.1626
 4754TIP3    H135677   5.985   6.257   1.411 -1.0166 -1.0088 -0.2189
 4754TIP3    H235678   5.844   6.218   1.373 -1.7552  1.1855  0.1441
 4755TIP3   OH235679   6.331   5.531   1.381  0.1463 -0.2881 -0.1505
 4755TIP3    H135680   6.357   5.509   1.470 -1.2477 -0.0675  0.3338
 4755TIP3    H235681   6.302   5.448   1.343 -0.8547 -0.0847  0.1675
 4756TIP3   OH235682   1.663   6.448   2.340 -0.4402  0.2663  0.4175
 4756TIP3    H135683   1.633   6.437   2.250  0.1198  1.7701  0.0248
 4756TIP3    H235684   1.653   6.541   2.358 -1.0649 -0.0784  2.1160
 4757TIP3   OH235685   1.088   4.558   1.079  0.3165 -0.2580  0.2038
 4757TIP3    H135686   1.029   4.572   1.005  0.2689 -1.9459 -0.1286
 4757TIP3    H235687   1.044   4.491   1.132  2.0357 -1.7694 -0.2012
 4758TIP3   OH235688   1.619   0.822   1.762  0.4696 -0.0708 -0.2042
 4758TIP3    H135689   1.677   0.816   1.686  1.0416 -0.5327  0.2555
 4758TIP3    H235690   1.605   0.731   1.789 -1.1976 -0.0442 -0.8313
 4759TIP3   OH235691   6.429   3.854   4.494  0.7428 -0.4287  0.1936
 4759TIP3    H135692   6.489   3.784   4.520  2.0356  0.9176  0.9937
 4759TIP3    H235693   6.346   3.832   4.536  0.4517 -2.6174 -1.3653
 4760TIP3   OH235694   1.066   5.215  13.105 -0.1900  0.3772 -0.2598
 4760TIP3    H135695   1.128   5.273  13.060 -1.5183  0.5616 -1.9682
 4760TIP3    H235696   0.983   5.261  13.101 -0.6720 -0.3142  1.1011
 4761TIP3   OH235697   1.583   1.701  13.286 -0.0992 -0.3713  0.2584
 4761TIP3    H135698   1.503   1.732  13.330 -0.6836  0.9190 -1.5973
 4761TIP3    H235699   1.617   1.778  13.241  0.5984 -1.5632 -1.3302
 4762TIP3   OH235700   4.485   1.117   1.388 -0.2790 -0.0377 -1.0557
 4762TIP3    H135701   4.574   1.125   1.422 -1.9459  0.1354  4.1927
 4762TIP3    H235702   4.461   1.206   1.362  0.6320  0.1743 -1.1922
 4763TIP3   OH235703   6.668   1.619   1.174  0.2469  0.1780 -0.0470
 4763TIP3    H135704   6.597   1.556   1.185 -0.6314  1.0223 -0.6820
 4763TIP3    H235705   6.710   1.595   1.092  0.6215 -0.2420  0.2630
 4764TIP3   OH235706   4.595   3.938   1.906 -0.1617 -0.3182  0.4256
 4764TIP3    H135707   4.576   3.855   1.947 -2.8774  0.8046  1.6537
 4764TIP3    H235708   4.582   3.922   1.812  2.7837 -2.0427  0.1862
 4765TIP3   OH235709   6.555   1.090   0.454 -0.0809  0.3935  0.0312
 4765TIP3    H135710   6.632   1.074   0.509 -0.2063  0.6771  0.2897
 4765TIP3    H235711   6.488   1.121   0.514 -1.2313 -2.2392  0.2247
 4766TIP3   OH235712   2.354   0.158   4.273  0.3372 -0.7752  0.1239
 4766TIP3    H135713   2.283   0.103   4.307  1.4264 -2.6041 -0.3749
 4766TIP3    H235714   2.424   0.149   4.338 -0.4603  2.6024  1.6496
 4767TIP3   OH235715   0.726   1.201  13.703  0.1020  0.1092 -0.4451
 4767TIP3    H135716   0.679   1.198  13.619  2.0625  0.6179 -1.6471
 4767TIP3    H235717   0.816   1.224  13.678  1.0768 -1.1161  1.6814
 4768TIP3   OH235718   3.996   0.035   2.979  0.3463  0.5474 -0.0821
 4768TIP3    H135719   3.970  -0.054   2.956 -0.1425  0.7030 -0.1337
 4768TIP3    H235720   3.950   0.053   3.061  1.1211  0.4402  0.3854
 4769TIP3   OH235721   4.189   4.787   5.542  0.8658 -0.6907  0.0365
 4769TIP3    H135722   4.193   4.703   5.589 -0.5589 -0.6336  0.3177
 4769TIP3    H235723   4.235   4.849   5.598 -1.4071 -0.4631  1.8117
 4770TIP3   OH235724   3.353   0.885   3.323  0.0607 -0.0554 -0.5021
 4770TIP3    H135725   3.414   0.944   3.368 -0.6984 -0.3858  1.0079
 4770TIP3    H235726   3.408   0.814   3.291  0.5358 -0.1650  0.5133
 4771TIP3   OH235727   6.347   3.517   2.791 -0.0407  0.3067 -0.1065
 4771TIP3    H135728   6.348   3.571   2.869 -1.1853 -0.1267  0.2291
 4771TIP3    H235729   6.436   3.483   2.784  0.0890  0.3902  0.9879
 4772TIP3   OH235730   2.848   2.216   4.103 -0.1455  0.1920 -0.4928
 4772TIP3    H135731   2.875   2.305   4.126 -2.0796  0.4318  1.1087
 4772TIP3    H235732   2.893   2.160   4.165  0.0827  0.1728 -0.6756
 4773TIP3   OH235733   1.372   2.263  16.187  0.0759 -0.6297  0.3345
 4773TIP3    H135734   1.334   2.229  16.106 -0.9544  0.4124  0.3391
 4773TIP3    H235735   1.466   2.266  16.171 -0.1443 -0.0210 -1.0156
 4774TIP3   OH235736   3.339   2.030   6.199 -0.1365 -0.2399 -0.6470
 4774TIP3    H135737   3.357   2.041   6.292  1.9635  0.1937 -1.0602
 4774TIP3    H235738   3.245   2.047   6.191  0.2297  3.7432  0.8560
 4775TIP3   OH235739   3.280   0.769  14.842  0.0824  0.3484  0.2036
 4775TIP3    H135740   3.307   0.682  14.812 -0.7654  0.0953  0.1469
 4775TIP3    H235741   3.346   0.794  14.906 -0.2888 -0.8474  1.0889
 4776TIP3   OH235742   2.864   0.475   4.610  0.2071 -0.3477  0.1448
 4776TIP3    H135743   2.791   0.445   4.556 -1.2123  2.0976  0.5455
 4776TIP3    H235744   2.938   0.422   4.581 -1.0104 -0.8035 -2.5006
 4777TIP3   OH235745   0.757   4.925  16.543  0.2204 -0.0777 -0.1147
 4777TIP3    H135746   0.688   4.867  16.575  0.0355  0.0183 -0.3354
 4777TIP3    H235747   0.712   4.987  16.486  0.1391  1.3081  1.3719
 4778TIP3   OH235748   5.198   0.021   1.587  0.4135 -0.5557  0.4509
 4778TIP3    H135749   5.196   0.115   1.604  0.7195 -0.3358 -0.7021
 4778TIP3    H235750   5.276  -0.010   1.634 -1.2980 -0.7996  3.4241
 4779TIP3   OH235751   6.234   6.583  11.678  0.3056 -0.1835  0.1609
 4779TIP3    H135752   6.287   6.654  11.714 -0.4622 -0.7721  2.7017
 4779TIP3    H235753   6.190   6.621  11.602 -0.3341  2.2002  1.6195
 4780TIP3   OH235754   0.264   5.572   2.582 -0.0443  0.5025 -0.2898
 4780TIP3    H135755   0.296   5.643   2.637  1.3371 -2.0157  2.4629
 4780TIP3    H235756   0.325   5.569   2.509  1.7883  0.3031  1.1664
 4781TIP3   OH235757   4.579   5.970   0.519 -0.2583 -0.3915  0.0743
 4781TIP3    H135758   4.548   5.896   0.572 -1.9933 -0.5103 -1.0095
 4781TIP3    H235759   4.540   5.955   0.433  1.6678  0.3319 -0.9731
 4782TIP3   OH235760   4.306   6.422  15.649 -0.1931 -0.1639  0.7368
 4782TIP3    H135761   4.377   6.386  15.703  0.4586 -0.4832 -0.3067
 4782TIP3    H235762   4.351   6.468  15.578 -0.9975  2.1222  1.6248
 4783TIP3   OH235763   5.479   2.470   5.834 -0.3194  0.2274 -0.1447
 4783TIP3    H135764   5.434   2.484   5.917 -2.5562 -2.0416 -0.8503
 4783TIP3    H235765   5.487   2.558   5.796 -1.1306  1.0733  1.5362
 4784TIP3   OH235766   3.530   4.870  15.081 -0.1557  0.2940  0.1436
 4784TIP3    H135767   3.509   4.778  15.098 -0.7414  0.5985  1.1551
 4784TIP3    H235768   3.499   4.885  14.992  0.1830 -0.5558 -0.1304
 4785TIP3   OH235769   2.770   5.074   3.101 -0.0667  0.5101 -0.3717
 4785TIP3    H135770   2.856   5.042   3.129 -1.0437 -0.2028  2.0686
 4785TIP3    H235771   2.708   5.015   3.142 -1.7858  0.0039 -3.4174
 4786TIP3   OH235772   5.753   5.856   1.769  0.6034 -0.4679  0.5174
 4786TIP3    H135773   5.736   5.828   1.680  1.5492 -0.7562  0.4120
 4786TIP3    H235774   5.723   5.783   1.824 -1.8102  0.5003  0.5939
 4787TIP3   OH235775   4.681   2.316   2.072 -0.1460 -0.2956  0.2969
 4787TIP3    H135776   4.692   2.405   2.104 -1.6905 -0.6569  2.0543
 4787TIP3    H235777   4.747   2.265   2.119 -1.0072 -0.4730  1.3588
 4788TIP3   OH235778   3.299   2.617   5.945 -0.7789 -0.9889  0.2049
 4788TIP3    H135779   3.236   2.635   5.875 -1.7247  2.1596  1.6870
 4788TIP3    H235780   3.372   2.677   5.927 -0.5561 -0.9212  1.2913
 4789TIP3   OH235781   3.914   4.787   4.057  0.7611 -0.2509  0.6608
 4789TIP3    H135782   3.853   4.861   4.061  1.0099  0.0923 -0.9086
 4789TIP3    H235783   3.999   4.824   4.081  1.1328  0.3388 -1.3511
 4790TIP3   OH235784   0.584   3.251   6.547  0.2130 -0.4487 -0.3029
 4790TIP3    H135785   0.501   3.208   6.568 -0.3193  0.4221 -0.6062
 4790TIP3    H235786   0.560   3.341   6.526  1.2439 -0.1737 -0.3391
 4791TIP3   OH235787   4.817   5.083  12.324 -0.3291 -0.0155  0.3732
 4791TIP3    H135788   4.889   5.056  12.380  1.3850  0.2341 -1.5926
 4791TIP3    H235789   4.739   5.049  12.367  1.0791 -1.6096  1.8072
 4792TIP3   OH235790   1.660   0.256  17.178  0.6683 -0.2194 -0.8653
 4792TIP3    H135791   1.686   0.341  17.143 -1.2678  0.8702  0.1755
 4792TIP3    H235792   1.692   0.257  17.269  1.6680 -1.1350 -1.1772
 4793TIP3   OH235793   5.206   0.042  15.882  0.1302 -0.3180 -0.6393
 4793TIP3    H135794   5.221   0.135  15.899 -0.8184 -0.2094 -0.3617
 4793TIP3    H235795   5.155   0.040  15.801  1.3514 -0.6703 -1.4261
 4794TIP3   OH235796   5.803   5.471  16.557 -0.0422 -0.0898 -0.2374
 4794TIP3    H135797   5.783   5.417  16.480  0.4548  1.2881 -1.3797
 4794TIP3    H235798   5.856   5.543  16.523 -2.6466  2.4978  0.7433
 4795TIP3   OH235799   1.846   3.327   6.744  0.2014  0.3445  0.2154
 4795TIP3    H135800   1.929   3.374   6.736 -0.3074  1.0164 -2.1358
 4795TIP3    H235801   1.863   3.241   6.708 -0.5938  1.2600 -2.6202
 4796TIP3   OH235802   4.317   1.084   0.571 -0.2778 -0.2066  0.0924
 4796TIP3    H135803   4.263   1.107   0.647  0.6332 -0.7490  0.9237
 4796TIP3    H235804   4.407   1.102   0.600 -0.0664  2.5097 -1.8954
 4797TIP3   OH235805   2.470   5.148   0.691 -0.1101 -0.4074 -0.0573
 4797TIP3    H135806   2.450   5.239   0.711 -0.0345 -0.4069  0.0151
 4797TIP3    H235807   2.509   5.113   0.771  1.0653 -0.1519 -0.5044
 4798TIP3   OH235808   5.986   2.134   5.306 -0.3355  0.1055  0.5223
 4798TIP3    H135809   5.970   2.206   5.367  0.5300  0.3531  0.4698
 4798TIP3    H235810   6.022   2.176   5.228 -1.9453 -0.1532 -0.3853
 4799TIP3   OH235811   1.696   2.073   3.363 -0.2871  0.3943  0.4084
 4799TIP3    H135812   1.714   1.995   3.311 -1.3586  0.8420 -0.6815
 4799TIP3    H235813   1.651   2.132   3.303 -1.5450  0.9522  1.8282
 4800TIP3   OH235814   3.674   2.242  12.227 -0.3339  0.4361 -0.5445
 4800TIP3    H135815   3.584   2.260  12.251 -0.9455 -0.5287 -1.9868
 4800TIP3    H235816   3.719   2.326  12.237 -1.0563  0.6206  1.5191
 4801TIP3   OH235817   2.918   1.417   3.969 -0.3358 -0.2611 -0.0848
 4801TIP3    H135818   2.846   1.480   3.965 -1.0831 -1.0195  0.8984
 4801TIP3    H235819   2.978   1.454   4.033  0.1109  0.3269 -0.8360
 4802TIP3   OH235820   1.955   6.532   1.140  0.7892 -0.2464  0.4385
 4802TIP3    H135821   1.904   6.484   1.205  1.9269 -0.1301  1.4638
 4802TIP3    H235822   1.954   6.476   1.062  0.2794 -0.8930  0.9020
 4803TIP3   OH235823   0.194   4.867  11.719  0.6832 -0.6330  0.4701
 4803TIP3    H135824   0.205   4.833  11.630 -0.1299 -1.4548  0.6769
 4803TIP3    H235825   0.273   4.920  11.733 -0.0970  1.1893 -1.4619
 4804TIP3   OH235826   3.699   1.540   6.131 -0.4300  0.1499 -0.1646
 4804TIP3    H135827   3.641   1.603   6.173  0.4501 -0.3582  1.9126
 4804TIP3    H235828   3.641   1.485   6.078 -2.0337 -0.9481  2.5700
 4805TIP3   OH235829   2.677   4.554   2.769 -0.2024  0.4321 -0.1849
 4805TIP3    H135830   2.712   4.624   2.824 -0.0395  0.0571  0.1960
 4805TIP3    H235831   2.583   4.570   2.767 -0.1285  0.8570 -0.3795
 4806TIP3   OH235832   2.735   3.506  11.729 -0.0973  0.4606 -0.4518
 4806TIP3    H135833   2.644   3.489  11.753  0.3298  0.9386  1.7193
 4806TIP3    H235834   2.783   3.431  11.765  0.5634  1.1137  0.0477
 4807TIP3   OH235835   1.783   3.231  16.320 -0.4180 -0.3738  0.2627
 4807TIP3    H135836   1.724   3.160  16.345 -0.7977 -0.3603 -0.5515
 4807TIP3    H235837   1.814   3.267  16.403  0.0668 -1.7110  0.6840
 4808TIP3   OH235838   0.838   4.289   5.068  0.1474 -0.2482 -0.0316
 4808TIP3    H135839   0.757   4.241   5.083  0.3782 -0.7409 -0.3163
 4808TIP3    H235840   0.885   4.237   5.003 -0.4193  1.3521 -1.7946
 4809TIP3   OH235841   4.532   2.698   0.427  0.5889 -0.2228  0.2783
 4809TIP3    H135842   4.499   2.614   0.394 -0.9179  0.4050  0.1015
 4809TIP3    H235843   4.626   2.696   0.407  0.3115 -1.2349 -1.1324
 4810TIP3   OH235844   5.649   0.698  16.512 -0.0844  0.4943  0.0828
 4810TIP3    H135845   5.556   0.707  16.531 -0.5212 -1.1393 -1.0308
 4810TIP3    H235846   5.652   0.673  16.419  1.4644  0.6325  0.0738
 4811TIP3   OH235847   1.889   5.499  15.453 -0.3398  0.1244 -0.5699
 4811TIP3    H135848   1.924   5.534  15.535 -0.6660  1.0167 -0.7962
 4811TIP3    H235849   1.908   5.405  15.457 -1.5540 -0.1095  1.1513
 4812TIP3   OH235850   1.343   0.237  10.758  0.5321 -0.2327  0.2169
 4812TIP3    H135851   1.301   0.158  10.792  0.0416 -0.7710 -1.5135
 4812TIP3    H235852   1.271   0.296  10.739  0.8491  0.3602  0.8299
 4813TIP3   OH235853   1.873   5.688  12.062  0.1931  0.2665 -0.5634
 4813TIP3    H135854   1.908   5.679  11.973  2.0268  1.5272 -0.0342
 4813TIP3    H235855   1.882   5.600  12.100  1.3811  0.1856 -0.9727
 4814TIP3   OH235856   0.551   3.448  13.228 -0.0354  0.9113 -0.3835
 4814TIP3    H135857   0.492   3.504  13.279  1.1151  0.4163  1.5965
 4814TIP3    H235858   0.492   3.400  13.170 -1.5969  0.6814  1.2695
 4815TIP3   OH235859   5.330   5.502   0.136 -0.1348 -0.3750 -1.0079
 4815TIP3    H135860   5.243   5.496   0.096  0.0492  0.6441 -1.5827
 4815TIP3    H235861   5.361   5.589   0.113  1.1204 -0.7894 -0.9425
 4816TIP3   OH235862   1.895   2.633  16.804  0.1336 -0.3342 -0.8418
 4816TIP3    H135863   1.845   2.715  16.805  1.3517  0.4332 -0.4775
 4816TIP3    H235864   1.836   2.569  16.843 -0.4111  0.6349 -0.0120
 4817TIP3   OH235865   4.649   1.546  16.780 -0.1589  0.5797  0.0398
 4817TIP3    H135866   4.556   1.532  16.798 -0.6881  0.0679 -2.7013
 4817TIP3    H235867   4.691   1.541  16.866 -2.2160 -2.7534  1.0555
 4818TIP3   OH235868   2.054   3.492  17.135  0.0629  0.0007  0.4549
 4818TIP3    H135869   2.048   3.458  17.046  0.0336 -0.5779  0.6724
 4818TIP3    H235870   2.069   3.586  17.124  0.4811 -0.1334 -0.1590
 4819TIP3   OH235871   6.490   0.990  15.993  0.3643  0.2490 -0.1538
 4819TIP3    H135872   6.402   0.989  16.032  0.7935 -0.1751  0.8228
 4819TIP3    H235873   6.488   1.064  15.932 -0.4825  0.6196  0.3056
 4820TIP3   OH235874   5.858   0.622   2.263 -0.0977  0.4778  0.2553
 4820TIP3    H135875   5.872   0.661   2.177  0.9320  1.3007  0.7689
 4820TIP3    H235876   5.946   0.599   2.293 -0.4102  0.4726  1.2009
 4821TIP3   OH235877   3.637   6.256  12.590 -0.8469  0.7402 -0.4502
 4821TIP3    H135878   3.661   6.243  12.681  0.9737  2.8256 -0.5386
 4821TIP3    H235879   3.569   6.191  12.573 -0.3817 -0.4977  2.0201
 4822TIP3   OH235880   3.871   3.906  15.775  0.2007 -0.6199  0.5200
 4822TIP3    H135881   3.882   3.886  15.682  0.5770  0.0010  0.4243
 4822TIP3    H235882   3.779   3.932  15.783  0.5507  0.8698  0.0104
 4823TIP3   OH235883   0.924   2.542   5.654 -0.4790 -0.4798  0.7249
 4823TIP3    H135884   1.006   2.516   5.695  0.6684  1.8040  0.0214
 4823TIP3    H235885   0.873   2.582   5.725 -0.4798 -0.7791  0.8944
 4824TIP3   OH235886   4.884   3.738  15.051 -0.5634  0.7772 -0.5511
 4824TIP3    H135887   4.967   3.723  15.007  1.4697 -0.7501  3.2963
 4824TIP3    H235888   4.834   3.657  15.037  0.0034  0.3653 -0.2490
 4825TIP3   OH235889   5.562   2.821   1.575 -0.2355 -0.2581  0.1544
 4825TIP3    H135890   5.558   2.726   1.583  0.1646 -0.5544 -2.3462
 4825TIP3    H235891   5.506   2.853   1.646 -2.6838 -2.4541 -0.6073
 4826TIP3   OH235892   0.125   5.483  14.586 -0.5311  0.4631  0.1417
 4826TIP3    H135893   0.048   5.446  14.542 -0.4089  0.4105 -0.0288
 4826TIP3    H235894   0.193   5.483  14.519 -0.2155 -0.0307  0.4543
 4827TIP3   OH235895   6.267   2.872  15.513 -0.0425  0.8621 -0.1707
 4827TIP3    H135896   6.287   2.778  15.508 -1.0044  0.5264  1.5123
 4827TIP3    H235897   6.325   2.912  15.448 -0.0849 -0.9569 -1.3986
 4828TIP3   OH235898   2.691   5.586   5.599  0.8608 -0.6203 -0.8695
 4828TIP3    H135899   2.752   5.615   5.531 -0.0223 -0.6869 -1.7270
 4828TIP3    H235900   2.686   5.491   5.589  2.1599 -0.8658  0.5579
 4829TIP3   OH235901   4.108   2.543   4.561  0.4871 -0.0277 -0.7029
 4829TIP3    H135902   4.062   2.470   4.518  1.8123 -1.0654 -0.4007
 4829TIP3    H235903   4.038   2.604   4.584 -0.3925  0.1269 -3.4381
 4830TIP3   OH235904   1.065   6.580   2.341  0.4737  0.0782  0.3177
 4830TIP3    H135905   1.011   6.503   2.357 -1.8193  1.4505 -0.3167
 4830TIP3    H235906   1.059   6.595   2.247 -0.5925  1.9829  0.6383
 4831TIP3   OH235907   3.803   3.989   5.026 -0.1767  0.5616 -0.4460
 4831TIP3    H135908   3.715   3.960   5.050  0.2438  0.4184  1.0342
 4831TIP3    H235909   3.789   4.071   4.979 -1.0955  0.6860  0.0223
 4832TIP3   OH235910   4.092   5.866   4.892 -0.2238  0.6066  0.0904
 4832TIP3    H135911   4.143   5.883   4.813  0.2733 -1.9182 -0.2193
 4832TIP3    H235912   4.078   5.952   4.931  2.3814  1.6084 -0.9755
 4833TIP3   OH235913   0.880   5.351   1.528  0.1399 -0.0309 -0.2093
 4833TIP3    H135914   0.871   5.284   1.461  1.2037  0.8959 -1.3305
 4833TIP3    H235915   0.836   5.315   1.605 -1.7414 -0.8093 -1.5953
 4834TIP3   OH235916   5.420   6.262   4.915  0.0969  0.1871 -0.1352
 4834TIP3    H135917   5.332   6.225   4.907 -0.1359  0.1993  1.8597
 4834TIP3    H235918   5.478   6.186   4.924 -0.0643  0.2002  1.2630
 4835TIP3   OH235919   4.950   6.328   0.232 -0.7788 -0.1814 -0.0480
 4835TIP3    H135920   4.948   6.386   0.308 -0.1681 -1.2728  0.8350
 4835TIP3    H235921   5.023   6.360   0.179 -0.6088  0.0119  0.2979
 4836TIP3   OH235922   4.767   5.901   0.981 -0.2002 -0.4158 -0.1232
 4836TIP3    H135923   4.840   5.841   0.965 -1.0487 -1.1733 -1.2508
 4836TIP3    H235924   4.769   5.916   1.076  0.9318 -1.0386 -0.0316
 4837TIP3   OH235925   4.009   6.050  12.237 -0.6954  0.3756 -0.2917
 4837TIP3    H135926   4.015   5.988  12.164 -0.2017  1.8812 -1.5748
 4837TIP3    H235927   3.959   6.003  12.304  0.0388 -1.5719 -1.0222
 4838TIP3   OH235928   0.905   2.976   3.821  0.6805  0.1243  0.4409
 4838TIP3    H135929   0.907   3.058   3.772  0.9510 -0.1158  0.0418
 4838TIP3    H235930   0.862   2.998   3.904  2.0710  1.0048  0.9608
 4839TIP3   OH235931   3.259   1.193  13.052 -0.2465 -0.5501 -0.2379
 4839TIP3    H135932   3.293   1.145  12.976  0.3110 -0.5647  0.0176
 4839TIP3    H235933   3.171   1.158  13.065  0.8042 -2.8929  1.1194
 4840TIP3   OH235934   5.561   0.710   1.244  0.0456 -0.2238 -0.4831
 4840TIP3    H135935   5.586   0.799   1.222 -0.1056  0.3054  1.3139
 4840TIP3    H235936   5.467   0.716   1.264  0.3621 -0.3983  1.2509
 4841TIP3   OH235937   1.783   1.868   0.592  0.0064 -0.6091  0.0080
 4841TIP3    H135938   1.734   1.925   0.652  1.6547 -0.4615  1.2761
 4841TIP3    H235939   1.716   1.831   0.534 -1.2646  1.6370 -0.0608
 4842TIP3   OH235940   5.575   4.170  16.059  0.0541  0.3034 -0.3279
 4842TIP3    H135941   5.648   4.195  16.002  1.3735 -0.4217  0.9754
 4842TIP3    H235942   5.574   4.236  16.128  0.3620 -0.4250  0.3932
 4843TIP3   OH235943   2.309   1.342   6.735 -0.1188 -0.1960 -0.1055
 4843TIP3    H135944   2.349   1.417   6.691  2.9659 -1.5064  0.2009
 4843TIP3    H235945   2.281   1.377   6.820  0.6615  0.7897 -0.2232
 4844TIP3   OH235946   2.933   1.258  10.901  0.9091 -0.0132 -0.1010
 4844TIP3    H135947   2.879   1.284  10.975  1.4431 -0.3888  0.4318
 4844TIP3    H235948   2.907   1.168  10.882 -0.1317  0.5005 -1.2064
 4845TIP3   OH235949   6.514   1.748  16.536  0.0673  0.4037  0.0387
 4845TIP3    H135950   6.433   1.708  16.504 -0.1751  0.2757  0.8013
 4845TIP3    H235951   6.576   1.739  16.463 -0.2058 -0.7185 -0.0672
 4846TIP3   OH235952   4.416   1.680   1.574  0.3217  0.2344  0.2261
 4846TIP3    H135953   4.371   1.756   1.610 -1.8946 -0.1234 -1.5773
 4846TIP3    H235954   4.484   1.659   1.638 -1.9270  0.9446  3.0137
 4847TIP3   OH235955   3.542   5.287  11.627  0.2908  0.1116 -0.4493
 4847TIP3    H135956   3.610   5.223  11.606  0.6513  0.1986  0.3785
 4847TIP3    H235957   3.471   5.269  11.566  0.8423 -0.3387 -0.9692
 4848TIP3   OH235958   0.074   5.953  13.186  0.2492  0.5972  0.1678
 4848TIP3    H135959   0.100   6.022  13.246  0.7112  0.6563 -0.0943
 4848TIP3    H235960   0.065   5.875  13.241  0.6240  0.6615  0.3240
 4849TIP3   OH235961   6.191   0.744  14.222 -0.4821  0.5531 -0.1232
 4849TIP3    H135962   6.139   0.804  14.169  0.5061  0.9169 -0.7021
 4849TIP3    H235963   6.263   0.797  14.255 -0.6382  0.1322  0.9284
 4850TIP3   OH235964   2.225   5.918  15.129 -0.3228 -0.6657 -0.1639
 4850TIP3    H135965   2.130   5.917  15.117 -0.2754 -0.8573 -0.5538
 4850TIP3    H235966   2.259   5.959  15.049 -0.1259  0.1761  0.3402
 4851TIP3   OH235967   5.877   5.328   4.786  0.5245 -0.1046  0.4877
 4851TIP3    H135968   5.821   5.300   4.859  1.0899 -0.3693  0.8333
 4851TIP3    H235969   5.930   5.250   4.766  0.7762  0.1442  0.1831
 4852TIP3   OH235970   5.718   2.022   2.023 -0.2053  0.3472 -0.5332
 4852TIP3    H135971   5.800   2.025   1.974  1.0605 -2.1463  1.2110
 4852TIP3    H235972   5.725   2.094   2.086  0.9388 -0.1599 -0.0475
 4853TIP3   OH235973   6.685   6.705  14.372  0.0414  0.3856 -0.3432
 4853TIP3    H135974   6.740   6.729  14.297  0.8695 -1.2763 -0.3030
 4853TIP3    H235975   6.611   6.658  14.334  0.2096 -0.0300 -0.1602
 4854TIP3   OH235976   5.068   6.679   6.009  0.0322  0.6183  0.1942
 4854TIP3    H135977   5.102   6.595   6.039 -0.7417  0.4867  0.7248
 4854TIP3    H235978   5.071   6.735   6.086 -0.8534  0.6317  0.2225
 4855TIP3   OH235979   5.660   6.260   3.685 -0.0558  0.4019 -0.3651
 4855TIP3    H135980   5.726   6.285   3.750 -0.9341  3.0289 -0.3574
 4855TIP3    H235981   5.591   6.216   3.735  0.1306  0.7276  0.1774
 4856TIP3   OH235982   0.910   3.032  12.116 -0.0425  0.0438 -0.2412
 4856TIP3    H135983   0.977   2.977  12.158 -0.2676 -0.2127 -0.2150
 4856TIP3    H235984   0.932   3.121  12.143  0.7825  0.0540 -0.9009
 4857TIP3   OH235985   2.742   0.668  16.879  0.5718 -0.0587  0.0701
 4857TIP3    H135986   2.830   0.656  16.912  0.8253 -1.0511 -0.9127
 4857TIP3    H235987   2.747   0.644  16.786 -0.6547  0.1689 -0.0819
 4858TIP3   OH235988   3.439   2.248   5.242  0.4124  0.0835  0.0632
 4858TIP3    H135989   3.527   2.262   5.276  1.7065 -0.9877 -2.5288
 4858TIP3    H235990   3.453   2.212   5.155 -2.6290 -1.0320 -0.0740
 4859TIP3   OH235991   0.010   6.459   5.126  0.1211  0.5802 -0.4517
 4859TIP3    H135992  -0.020   6.523   5.191  0.2735 -1.1961  1.4889
 4859TIP3    H235993  -0.068   6.438   5.075 -1.4282 -1.7578  2.5663
 4860TIP3   OH235994   3.106   6.477   2.949  0.0461  0.0114  0.1598
 4860TIP3    H135995   3.097   6.439   2.862  1.1015 -0.3767  0.2082
 4860TIP3    H235996   3.098   6.571   2.936 -0.8362 -0.1089 -0.2045
 4861TIP3   OH235997   0.962   0.942   3.395 -0.2123  0.2898  0.4201
 4861TIP3    H135998   0.939   0.880   3.465  0.8299  0.1522  0.6577
 4861TIP3    H235999   1.028   0.999   3.435  1.1529 -0.4127 -0.7295
 4862TIP3   OH236000   4.349   2.150   3.020  0.0765  0.3138  0.2886
 4862TIP3    H136001   4.340   2.145   2.924  0.0634  0.5088  0.2795
 4862TIP3    H236002   4.442   2.167   3.034 -0.2380  2.3255  0.2272
 4863TIP3   OH236003   2.155   0.708  12.113 -0.0778  0.4452 -0.0282
 4863TIP3    H136004   2.075   0.661  12.140  0.6650  0.2774  2.0864
 4863TIP3    H236005   2.136   0.738  12.025 -2.1314 -0.3999  0.0575
 4864TIP3   OH236006   0.994   6.230  15.050  0.3532 -0.4667 -0.3748
 4864TIP3    H136007   0.960   6.211  15.138  1.0169  0.1308  0.0229
 4864TIP3    H236008   1.047   6.153  15.027 -1.7565 -1.7201 -1.2898
 4865TIP3   OH236009   0.658   0.071   0.142  0.1957  0.2940 -0.2151
 4865TIP3    H136010   0.709   0.141   0.182 -0.1144  0.9647 -0.9542
 4865TIP3    H236011   0.715  -0.006   0.145 -0.2529 -0.0299  2.5691
 4866TIP3   OH236012   2.429   4.915   1.536  0.4310  0.6033  0.3532
 4866TIP3    H136013   2.373   4.973   1.588 -0.9143 -0.2502 -0.0745
 4866TIP3    H236014   2.489   4.974   1.490 -1.4334  1.7672 -0.7310
 4867TIP3   OH236015   0.270   1.987   6.578 -1.0148  0.1736  0.1826
 4867TIP3    H136016   0.286   1.931   6.654 -0.5281  0.1584  0.0756
 4867TIP3    H236017   0.274   1.927   6.503 -1.4268  0.1993  0.1352
 4868TIP3   OH236018   6.246   3.945   1.610 -0.1426  0.3333  0.1979
 4868TIP3    H136019   6.228   3.852   1.595 -1.2583  0.4795  0.5678
 4868TIP3    H236020   6.296   3.948   1.691 -1.1613  0.1276  0.8526
 4869TIP3   OH236021   0.402   0.876   2.461  0.6165 -0.6756 -0.0221
 4869TIP3    H136022   0.311   0.855   2.440  0.5753 -1.8033  1.2116
 4869TIP3    H236023   0.399   0.914   2.548  1.2057  0.4823 -0.4855
 4870TIP3   OH236024   2.654   3.948   4.065  0.5194  0.4375  0.0219
 4870TIP3    H136025   2.601   3.897   4.004  1.2997  0.1963 -0.4689
 4870TIP3    H236026   2.713   3.884   4.104 -0.1706  0.5365  1.2698
 4871TIP3   OH236027   2.713   5.513  14.455 -0.0603 -0.0627  0.3591
 4871TIP3    H136028   2.651   5.583  14.434 -0.4396  0.0361  1.6899
 4871TIP3    H236029   2.658   5.437  14.473  0.2512 -0.2149  0.6751
 4872TIP3   OH236030   0.417   1.578  12.867  0.1770 -0.2442 -0.0390
 4872TIP3    H136031   0.386   1.494  12.833 -1.0660  0.2716 -0.2456
 4872TIP3    H236032   0.373   1.643  12.812 -1.9891  0.6474  2.5119
 4873TIP3   OH236033   4.514   2.428  12.029 -0.2452  0.0801  0.3133
 4873TIP3    H136034   4.434   2.429  12.082 -0.2645  0.5114  0.2779
 4873TIP3    H236035   4.524   2.518  11.999 -0.3487 -0.2062 -0.5866
 4874TIP3   OH236036   2.004   1.068  15.958 -0.3561  0.0105  0.3691
 4874TIP3    H136037   1.976   1.131  16.025 -0.6482 -0.8616  1.0911
 4874TIP3    H236038   1.967   0.984  15.987  1.2341 -0.7822  0.2215
 4875TIP3   OH236039   0.508   6.253  14.011 -0.1630 -0.0321  0.4203
 4875TIP3    H136040   0.524   6.328  14.069 -1.2554  0.0371  0.6419
 4875TIP3    H236041   0.423   6.219  14.038 -0.0970 -0.7917 -0.2972
 4876TIP3   OH236042   2.379   4.850  12.196 -0.1324 -0.0886 -0.0506
 4876TIP3    H136043   2.330   4.913  12.248  0.5268 -0.2976  0.8467
 4876TIP3    H236044   2.426   4.797  12.260  1.3102  0.1400 -0.8702
 4877TIP3   OH236045   6.280   4.791  13.181  0.1876 -0.0487 -0.0103
 4877TIP3    H136046   6.249   4.706  13.149  1.5858 -0.5110 -0.2068
 4877TIP3    H236047   6.267   4.850  13.107  0.4234 -0.3909 -0.3293
 4878TIP3   OH236048   2.400   0.343  13.653 -0.2651  0.4379  0.0161
 4878TIP3    H136049   2.436   0.260  13.621  0.4694  0.9955 -0.6428
 4878TIP3    H236050   2.390   0.329  13.747 -0.4987 -0.5231 -0.1400
 4879TIP3   OH236051   2.067   1.299   1.388  0.0912 -0.2639 -0.3842
 4879TIP3    H136052   2.082   1.205   1.399  2.4227  0.1246  0.1145
 4879TIP3    H236053   1.998   1.320   1.451  0.1585 -1.4887  0.1200
 4880TIP3   OH236054   6.711   5.918  12.311  0.0370 -0.6111  0.0110
 4880TIP3    H136055   6.619   5.916  12.337  0.1479 -0.3672  0.4256
 4880TIP3    H236056   6.758   5.880  12.385  0.2860 -0.6284 -0.1534
 4881TIP3   OH236057   6.211   4.360  16.037 -0.2184 -0.6184 -0.5283
 4881TIP3    H136058   6.243   4.450  16.049 -2.3544  0.2636 -1.0719
 4881TIP3    H236059   6.188   4.331  16.126  0.0429 -0.4774 -0.4106
 4882TIP3   OH236060   4.159   0.635   4.188 -0.6085 -0.4054 -0.2204
 4882TIP3    H136061   4.107   0.713   4.208 -0.3047  0.0076 -1.0224
 4882TIP3    H236062   4.180   0.643   4.095  1.0122 -0.4816  0.1127
 4883TIP3   OH236063   0.287   2.257  14.110 -0.7173  0.1730 -0.6462
 4883TIP3    H136064   0.266   2.176  14.064 -1.6195  0.2314 -0.3451
 4883TIP3    H236065   0.376   2.243  14.143 -1.0397 -0.9018 -0.1721
 4884TIP3   OH236066   4.507   0.697   2.069  0.3776 -0.3945 -0.5886
 4884TIP3    H136067   4.579   0.714   2.010  2.0257 -0.2211  1.3600
 4884TIP3    H236068   4.468   0.783   2.087 -0.1994 -0.4627 -1.4678
 4885TIP3   OH236069   3.366   2.235  11.683  0.0180 -0.1208 -0.1866
 4885TIP3    H136070   3.353   2.300  11.751  0.4795  0.1655 -0.3709
 4885TIP3    H236071   3.455   2.251  11.650  0.0015 -0.6018 -0.4843
 4886TIP3   OH236072   2.920   3.657  16.728  0.4821  0.2505  0.1252
 4886TIP3    H136073   2.863   3.589  16.691  0.0825  1.6721 -2.0289
 4886TIP3    H236074   2.859   3.717  16.773  0.1141  1.9231 -2.4164
 4887TIP3   OH236075   5.532   3.480   5.958 -0.8524  0.0119  0.3308
 4887TIP3    H136076   5.457   3.526   5.921 -0.0110  0.1518 -1.2933
 4887TIP3    H236077   5.607   3.515   5.911  0.0211 -1.6327  0.4338
 4888TIP3   OH236078   3.874   3.129   4.370 -0.0293 -0.3194 -0.0043
 4888TIP3    H136079   3.932   3.204   4.360  0.8267 -1.1847 -2.3938
 4888TIP3    H236080   3.933   3.054   4.379 -0.8510 -0.8602  1.1353
 4889TIP3   OH236081   6.698   0.709   5.413 -0.0397  0.7268 -0.2164
 4889TIP3    H136082   6.672   0.727   5.323 -0.2571 -1.3329 -0.6215
 4889TIP3    H236083   6.616   0.688   5.458  0.1235  1.2861  0.3516
 4890TIP3   OH236084   2.858   2.744   3.769  0.4176  0.3296  0.4804
 4890TIP3    H136085   2.894   2.826   3.734  1.1283  0.1600  0.7864
 4890TIP3    H236086   2.904   2.732   3.852  0.3477 -0.3976  0.4182
 4891TIP3   OH236087   3.443   5.909  13.142 -0.0923 -0.5876  0.1800
 4891TIP3    H136088   3.476   5.892  13.054  0.6691  0.4774  0.2344
 4891TIP3    H236089   3.363   5.858  13.148  0.9292 -2.3266 -0.3759
 4892TIP3   OH236090   2.697   5.918   1.486 -0.1073  0.6420  0.2697
 4892TIP3    H136091   2.787   5.952   1.477 -0.3156  1.1682  0.1496
 4892TIP3    H236092   2.697   5.838   1.433  0.5012  0.2219  0.8778
 4893TIP3   OH236093   3.728   4.212  11.738  0.0991  0.3793  0.3942
 4893TIP3    H136094   3.656   4.260  11.697  0.9207  0.2348 -1.2830
 4893TIP3    H236095   3.805   4.267  11.725  0.2481  0.8640  2.7832
 4894TIP3   OH236096   3.557   4.629  16.143 -0.0165 -0.6196  0.0744
 4894TIP3    H136097   3.508   4.547  16.132 -0.0463 -0.6861  0.7079
 4894TIP3    H236098   3.639   4.602  16.184  0.5375 -0.5007 -0.9198
 4895TIP3   OH236099   3.140   1.681   1.347 -0.0133  0.2457  0.1172
 4895TIP3    H136100   3.050   1.675   1.378 -0.2373  2.6766  0.1515
 4895TIP3    H236101   3.188   1.718   1.421  1.0306 -1.0168  0.0935
 4896TIP3   OH236102   0.735   0.684   0.389  0.3853  0.4181 -0.3723
 4896TIP3    H136103   0.816   0.645   0.421  1.2577  1.9931 -0.5436
 4896TIP3    H236104   0.670   0.662   0.456  0.7105 -1.6329 -0.6847
 4897TIP3   OH236105   5.097   2.771   4.136  0.3240  0.7497 -0.3166
 4897TIP3    H136106   5.034   2.826   4.090  0.3779  1.3620  0.3383
 4897TIP3    H236107   5.057   2.684   4.135 -0.5491  1.1363  0.1332
 4898TIP3   OH236108   1.514   0.377  16.926 -0.2314  0.2781  0.1230
 4898TIP3    H136109   1.496   0.396  16.834 -0.1657 -1.4825 -0.2939
 4898TIP3    H236110   1.596   0.327  16.925 -0.1156  0.4250  1.1507
 4899TIP3   OH236111   3.082   3.304  17.241 -0.1743  0.1225 -0.1208
 4899TIP3    H136112   3.077   3.315  17.146  0.8281 -0.8752 -0.3046
 4899TIP3    H236113   3.087   3.394  17.275  2.4973  0.4876 -1.2220
 4900TIP3   OH236114   5.027   0.052   4.653 -0.2202  0.0253 -0.7486
 4900TIP3    H136115   5.077   0.132   4.668 -0.6728  0.4518 -1.4589
 4900TIP3    H236116   4.944   0.067   4.698 -0.0534 -0.3359 -0.3026
 4901TIP3   OH236117   0.328   5.345  12.004  0.5874 -0.0844 -0.0599
 4901TIP3    H136118   0.306   5.437  11.996 -2.2738 -0.4632  1.9483
 4901TIP3    H236119   0.271   5.301  11.941  0.7904 -0.5784  0.0945
 4902TIP3   OH236120   3.363   2.263  16.441  0.3865  0.1901 -0.9696
 4902TIP3    H136121   3.271   2.272  16.415  0.2676 -0.3800 -0.7515
 4902TIP3    H236122   3.410   2.323  16.383  0.1224 -1.0213 -2.5022
 4903TIP3   OH236123   2.187   3.072  17.206  0.3258  0.2934 -0.2699
 4903TIP3    H136124   2.175   2.981  17.232 -2.5832 -0.1206 -2.5474
 4903TIP3    H236125   2.119   3.119  17.254 -0.3740  0.6685 -1.5857
 4904TIP3   OH236126   3.136   3.022   3.103 -0.2221  0.0572 -0.2474
 4904TIP3    H136127   3.128   2.969   3.182 -0.7163 -0.8419 -0.8747
 4904TIP3    H236128   3.088   2.972   3.036  0.1944  0.7878 -1.1118
 4905TIP3   OH236129   5.832   3.581   1.467 -0.4149  0.1019  0.1771
 4905TIP3    H136130   5.803   3.664   1.505  0.2729  0.7888 -0.7448
 4905TIP3    H236131   5.791   3.514   1.521 -0.8355  1.0427  1.0553
 4906TIP3   OH236132   1.959   3.331  13.018  0.2809 -0.2760 -0.1955
 4906TIP3    H136133   2.012   3.321  12.939  0.0032 -1.9346 -0.2128
 4906TIP3    H236134   1.869   3.323  12.988  0.0722  0.9095  0.0633
 4907TIP3   OH236135   5.026   6.564   1.683 -0.2109  0.1353 -0.1718
 4907TIP3    H136136   5.093   6.499   1.703 -0.9040 -1.6329 -3.0717
 4907TIP3    H236137   5.073   6.634   1.639  0.0491 -0.0066 -0.1210
 4908TIP3   OH236138   6.294   0.172   2.521 -0.3177  0.2320 -0.0906
 4908TIP3    H136139   6.297   0.077   2.506 -1.5894  0.0969  0.3884
 4908TIP3    H236140   6.285   0.209   2.434  2.5485  0.0905 -0.5289
 4909TIP3   OH236141   0.941   4.749  15.578  0.3370 -0.5934 -0.3569
 4909TIP3    H136142   0.894   4.669  15.601 -0.8396  0.0678 -0.3905
 4909TIP3    H236143   0.944   4.799  15.660  0.3071 -0.3005 -0.5358
 4910TIP3   OH236144   0.604   0.015  12.859  0.5172 -0.0085 -0.2421
 4910TIP3    H136145   0.627   0.107  12.874  0.0067  0.1831 -0.6007
 4910TIP3    H236146   0.670  -0.035  12.907  0.3330  0.5538  0.6169
 4911TIP3   OH236147   5.769   5.330  14.461 -0.2104  0.4009 -0.5228
 4911TIP3    H136148   5.693   5.298  14.411  1.4323 -1.2594 -2.1456
 4911TIP3    H236149   5.754   5.298  14.550 -1.8191  0.9077 -0.5727
 4912TIP3   OH236150   4.302   4.056  11.950  0.1799  0.7540  0.4985
 4912TIP3    H136151   4.293   4.119  12.021  1.4270  1.2712  0.2258
 4912TIP3    H236152   4.284   4.107  11.871 -2.3123 -0.0600  0.4506
 4913TIP3   OH236153   2.020   6.172   5.993  0.1440  0.1989  0.2285
 4913TIP3    H136154   1.968   6.212   6.062 -0.2187 -1.4880  0.9788
 4913TIP3    H236155   2.008   6.229   5.917 -2.2087  0.2754  0.5957
 4914TIP3   OH236156   1.893   2.206  16.167  0.2369  0.2438  0.0855
 4914TIP3    H136157   1.979   2.245  16.186  0.3510  0.0504 -0.0273
 4914TIP3    H236158   1.875   2.231  16.077  1.3369 -1.7898 -0.7784
 4915TIP3   OH236159   6.322   1.276   2.401  0.4023  0.3491 -0.0580
 4915TIP3    H136160   6.370   1.344   2.353 -0.0298  0.7385  0.0642
 4915TIP3    H236161   6.276   1.323   2.470  2.4008 -0.3776  1.9089
 4916TIP3   OH236162   0.753   1.765   0.716  0.1827  0.5199 -0.2269
 4916TIP3    H136163   0.738   1.709   0.639  0.3312  0.7627 -0.4332
 4916TIP3    H236164   0.701   1.843   0.699 -1.0873 -0.0997  0.6759
 4917TIP3   OH236165   0.599   3.921   6.218 -0.0128  0.5982  0.0212
 4917TIP3    H136166   0.536   3.891   6.283  0.1287  0.3847  0.0642
 4917TIP3    H236167   0.548   3.972   6.156 -0.6805 -1.5155 -1.2692
 4918TIP3   OH236168   4.632   5.119  13.768 -0.1621  0.0835  0.1548
 4918TIP3    H136169   4.702   5.058  13.747 -0.3154 -0.1062  0.1974
 4918TIP3    H236170   4.614   5.104  13.861  0.2341  0.6329  0.3281
 4919TIP3   OH236171   3.369   2.581  16.365  0.6331  0.3584  0.2488
 4919TIP3    H136172   3.276   2.599  16.350  0.2966 -1.3654  0.0592
 4919TIP3    H236173   3.402   2.549  16.281  1.1720  0.0698  0.5625
 4920TIP3   OH236174   4.071   3.582   3.439 -0.4033 -0.2556 -0.1562
 4920TIP3    H136175   4.156   3.625   3.446 -0.9050  0.8862 -0.9372
 4920TIP3    H236176   4.010   3.651   3.412 -1.2893 -1.3829 -1.1605
 4921TIP3   OH236177   2.857   5.531   0.833 -0.0264  0.1372  0.0620
 4921TIP3    H136178   2.833   5.619   0.805  0.6778  0.2026 -0.3613
 4921TIP3    H236179   2.789   5.507   0.896  0.0402  1.1672  0.5546
 4922TIP3   OH236180   0.381   6.651   1.033  0.4653 -0.4604 -0.4937
 4922TIP3    H136181   0.440   6.640   1.108 -0.0362 -0.8704 -0.1510
 4922TIP3    H236182   0.315   6.583   1.045 -0.5469  0.5056 -0.4197
 4923TIP3   OH236183   5.562   1.699   2.359 -0.2157  0.2813 -0.4669
 4923TIP3    H136184   5.615   1.698   2.280  0.6582  2.4130  0.0256
 4923TIP3    H236185   5.594   1.626   2.411 -0.4032 -0.7852 -1.7972
 4924TIP3   OH236186   6.488   4.219   5.480  0.2710  0.2359  0.4577
 4924TIP3    H136187   6.546   4.295   5.474  2.0204 -0.9486  1.1755
 4924TIP3    H236188   6.525   4.156   5.418 -0.8817 -0.1998  0.1939
 4925TIP3   OH236189   0.695   0.652   3.256  0.0221  0.1529 -0.3219
 4925TIP3    H136190   0.689   0.564   3.220 -0.6482 -0.5860  1.4774
 4925TIP3    H236191   0.773   0.690   3.216  0.3701 -1.2904 -1.0599
 4926TIP3   OH236192   0.842   1.602   2.653  0.3113 -0.2513  0.9602
 4926TIP3    H136193   0.901   1.546   2.603 -0.0386 -0.8078  1.1651
 4926TIP3    H236194   0.818   1.673   2.593 -0.8307 -1.3878  0.0254
 4927TIP3   OH236195   5.966   3.584   4.778  0.0582  0.0830  0.6951
 4927TIP3    H136196   6.008   3.533   4.847 -0.9297 -1.4355  0.2239
 4927TIP3    H236197   6.032   3.649   4.753  1.1834 -0.6500  1.6466
 4928TIP3   OH236198   0.450   6.649  13.646 -0.2265  0.2645 -0.2685
 4928TIP3    H136199   0.377   6.613  13.696 -0.4312 -1.1045 -1.4901
 4928TIP3    H236200   0.421   6.646  13.555  0.9236  0.7607 -0.6768
 4929TIP3   OH236201   2.434   1.360  16.318  0.1091 -0.5534  0.3235
 4929TIP3    H136202   2.375   1.435  16.317 -2.0554 -2.1641  0.1198
 4929TIP3    H236203   2.481   1.365  16.235  0.5245  0.9538  0.6328
 4930TIP3   OH236204   2.267   1.312  16.628 -0.1246  0.0046  0.6333
 4930TIP3    H136205   2.242   1.351  16.712 -1.2594  0.1022  0.2714
 4930TIP3    H236206   2.184   1.294  16.585  0.4204 -1.3037  0.0912
 4931TIP3   OH236207   1.462   2.816  10.794 -0.5126 -0.2541  0.0077
 4931TIP3    H136208   1.480   2.905  10.764 -0.6836 -0.1446  0.2281
 4931TIP3    H236209   1.389   2.787  10.738 -0.4272 -0.2709 -0.0938
 4932TIP3   OH236210   3.633   2.374  14.026 -0.2705 -0.5787  0.2454
 4932TIP3    H136211   3.596   2.286  14.031  1.1433 -1.2600 -0.5418
 4932TIP3    H236212   3.676   2.377  13.941 -1.2776  1.3089 -0.2531
 4933TIP3   OH236213   1.065   4.631  13.413 -0.1219  0.3721  0.1987
 4933TIP3    H136214   1.138   4.659  13.358  0.0700 -2.8391 -1.4133
 4933TIP3    H236215   0.998   4.602  13.351 -0.4632 -2.0992  1.6020
 4934TIP3   OH236216   4.372   1.040   6.635  0.2054 -0.1640  0.1870
 4934TIP3    H136217   4.316   0.968   6.664  1.1865 -1.3204 -0.6924
 4934TIP3    H236218   4.423   1.063   6.712 -0.0620 -0.4641  0.4571
 4935TIP3   OH236219   6.194   5.884   0.615 -0.1398  0.1381 -0.2809
 4935TIP3    H136220   6.139   5.820   0.660 -1.8151  0.5711 -1.5983
 4935TIP3    H236221   6.283   5.867   0.647 -1.1494  0.2511  2.9165
 4936TIP3   OH236222   0.239   0.502   0.066  0.2806  0.0733 -0.2039
 4936TIP3    H136223   0.208   0.572   0.124  0.5034 -0.4899  0.6019
 4936TIP3    H236224   0.268   0.548  -0.013 -2.2861  0.6749 -0.8970
 4937TIP3   OH236225   6.116   3.814  15.166 -0.1476  1.4572  0.1043
 4937TIP3    H136226   6.200   3.859  15.149  0.1800  0.5395 -0.8083
 4937TIP3    H236227   6.140   3.723  15.178 -1.1219  0.9535 -1.4825
 4938TIP3   OH236228   5.920   5.920   5.250 -0.0290  0.1363  0.1061
 4938TIP3    H136229   5.988   5.867   5.291  1.4906  1.5353 -0.4914
 4938TIP3    H236230   5.937   5.913   5.156 -1.3111 -0.2348 -0.1213
 4939TIP3   OH236231   1.294   3.017  15.513  0.1398  0.3709 -0.3375
 4939TIP3    H136232   1.326   2.963  15.585  0.1682  0.0237 -0.6073
 4939TIP3    H236233   1.201   3.030  15.532  0.1197  0.1808 -0.2969
 4940TIP3   OH236234   2.454   6.222   0.458 -0.1171 -0.5108  0.4958
 4940TIP3    H136235   2.528   6.163   0.443 -0.1805 -0.1366 -1.5885
 4940TIP3    H236236   2.487   6.286   0.521  0.9647 -1.0155  0.4616
 4941TIP3   OH236237   0.426   1.857   5.841  0.4626 -0.4904 -0.5889
 4941TIP3    H136238   0.447   1.831   5.751  1.3100  0.7635 -0.7880
 4941TIP3    H236239   0.451   1.782   5.894  0.9413 -0.8639 -1.3136
 4942TIP3   OH236240   0.353   2.341   5.002 -0.1826  0.2928  0.0760
 4942TIP3    H136241   0.265   2.315   5.031 -0.3858 -1.5462 -1.8963
 4942TIP3    H236242   0.375   2.277   4.934  2.7930  0.6005  0.6498
 4943TIP3   OH236243   4.321   3.867  11.208  0.3086  0.5917  0.2304
 4943TIP3    H136244   4.284   3.917  11.281 -1.1881 -0.2523  0.0717
 4943TIP3    H236245   4.260   3.881  11.136  0.3612 -0.7378 -0.0843
 4944TIP3   OH236246   2.639   6.335   5.476 -0.6084 -0.2801 -0.0439
 4944TIP3    H136247   2.721   6.302   5.440  1.3908  1.2181  2.7292
 4944TIP3    H236248   2.639   6.428   5.453 -1.2548 -0.1568  0.4445
 4945TIP3   OH236249   4.330   6.692  15.879 -0.0351 -0.0131 -0.0529
 4945TIP3    H136250   4.354   6.785  15.876 -1.3467  0.3495 -0.3260
 4945TIP3    H236251   4.263   6.683  15.810 -0.8430 -0.8678  0.8196
 4946TIP3   OH236252   0.256   2.727   4.145 -0.1731  0.9009  0.1448
 4946TIP3    H136253   0.329   2.725   4.207  0.2155  1.0202 -0.3014
 4946TIP3    H236254   0.267   2.810   4.098 -0.4413  0.7910 -0.1150
 4947TIP3   OH236255   5.726   4.448   1.120 -0.5938  0.1791  0.0500
 4947TIP3    H136256   5.750   4.483   1.205  0.9808  1.2345 -0.7791
 4947TIP3    H236257   5.730   4.524   1.061 -0.3147 -0.7775 -1.2023
 4948TIP3   OH236258   4.371   1.592  16.809  0.5211  0.0035 -0.1056
 4948TIP3    H136259   4.398   1.677  16.845  0.0056  0.3352 -0.4823
 4948TIP3    H236260   4.284   1.577  16.846 -0.6101  0.9954 -2.2123
 4949TIP3   OH236261   6.098   3.108  15.647 -0.2290  0.2568 -0.0085
 4949TIP3    H136262   6.038   3.182  15.651  0.9347  1.2524 -0.3339
 4949TIP3    H236263   6.041   3.031  15.650 -1.3847  1.0964  2.2130
 4950TIP3   OH236264   4.660   0.424   6.139 -0.1323  0.2504  0.5723
 4950TIP3    H136265   4.720   0.477   6.192  0.0475 -0.4744  1.1026
 4950TIP3    H236266   4.713   0.395   6.065  0.5461 -1.3567  1.6306
 4951TIP3   OH236267   2.623   1.620  15.630 -0.1115  0.1295 -0.2195
 4951TIP3    H136268   2.716   1.609  15.652 -0.0155  0.4264 -0.4686
 4951TIP3    H236269   2.612   1.572  15.549 -0.0800  0.4346 -0.4063
 4952TIP3   OH236270   0.244   3.753   0.055  0.0177 -0.2508  0.1077
 4952TIP3    H136271   0.274   3.668   0.087  0.7682 -0.9921 -2.3277
 4952TIP3    H236272   0.250   3.811   0.131  0.9751 -2.0199  1.4517
 4953TIP3   OH236273   5.482   2.957   5.524  0.1653 -0.2436  0.4081
 4953TIP3    H136274   5.391   2.981   5.542 -0.0345 -0.6415 -0.0452
 4953TIP3    H236275   5.533   3.030   5.558 -0.1991 -0.8455  2.4242
 4954TIP3   OH236276   4.734   6.520  13.406  0.3266  0.0156  0.4831
 4954TIP3    H136277   4.783   6.441  13.383 -0.2587  0.0856 -1.2102
 4954TIP3    H236278   4.775   6.589  13.355  0.1539  0.5962  1.1190
 4955TIP3   OH236279   3.341   2.543  13.692 -0.7907  0.1052  0.4317
 4955TIP3    H136280   3.329   2.451  13.668  1.2765  0.3004 -1.6904
 4955TIP3    H236281   3.363   2.541  13.785 -1.3206 -1.4811  0.5554
 4956TIP3   OH236282   6.202   4.340  14.866  0.1392  0.2210  0.1133
 4956TIP3    H136283   6.194   4.435  14.875 -0.0561  0.2785 -0.6162
 4956TIP3    H236284   6.275   4.317  14.924  1.5684  1.1019 -1.2386
 4957TIP3   OH236285   3.184   2.346  16.074 -0.6828 -0.7918 -0.0553
 4957TIP3    H136286   3.176   2.441  16.064 -0.1072 -0.4980  2.0222
 4957TIP3    H236287   3.277   2.330  16.091 -1.0026 -1.5476  1.1312
 4958TIP3   OH236288   2.725   1.506   6.528 -0.2722  0.7104  0.3107
 4958TIP3    H136289   2.648   1.554   6.497 -0.3501  0.7372  0.5467
 4958TIP3    H236290   2.770   1.479   6.448  0.3172  2.0348  0.1620
 4959TIP3   OH236291   2.757   2.978  12.989 -0.3921  0.4190  0.4026
 4959TIP3    H136292   2.809   3.058  12.980  0.8455 -0.3125  0.8586
 4959TIP3    H236293   2.735   2.973  13.082 -1.3256  0.7428  0.2068
 4960TIP3   OH236294   5.577   5.320   5.357 -0.2174 -0.1359 -0.0154
 4960TIP3    H136295   5.612   5.243   5.312 -0.7694 -1.0643  1.0891
 4960TIP3    H236296   5.655   5.369   5.383  0.1294 -0.0073 -1.2052
 4961TIP3   OH236297   4.099   6.652   0.173 -0.2283  0.0281 -0.8522
 4961TIP3    H136298   4.118   6.696   0.255 -0.1827 -0.2862 -0.6934
 4961TIP3    H236299   4.185   6.626   0.139 -0.3673 -2.3881  0.4110
 4962TIP3   OH236300   4.849   4.712  16.750  0.4210 -0.1949  0.0322
 4962TIP3    H136301   4.840   4.655  16.826 -0.6377  0.4917  0.4345
 4962TIP3    H236302   4.944   4.722  16.739  0.5955  0.0059  1.5089
 4963TIP3   OH236303   4.499   1.199   6.124 -0.3734  0.1588  0.4738
 4963TIP3    H136304   4.534   1.167   6.040 -2.6000  0.9647 -0.8531
 4963TIP3    H236305   4.452   1.124   6.160 -0.8681  0.2933  0.1245
 4964TIP3   OH236306   3.116   5.345   5.707  0.0231 -0.4333 -0.4160
 4964TIP3    H136307   3.085   5.435   5.719 -2.3348 -1.3887  1.3675
 4964TIP3    H236308   3.195   5.340   5.762  0.0697  0.4714 -0.3761
 4965TIP3   OH236309   4.539   6.344   4.336  0.9129  0.5765 -0.7274
 4965TIP3    H136310   4.469   6.409   4.329  0.6362  0.1369 -2.3468
 4965TIP3    H236311   4.567   6.328   4.246  3.2305  0.8512 -0.1219
 4966TIP3   OH236312   2.561   5.897  15.851 -0.6060  0.2114  0.1830
 4966TIP3    H136313   2.593   5.940  15.931  1.0320  0.4445 -0.5463
 4966TIP3    H236314   2.490   5.952  15.821  0.8508  1.9677 -0.2325
 4967TIP3   OH236315   0.673   5.612  12.376 -0.0961 -0.1907  0.0843
 4967TIP3    H136316   0.644   5.591  12.287 -1.5751 -3.1731  1.1115
 4967TIP3    H236317   0.608   5.570  12.432  1.7458  0.0861  2.5854
 4968TIP3   OH236318   1.279   3.267   0.806  0.1418 -0.3482  0.1701
 4968TIP3    H136319   1.204   3.248   0.863 -0.0853 -0.6128 -0.2123
 4968TIP3    H236320   1.355   3.266   0.865 -0.3655  2.0731  0.9876
 4969TIP3   OH236321   0.647   5.798   4.313 -0.3362  0.5060  0.0985
 4969TIP3    H136322   0.621   5.879   4.271  1.8083  0.2239 -1.9810
 4969TIP3    H236323   0.583   5.733   4.283  0.4073  0.5853 -1.8008
 4970TIP3   OH236324   6.227   1.912  16.951 -0.0862  0.6606 -0.6237
 4970TIP3    H136325   6.150   1.856  16.944 -0.1179  0.6717 -0.3667
 4970TIP3    H236326   6.274   1.898  16.869  0.3009 -0.3464 -0.2606
 4971TIP3   OH236327   4.331   3.237   0.549 -0.2766  0.2143 -0.7541
 4971TIP3    H136328   4.290   3.161   0.591 -2.2283  1.5591 -0.0457
 4971TIP3    H236329   4.360   3.205   0.464 -1.0080 -1.3375 -0.4569
 4972TIP3   OH236330   2.266   4.191  14.617  0.6545 -0.7246  0.3197
 4972TIP3    H136331   2.245   4.246  14.541 -0.8881  0.0682  1.2547
 4972TIP3    H236332   2.205   4.117  14.610  0.7976 -0.8654  0.5597
 4973TIP3   OH236333   6.167   3.106  11.641 -0.5022 -0.8331  0.7359
 4973TIP3    H136334   6.087   3.063  11.671 -2.1501  1.3199 -0.3127
 4973TIP3    H236335   6.188   3.169  11.710 -1.0116  0.1277  0.0397
 4974TIP3   OH236336   1.476   6.504  14.871 -0.7716  0.0731 -0.4309
 4974TIP3    H136337   1.490   6.509  14.965  1.9082  0.9086 -0.7852
 4974TIP3    H236338   1.426   6.583  14.850 -2.4892 -0.7573  0.4136
 4975TIP3   OH236339   0.523   1.420  14.008 -0.1672 -0.0449  0.1279
 4975TIP3    H136340   0.567   1.467  13.937  1.7909 -0.8917  0.7133
 4975TIP3    H236341   0.506   1.487  14.074  3.1192 -0.0950  1.2021
 4976TIP3   OH236342   4.389   1.921  10.857 -0.6080  0.6225  1.1195
 4976TIP3    H136343   4.329   1.939  10.785  0.2766  0.0221  0.1916
 4976TIP3    H236344   4.392   1.825  10.863  1.7990  0.5098 -0.2935
 4977TIP3   OH236345   4.404   1.963   5.924 -0.7954 -0.0944  0.2825
 4977TIP3    H136346   4.441   1.938   6.009  1.3225 -0.1861 -0.6248
 4977TIP3    H236347   4.316   1.925   5.925 -0.4129 -1.0538  1.9812
 4978TIP3   OH236348   3.967   0.207   1.149  0.4815 -0.0927 -0.1093
 4978TIP3    H136349   4.012   0.170   1.225  0.3255 -2.3472 -1.0350
 4978TIP3    H236350   4.037   0.243   1.094  0.8984 -1.0746 -0.2361
 4979TIP3   OH236351   2.093   4.818  14.834 -0.1211  0.3268  0.5125
 4979TIP3    H136352   2.002   4.788  14.825 -1.0086  2.5127  1.4517
 4979TIP3    H236353   2.132   4.760  14.899 -1.0748 -0.1296  0.6908
 4980TIP3   OH236354   2.205   5.642   0.561  0.1136 -0.2731  0.3808
 4980TIP3    H136355   2.130   5.584   0.578 -1.0284  1.1583  0.4181
 4980TIP3    H236356   2.172   5.730   0.581  1.6211  0.4548 -0.2176
 4981TIP3   OH236357   1.816   1.897   0.250  0.0680  0.0846  0.0696
 4981TIP3    H136358   1.750   1.834   0.220  0.0938 -0.2876  0.7734
 4981TIP3    H236359   1.897   1.847   0.253 -0.0935 -0.1180  1.5523
 4982TIP3   OH236360   5.913   1.367   1.681 -0.0618  0.5085  0.3428
 4982TIP3    H136361   5.853   1.305   1.722 -0.0958  0.3361  0.0407
 4982TIP3    H236362   5.858   1.442   1.658 -0.2088  0.2644 -0.1220
 4983TIP3   OH236363   2.538   4.111  14.048 -0.2136  0.3089 -0.4372
 4983TIP3    H136364   2.506   4.127  13.959 -0.9263  1.0315 -0.0583
 4983TIP3    H236365   2.630   4.140  14.045  0.2335 -1.1174 -1.3351
 4984TIP3   OH236366   2.143   3.266   1.808  0.1614  0.2263  0.0702
 4984TIP3    H136367   2.236   3.288   1.817 -0.0814  1.6773 -0.6924
 4984TIP3    H236368   2.099   3.350   1.800 -1.1609 -0.4610 -0.1777
 4985TIP3   OH236369   4.929   0.357  16.975 -0.3375  0.3000  0.1896
 4985TIP3    H136370   4.865   0.360  17.045  0.0682 -1.1437  0.6634
 4985TIP3    H236371   4.970   0.443  16.975  0.4933 -0.0377  2.5395
 4986TIP3   OH236372   2.949   1.059   5.029  0.1047  0.7165 -0.5421
 4986TIP3    H136373   2.961   1.107   4.947 -0.7777 -1.0174 -1.7473
 4986TIP3    H236374   2.930   0.969   5.001 -0.7990  0.2127  1.5472
 4987TIP3   OH236375   2.467   4.105  11.038  0.2061 -0.4147 -0.1331
 4987TIP3    H136376   2.373   4.085  11.037  0.1508 -0.2106 -1.8590
 4987TIP3    H236377   2.508   4.024  11.068 -0.5128 -0.4572  0.7966
 4988TIP3   OH236378   3.575   0.591   5.311 -0.6618  0.0493 -0.1399
 4988TIP3    H136379   3.563   0.612   5.219 -0.1743  0.2224 -0.1701
 4988TIP3    H236380   3.648   0.646   5.339  1.0058 -1.8952 -0.3630
 4989TIP3   OH236381   0.450   5.191   3.174 -0.4371 -0.0231  0.1469
 4989TIP3    H136382   0.531   5.154   3.210 -1.1626 -1.3098  0.5311
 4989TIP3    H236383   0.470   5.283   3.160  0.7852 -0.1033  1.1618
 4990TIP3   OH236384   2.498   4.943   5.373 -0.0339 -0.1085 -0.1960
 4990TIP3    H136385   2.424   5.002   5.358 -0.2057 -0.4720 -0.7685
 4990TIP3    H236386   2.459   4.856   5.380  0.3188 -0.2755 -0.2811
 4991TIP3   OH236387   0.771   6.486  13.976 -0.2854  0.3692  0.4300
 4991TIP3    H136388   0.858   6.520  13.996  1.1442 -2.8323  0.2897
 4991TIP3    H236389   0.750   6.430  14.051 -1.0315 -0.9155 -0.6863
 4992TIP3   OH236390   5.277   1.368   3.154 -0.5248  0.2119 -0.0641
 4992TIP3    H136391   5.267   1.276   3.178  0.0958 -0.4138 -1.9499
 4992TIP3    H236392   5.371   1.379   3.140 -0.3352  1.6712  1.9122
 4993TIP3   OH236393   0.942   0.273  10.705  0.4142  0.1428  0.1259
 4993TIP3    H136394   0.980   0.186  10.697 -1.6889 -0.8976  0.8190
 4993TIP3    H236395   0.941   0.308  10.616  1.1241 -0.5945 -0.1790
 4994TIP3   OH236396   0.323   0.365   2.217 -0.4449 -0.0313 -0.4616
 4994TIP3    H136397   0.292   0.455   2.220 -1.4898 -0.3655 -0.8105
 4994TIP3    H236398   0.256   0.318   2.167  1.3247 -0.5171 -2.5598
 4995TIP3   OH236399   5.863   2.879  10.872  0.1089  0.0773 -0.0803
 4995TIP3    H136400   5.913   2.858  10.951 -0.4972  0.2437  0.3593
 4995TIP3    H236401   5.793   2.813  10.871 -0.8464  1.0472  0.4225
 4996TIP3   OH236402   5.852   4.484  14.790  0.2093  0.8422 -0.2687
 4996TIP3    H136403   5.757   4.500  14.795 -0.4398 -2.5165  0.6812
 4996TIP3    H236404   5.859   4.398  14.749  2.7781  0.2785  1.1945
 4997TIP3   OH236405   2.534   5.872   3.056  0.5486  0.6300  0.0376
 4997TIP3    H136406   2.617   5.919   3.061  0.4713  1.0166 -1.5492
 4997TIP3    H236407   2.470   5.938   3.027 -0.2374  0.2517  0.8517
 4998TIP3   OH236408   0.889   2.807  14.327  0.5484  0.7415 -0.1602
 4998TIP3    H136409   0.975   2.765  14.328  0.3891  0.4055  1.0147
 4998TIP3    H236410   0.833   2.746  14.279  0.5842  0.1481  0.5410
 4999TIP3   OH236411   0.148   4.183   0.598  0.3106  0.3329 -0.2395
 4999TIP3    H136412   0.186   4.193   0.511  0.8970 -1.4781 -0.2251
 4999TIP3    H236413   0.062   4.226   0.592  0.5295  0.6204 -1.5552
 5000TIP3   OH236414   1.758   4.613   2.428  0.1077  0.0424 -0.8167
 5000TIP3    H136415   1.789   4.523   2.432 -0.0901  0.0123  0.2810
 5000TIP3    H236416   1.744   4.638   2.520 -0.0864  1.0988 -1.1211
 5001TIP3   OH236417   1.903   0.157   2.355 -0.0407  0.1717 -0.5213
 5001TIP3    H136418   1.898   0.073   2.401  0.7468  1.5327  2.2917
 5001TIP3    H236419   1.821   0.202   2.376 -0.1590  0.3961 -1.4207
 5002TIP3   OH236420   1.349   1.642  13.568  0.2759  0.0946 -0.7383
 5002TIP3    H136421   1.288   1.655  13.495 -0.0379 -0.0750 -0.5100
 5002TIP3    H236422   1.370   1.730  13.598  0.3087  0.1614 -0.9561
 5003TIP3   OH236423   3.580   3.917  13.027 -0.1703  0.1418 -0.4436
 5003TIP3    H136424   3.547   3.927  13.117 -0.6031  0.9865 -0.6922
 5003TIP3    H236425   3.662   3.966  13.026  0.4808 -0.8844 -0.1903
 5004TIP3   OH236426   2.187   4.102  13.622  0.7578  0.1963 -0.2830
 5004TIP3    H136427   2.095   4.084  13.643  1.0380 -0.4284  0.4642
 5004TIP3    H236428   2.183   4.164  13.550 -0.2678  1.7594  1.0469
 5005TIP3   OH236429   5.389   1.984   2.099  0.2398  0.4074  0.4734
 5005TIP3    H136430   5.437   2.011   2.020 -1.3829 -0.1924 -0.7677
 5005TIP3    H236431   5.454   1.991   2.170  1.3623  2.2980 -0.6615
 5006TIP3   OH236432   2.697   6.459  13.502 -0.1800  0.2283 -0.3787
 5006TIP3    H136433   2.698   6.409  13.420 -1.2147 -1.1139  0.3888
 5006TIP3    H236434   2.606   6.453  13.533 -0.1611  1.9760  0.1344
 5007TIP3   OH236435   1.253   2.836  12.325  0.0763  0.4524 -0.0714
 5007TIP3    H136436   1.238   2.826  12.231  1.3946  1.6465 -0.4426
 5007TIP3    H236437   1.347   2.849  12.333 -0.1636  1.6255  1.2718
 5008TIP3   OH236438   5.148   4.842  11.260  0.2489 -0.4118  0.2117
 5008TIP3    H136439   5.144   4.747  11.274 -0.3106 -0.2838  1.0033
 5008TIP3    H236440   5.089   4.857  11.186  0.7399 -0.7342 -0.2555
 5009TIP3   OH236441   3.857   3.711  14.970  0.1672  0.7343  0.0902
 5009TIP3    H136442   3.773   3.698  14.924  0.0958  2.2940 -0.2816
 5009TIP3    H236443   3.923   3.709  14.900  0.3169  0.6256  0.2355
 5010TIP3   OH236444   5.871   2.634   3.686 -0.2491 -0.1928  0.1316
 5010TIP3    H136445   5.840   2.712   3.732 -1.5847 -1.3409  1.2592
 5010TIP3    H236446   5.923   2.668   3.613  0.4972  1.7246  1.4781
 5011TIP3   OH236447   3.416   1.051   5.595 -0.0582  0.3713 -0.7962
 5011TIP3    H136448   3.332   1.062   5.640 -0.3220  0.1462 -1.2260
 5011TIP3    H236449   3.423   0.956   5.582 -0.0281  0.4418 -1.3082
 5012TIP3   OH236450   4.443   4.451   3.577 -0.4465 -0.2331 -0.3354
 5012TIP3    H136451   4.461   4.459   3.484  1.2372  4.1830  0.1360
 5012TIP3    H236452   4.350   4.474   3.585 -0.3065  0.5605 -0.8639
 5013TIP3   OH236453   1.796   3.569   3.056 -0.4002  0.5424  0.2619
 5013TIP3    H136454   1.801   3.518   3.137 -0.7493  1.5083  0.9053
 5013TIP3    H236455   1.798   3.503   2.986 -0.5493 -0.3285  1.0605
 5014TIP3   OH236456   5.842   1.855   6.289  0.0207  0.5466  0.5592
 5014TIP3    H136457   5.915   1.795   6.302  1.5298  1.7969 -1.4631
 5014TIP3    H236458   5.789   1.846   6.368  1.3055 -1.8397  1.2465
 5015TIP3   OH236459   5.632   1.212   3.401 -0.1873  0.3359  0.5675
 5015TIP3    H136460   5.548   1.257   3.402 -0.8540 -0.6878 -2.0730
 5015TIP3    H236461   5.697   1.282   3.392 -1.0040  0.9488 -0.6601
 5016TIP3   OH236462   6.070   3.446  11.370  0.5911 -0.2655 -0.1972
 5016TIP3    H136463   6.025   3.362  11.377 -0.9395  0.5489  0.2524
 5016TIP3    H236464   6.097   3.466  11.459  0.4887 -0.0421 -0.2162
 5017TIP3   OH236465   5.002   1.514  15.339 -0.2186  0.7602 -0.6125
 5017TIP3    H136466   5.010   1.582  15.272 -1.4490  2.4142  0.8143
 5017TIP3    H236467   5.088   1.512  15.380 -0.1846  1.5456 -0.6179
 5018TIP3   OH236468   0.603   0.786   1.350  0.1895 -0.0004 -0.4956
 5018TIP3    H136469   0.613   0.880   1.338  0.0946  0.1398  0.4650
 5018TIP3    H236470   0.639   0.768   1.437  0.5670 -0.9168 -0.8233
 5019TIP3   OH236471   5.181   1.544  16.905 -0.1740  0.3008 -0.1888
 5019TIP3    H136472   5.122   1.549  16.981  0.8262  0.7851  0.5894
 5019TIP3    H236473   5.134   1.588  16.835 -1.1642 -0.2413  0.1245
 5020TIP3   OH236474   2.013   3.012   4.308 -0.0157  0.3134 -0.2542
 5020TIP3    H136475   1.949   2.978   4.370  0.6036  1.0280  0.8038
 5020TIP3    H236476   2.002   2.958   4.230 -0.1015 -1.3134  0.8355
 5021TIP3   OH236477   4.542   6.351   3.150 -0.0928 -0.0752 -0.2424
 5021TIP3    H136478   4.457   6.394   3.142 -0.5260 -0.9275 -0.3869
 5021TIP3    H236479   4.526   6.262   3.119  1.0105 -0.0635 -0.8952
 5022TIP3   OH236480   2.276   1.986   6.087  0.3209 -0.1516  0.0891
 5022TIP3    H136481   2.229   1.929   6.148 -1.1035  0.5899 -0.2755
 5022TIP3    H236482   2.278   2.071   6.130  2.2341 -0.3754  0.5242
 5023TIP3   OH236483   3.817   0.097   5.339 -0.4994 -0.4407 -0.0922
 5023TIP3    H136484   3.910   0.074   5.347 -0.4462 -1.0538 -2.0212
 5023TIP3    H236485   3.818   0.190   5.317 -0.3544 -0.4226 -0.0131
 5024TIP3   OH236486   1.802   0.263  16.487  0.2195  0.2755 -0.1884
 5024TIP3    H136487   1.737   0.260  16.558 -0.1042 -1.9300 -0.4910
 5024TIP3    H236488   1.885   0.279  16.531  0.0260 -1.0995  0.7447
 5025TIP3   OH236489   1.607   2.193   1.879 -0.3537 -0.5763 -0.3044
 5025TIP3    H136490   1.682   2.182   1.819 -0.5601  3.7032 -1.7330
 5025TIP3    H236491   1.539   2.231   1.824 -1.8306  0.2533  1.9777
 5026TIP3   OH236492   2.224   4.751  15.511 -0.4776 -0.3192  0.6820
 5026TIP3    H136493   2.301   4.741  15.456 -0.4632  0.4214  0.5532
 5026TIP3    H236494   2.260   4.772  15.598 -0.5187 -0.7882  0.8169
 5027TIP3   OH236495   3.932   1.059  14.416 -0.2275  0.4418 -0.1540
 5027TIP3    H136496   3.883   1.055  14.497 -0.0611  1.1618 -0.0127
 5027TIP3    H236497   3.984   1.139  14.423 -0.6265  0.8143 -1.1951
 5028TIP3   OH236498   5.579   4.539   3.582  0.2606  0.1599  0.7369
 5028TIP3    H136499   5.513   4.586   3.634 -1.5987 -3.8658  2.4265
 5028TIP3    H236500   5.528   4.486   3.521  2.2110  0.1034 -0.9337
 5029TIP3   OH236501   4.062   5.622  11.984 -1.0664 -0.2162  0.1437
 5029TIP3    H136502   3.988   5.588  12.035 -0.8911  0.0989  0.6183
 5029TIP3    H236503   4.136   5.620  12.045 -0.9328  0.5051  0.0194
 5030TIP3   OH236504   4.989   4.661   1.498 -0.0807  0.0466  0.5545
 5030TIP3    H136505   5.004   4.695   1.586 -0.1417 -1.7004  1.2770
 5030TIP3    H236506   5.041   4.719   1.441  1.1359  0.3413  1.8979
 5031TIP3   OH236507   6.337   2.516   1.407 -0.9333 -0.4712  0.0333
 5031TIP3    H136508   6.333   2.569   1.487  0.0934  1.6518 -1.2098
 5031TIP3    H236509   6.365   2.430   1.436  1.3604  0.7492  1.8060
 5032TIP3   OH236510   4.153   4.117   1.143 -0.4821 -0.1489  0.4801
 5032TIP3    H136511   4.078   4.142   1.089 -0.6613 -0.4563  0.5810
 5032TIP3    H236512   4.126   4.136   1.232 -0.1344  0.4860  0.4544
 5033TIP3   OH236513   0.703   6.726  13.689 -0.3759  0.6726  0.6739
 5033TIP3    H136514   0.749   6.678  13.620  0.3210  2.3517 -0.0950
 5033TIP3    H236515   0.629   6.671  13.713  0.4726 -0.8238 -0.0493
 5034TIP3   OH236516   5.102   1.601  12.044  0.0408 -0.1329  0.5738
 5034TIP3    H136517   5.147   1.675  12.085  1.7191 -0.1897 -1.0020
 5034TIP3    H236518   5.010   1.615  12.062  0.4284  1.6842  1.3539
 5035TIP3   OH236519   1.331   5.559   3.524 -0.5557  0.2059 -0.4529
 5035TIP3    H136520   1.266   5.628   3.542 -0.3757  0.1171  0.5683
 5035TIP3    H236521   1.292   5.479   3.560  0.3260  0.2408  0.6138
 5036TIP3   OH236522   4.398   3.039   0.965  0.3174  0.3125  0.1837
 5036TIP3    H136523   4.359   3.067   1.048 -0.6114  0.2040 -0.2051
 5036TIP3    H236524   4.474   3.096   0.955 -0.6263  1.6388  0.1908
 5037TIP3   OH236525   5.832   1.707   0.692  0.6565  0.7052  0.3098
 5037TIP3    H136526   5.746   1.665   0.695  0.7074  0.6551  1.2860
 5037TIP3    H236527   5.894   1.635   0.677  0.6222  0.5882  0.7050
 5038TIP3   OH236528   0.531   5.492   5.007 -0.5653  0.1789  0.6147
 5038TIP3    H136529   0.577   5.460   5.084 -0.0745 -1.5056 -0.3489
 5038TIP3    H236530   0.449   5.528   5.042  0.4759  1.2208  2.0982
 5039TIP3   OH236531   1.949   3.075  14.261 -0.2576 -0.5222 -0.1100
 5039TIP3    H136532   1.893   3.020  14.207  0.5446  0.0860 -1.6180
 5039TIP3    H236533   2.002   3.013  14.311 -0.2442 -1.1249 -0.8443
 5040TIP3   OH236534   2.708   2.696  15.748  0.3693  0.2156  0.0789
 5040TIP3    H136535   2.797   2.665  15.732  1.2918  1.4699  2.3805
 5040TIP3    H236536   2.701   2.703  15.843 -1.0918  3.0969 -0.1069
 5041TIP3   OH236537   3.973   2.069  11.813 -0.9355  0.1248  0.4348
 5041TIP3    H136538   3.960   2.090  11.721 -1.9819  0.8553  0.7249
 5041TIP3    H236539   4.067   2.076  11.827 -1.0560  4.0658  0.3194
 5042TIP3   OH236540   1.720   1.919  11.390 -1.1697  0.1741 -0.2735
 5042TIP3    H136541   1.735   2.012  11.374  0.9436 -0.2406 -0.9318
 5042TIP3    H236542   1.752   1.875  11.311 -0.5536 -1.2229  0.7089
 5043TIP3   OH236543   3.901   1.761  16.915  0.1091 -0.1953  0.5327
 5043TIP3    H136544   3.870   1.737  16.827 -1.8987 -3.1688  1.8918
 5043TIP3    H236545   3.990   1.726  16.919  0.8364  1.3956 -0.7957
 5044TIP3   OH236546   1.514   0.062   5.667  0.3406 -0.0294  0.0433
 5044TIP3    H136547   1.523   0.144   5.715  0.0208  0.9084 -1.4087
 5044TIP3    H236548   1.594   0.014   5.684  1.7269  1.7448 -1.1174
 5045TIP3   OH236549   4.204   5.201   5.667 -0.3745 -0.0276  0.2945
 5045TIP3    H136550   4.253   5.165   5.593 -2.5983 -2.0795 -0.2787
 5045TIP3    H236551   4.272   5.239   5.723  1.8974 -2.5619 -0.4980
 5046TIP3   OH236552   5.252   5.414  12.953  0.1439 -0.5545  0.0726
 5046TIP3    H136553   5.230   5.490  12.899  1.9807 -1.1799 -1.6848
 5046TIP3    H236554   5.176   5.357  12.947  0.3892 -0.7357 -2.1904
 5047TIP3   OH236555   4.147   5.047  10.646 -0.1973  0.4994 -0.0119
 5047TIP3    H136556   4.169   4.988  10.573 -0.5501  0.3872 -0.0287
 5047TIP3    H236557   4.222   5.106  10.651  1.5840 -1.7174  1.8822
 5048TIP3   OH236558   4.908   0.930   6.234 -0.5715  0.3364  0.4277
 5048TIP3    H136559   4.829   0.878   6.252 -0.7608 -0.7856 -2.9026
 5048TIP3    H236560   4.963   0.917   6.311 -1.8483 -2.4603  1.0094
 5049TIP3   OH236561   3.280   4.714   4.452 -0.7306  0.6426  0.5162
 5049TIP3    H136562   3.265   4.620   4.462 -1.3738  0.5616 -0.9595
 5049TIP3    H236563   3.194   4.750   4.431 -0.2385  1.3475 -0.3496
 5050TIP3   OH236564   1.673   1.680   0.136 -0.1372 -0.6828 -0.0736
 5050TIP3    H136565   1.698   1.641   0.053 -1.5258 -0.3122 -0.6929
 5050TIP3    H236566   1.584   1.648   0.153  0.2933 -1.1373  1.5223
 5051TIP3   OH236567   0.866   1.049   3.170  0.2278 -0.2401  0.0187
 5051TIP3    H136568   0.817   1.119   3.213  2.7315  3.0256 -1.9037
 5051TIP3    H236569   0.913   1.005   3.240  2.1670  3.1725  1.0900
 5052TIP3   OH236570   0.141   2.980  12.402 -0.3245  0.0895  0.0043
 5052TIP3    H136571   0.167   2.898  12.358 -3.0831 -0.4698 -0.8139
 5052TIP3    H236572   0.047   2.969  12.417 -0.6362  2.8594  0.4774
 5053TIP3   OH236573   0.369   5.145  12.940  0.0677  0.2252 -0.3201
 5053TIP3    H136574   0.381   5.109  12.852 -0.0085 -1.2999  0.2695
 5053TIP3    H236575   0.347   5.070  12.994  0.6740  1.0541  1.1288
 5054TIP3   OH236576   2.984   2.814  14.253 -0.1516  0.2867  0.5187
 5054TIP3    H136577   3.015   2.903  14.268  2.8078 -0.8732  2.2257
 5054TIP3    H236578   2.955   2.813  14.162  1.5290  2.5194 -0.1090
 5055TIP3   OH236579   0.782   0.107  13.292  0.1655 -0.7929 -0.0662
 5055TIP3    H136580   0.777   0.192  13.248 -0.0666 -0.4977  0.5114
 5055TIP3    H236581   0.832   0.051  13.232  3.7261  0.7725  1.1727
 5056TIP3   OH236582   4.435   3.653  11.577  0.0044  0.4930  0.6643
 5056TIP3    H136583   4.377   3.600  11.522  0.0965  0.5013  0.5589
 5056TIP3    H236584   4.475   3.716  11.516  2.4113 -1.3938  0.1595
 5057TIP3   OH236585   2.947   6.058  11.466 -0.2169 -0.2544 -0.3097
 5057TIP3    H136586   3.039   6.072  11.445 -0.2401  0.3427 -0.0322
 5057TIP3    H236587   2.914   6.145  11.489 -0.3571 -0.7486  1.5324
 5058TIP3   OH236588   0.679   6.457   3.607  0.5130 -0.1972 -0.2122
 5058TIP3    H136589   0.638   6.514   3.541 -0.1634 -1.0123 -0.5247
 5058TIP3    H236590   0.646   6.489   3.690  1.2414  0.7388 -0.2646
 5059TIP3   OH236591   0.870   4.638   1.389 -0.2300 -0.0156 -0.1692
 5059TIP3    H136592   0.924   4.713   1.363 -0.1471 -0.0529 -0.1086
 5059TIP3    H236593   0.781   4.664   1.368 -0.2446  0.2577  0.2135
 5060TIP3   OH236594   4.316   4.690   6.127 -0.2637 -0.0210 -0.1325
 5060TIP3    H136595   4.341   4.598   6.133  0.4309  0.1594 -0.2283
 5060TIP3    H236596   4.222   4.688   6.107 -0.1385 -0.7051 -0.6711
 5061TIP3   OH236597   1.600   1.185   5.157  0.6249 -0.0285  0.2602
 5061TIP3    H136598   1.657   1.237   5.102  0.0408  0.4259  0.0781
 5061TIP3    H236599   1.601   1.230   5.242  0.0346  0.3506  0.0717
 5062TIP3   OH236600   5.245   2.170   2.269  0.3456  0.1100  0.5776
 5062TIP3    H136601   5.234   2.242   2.206 -0.0667 -0.4695 -0.0275
 5062TIP3    H236602   5.292   2.102   2.219  0.9056  0.0256  1.2025
 5063TIP3   OH236603   3.828   0.239  14.380 -0.1548  0.1307  0.7196
 5063TIP3    H136604   3.827   0.174  14.450  0.9075 -1.6302 -0.8078
 5063TIP3    H236605   3.790   0.193  14.305 -0.0863  1.5454 -0.2109
 5064TIP3   OH236606   0.202   2.264  17.178 -0.3230 -0.3744  0.1339
 5064TIP3    H136607   0.256   2.282  17.101 -1.7923 -0.3618 -0.9359
 5064TIP3    H236608   0.265   2.255  17.250  0.9386  4.5803  0.0041
 5065TIP3   OH236609   0.575   4.580   0.735 -0.1804 -0.4046  0.0124
 5065TIP3    H136610   0.624   4.498   0.725  0.3919 -0.0352 -0.2595
 5065TIP3    H236611   0.496   4.555   0.782 -0.4715 -1.2880 -0.8977
 5066TIP3   OH236612   5.474   4.386  11.514  0.8013  0.0748 -0.2819
 5066TIP3    H136613   5.543   4.427  11.566 -0.4887  0.7281  0.9877
 5066TIP3    H236614   5.469   4.297  11.547  0.0955  0.4416  0.6498
 5067TIP3   OH236615   4.066   1.521  13.352  0.3039 -0.0752 -0.1156
 5067TIP3    H136616   4.153   1.507  13.389  1.5454  1.2615 -2.2604
 5067TIP3    H236617   4.025   1.584  13.410  0.4526 -1.2580  1.3230
 5068TIP3   OH236618   4.979   0.259  16.073  0.5335  0.0359  0.7578
 5068TIP3    H136619   5.039   0.212  16.016 -0.3114  0.4011 -0.4818
 5068TIP3    H236620   4.895   0.255  16.028 -0.4207 -0.5468  2.4943
 5069TIP3   OH236621   0.496   3.913   4.917  0.0103 -0.1300 -0.3845
 5069TIP3    H136622   0.581   3.890   4.878  0.9494  0.9593  0.9104
 5069TIP3    H236623   0.502   3.882   5.007 -0.3921  1.1965  0.1203
 5070TIP3   OH236624   1.214   5.251   2.768  0.8046  0.0056  0.5279
 5070TIP3    H136625   1.185   5.160   2.784  0.8186  0.1231  1.2888
 5070TIP3    H236626   1.215   5.290   2.855  0.6038  0.8016  0.1765
 5071TIP3   OH236627   5.019   4.960  15.304  0.2408 -0.0928 -0.4838
 5071TIP3    H136628   4.972   5.010  15.372  0.3497 -1.1554  0.4013
 5071TIP3    H236629   5.111   4.974  15.324  0.2719 -0.5581 -0.3012
 5072TIP3   OH236630   1.102   6.190  14.223 -0.0253  0.2802  0.2082
 5072TIP3    H136631   1.177   6.233  14.264 -1.2734 -0.3447  3.4778
 5072TIP3    H236632   1.096   6.105  14.266 -1.1313 -0.7523 -1.8432
 5073TIP3   OH236633   3.081   2.400  13.856  0.3536  0.0132 -0.1219
 5073TIP3    H136634   3.009   2.440  13.905  0.6404  0.1264  0.2105
 5073TIP3    H236635   3.157   2.408  13.913  0.7559  0.4019 -0.6923
 5074TIP3   OH236636   4.948   3.793  16.623  0.5028  0.7868  0.1329
 5074TIP3    H136637   5.042   3.808  16.621  0.5760  0.2696 -0.3662
 5074TIP3    H236638   4.909   3.881  16.613  0.9094  0.6799 -3.4494
 5075TIP3   OH236639   4.384   5.864  10.597 -0.1959 -0.2053  0.2059
 5075TIP3    H136640   4.290   5.875  10.590 -0.0128  0.5613 -1.5190
 5075TIP3    H236641   4.396   5.811  10.676 -2.0969 -0.8400  0.1201
 5076TIP3   OH236642   6.727   3.712  17.357 -0.1101  0.0322  0.0753
 5076TIP3    H136643   6.699   3.621  17.343  0.6782 -0.3723  0.9984
 5076TIP3    H236644   6.812   3.704  17.400 -0.5712  1.1888  1.2770
 5077TIP3   OH236645   6.643   4.277   3.109 -0.6198 -0.3079  0.2441
 5077TIP3    H136646   6.607   4.314   3.029  0.1272  1.6560  0.7648
 5077TIP3    H236647   6.654   4.184   3.090 -0.6826  0.0755 -1.8352
 5078TIP3   OH236648   2.166   0.896   4.883 -0.3676 -0.2227 -0.1180
 5078TIP3    H136649   2.253   0.916   4.850 -0.3451 -0.7246 -0.3630
 5078TIP3    H236650   2.182   0.844   4.962 -0.4629 -1.8733 -1.1671
 5079TIP3   OH236651   5.424   3.486   1.952 -0.0555 -0.3805  0.1415
 5079TIP3    H136652   5.505   3.531   1.928 -1.5631  2.7204  0.2866
 5079TIP3    H236653   5.366   3.556   1.982 -2.6973 -2.5004  0.3834
 5080TIP3   OH236654   0.728   5.699   1.899 -0.3028  0.1218  0.3167
 5080TIP3    H136655   0.822   5.696   1.882 -0.4210 -0.7824 -0.2278
 5080TIP3    H236656   0.687   5.675   1.815 -0.9592 -1.8983  1.1665
 5081TIP3   OH236657   1.648   4.373   5.906  0.2666  0.3143 -0.9314
 5081TIP3    H136658   1.584   4.414   5.848 -1.7535 -0.5193  0.6197
 5081TIP3    H236659   1.666   4.440   5.973 -0.0721  0.0333 -0.5619
 5082TIP3   OH236660   5.066   4.185   2.491 -0.3702 -0.1531 -0.4551
 5082TIP3    H136661   5.069   4.277   2.518 -0.9628 -0.4679  0.7791
 5082TIP3    H236662   4.975   4.160   2.501  0.0382 -1.2915  0.7902
 5083TIP3   OH236663   5.103   5.822   3.587 -0.1971 -0.3538  0.0871
 5083TIP3    H136664   5.117   5.730   3.610 -2.0798 -0.7902 -0.3385
 5083TIP3    H236665   5.015   5.824   3.549 -0.8409  1.8966  1.5334
 5084TIP3   OH236666   0.593   1.004  11.584  0.0285 -0.5863  0.0721
 5084TIP3    H136667   0.514   1.056  11.601 -0.3286 -0.7353 -1.0887
 5084TIP3    H236668   0.560   0.924  11.543  0.7121 -1.0680  0.4564
 5085TIP3   OH236669   2.718   1.576   2.946 -0.0637  0.0132 -0.0133
 5085TIP3    H136670   2.716   1.602   3.038  1.5784 -1.4029  0.4691
 5085TIP3    H236671   2.745   1.485   2.948  1.5316  0.3889 -1.9791
 5086TIP3   OH236672   5.587   3.654  14.184 -0.5150  0.4763 -0.1060
 5086TIP3    H136673   5.504   3.612  14.204 -1.1952  0.7199 -2.1585
 5086TIP3    H236674   5.567   3.712  14.111  1.1753  1.6260  0.2921
 5087TIP3   OH236675   5.295   3.026   2.442  0.3134  0.7063 -0.5026
 5087TIP3    H136676   5.322   3.059   2.527  1.3425  1.1491 -0.9829
 5087TIP3    H236677   5.362   2.961   2.419 -2.2163 -2.7276  0.9265
 5088TIP3   OH236678   5.817   4.125   0.961  0.3010 -0.0026 -0.7220
 5088TIP3    H136679   5.746   4.129   1.025  0.2204  0.2530 -0.8289
 5088TIP3    H236680   5.891   4.092   1.011  0.1221 -0.2242 -0.5973
 5089TIP3   OH236681   6.046   2.458  12.988  0.1748 -0.0735 -0.1233
 5089TIP3    H136682   6.029   2.486  13.078  0.8518  0.3648 -0.1260
 5089TIP3    H236683   6.020   2.532  12.934 -0.7831 -0.5466 -0.3473
 5090TIP3   OH236684   1.121   2.429   5.446  0.1660  0.6659  0.1331
 5090TIP3    H136685   1.090   2.344   5.478  2.4629 -1.0719 -1.9185
 5090TIP3    H236686   1.185   2.457   5.512  0.8744 -0.2240 -0.1505
 5091TIP3   OH236687   3.497   4.296   4.944 -0.0007  0.5617  0.0802
 5091TIP3    H136688   3.454   4.286   4.859 -0.7714  0.5644  0.4627
 5091TIP3    H236689   3.459   4.227   4.998 -0.0726  1.0287  0.6374
 5092TIP3   OH236690   4.407   6.371   4.616  0.1066  0.1950 -0.0918
 5092TIP3    H136691   4.425   6.340   4.528 -1.9562 -1.2704 -0.0716
 5092TIP3    H236692   4.352   6.448   4.604  0.4664  0.4543 -0.0859
 5093TIP3   OH236693   1.408   1.444   2.233 -0.0873  0.4122  0.4330
 5093TIP3    H136694   1.476   1.500   2.272  2.0712 -1.3899 -0.5002
 5093TIP3    H236695   1.456   1.366   2.204 -2.1626  0.1061 -2.5503
 5094TIP3   OH236696   2.333   1.083  16.170  0.3326 -0.3021 -0.1642
 5094TIP3    H136697   2.425   1.071  16.193  0.6488  0.2902 -1.0940
 5094TIP3    H236698   2.286   1.071  16.253  1.2904  0.0342  0.4376
 5095TIP3   OH236699   3.958   1.694  13.552 -0.7306 -0.1067 -0.0631
 5095TIP3    H136700   3.901   1.734  13.487  0.9932  0.7751 -1.0794
 5095TIP3    H236701   3.940   1.743  13.633  1.2750  2.8825 -1.2423
 5096TIP3   OH236702   4.549   3.940  14.698  0.2015  0.6170 -0.0920
 5096TIP3    H136703   4.462   3.920  14.732  1.5733 -0.6640  3.0474
 5096TIP3    H236704   4.566   4.030  14.725  0.4821  0.2876  0.8687
 5097TIP3   OH236705   0.975   0.774  13.358  0.4828  0.4841  1.2318
 5097TIP3    H136706   0.962   0.814  13.273  0.0501  2.6647  2.2686
 5097TIP3    H236707   0.927   0.691  13.353 -1.1773  1.4640 -0.0019
 5098TIP3   OH236708   3.920   4.849   1.172  0.6297  0.5210  0.0398
 5098TIP3    H136709   3.831   4.877   1.148  0.3805 -0.9022 -0.7962
 5098TIP3    H236710   3.937   4.773   1.117  1.6805 -0.3419  1.4956
 5099TIP3   OH236711   6.336   2.829   5.703  0.0319  0.0135  0.2706
 5099TIP3    H136712   6.305   2.833   5.613 -2.5794 -1.4334  0.9979
 5099TIP3    H236713   6.277   2.767   5.746 -1.7283  3.7519  3.9957
 5100TIP3   OH236714   3.614   1.637   1.355 -0.1283 -0.0083 -0.6480
 5100TIP3    H136715   3.610   1.696   1.280  1.4851 -0.9834 -1.5632
 5100TIP3    H236716   3.586   1.552   1.320 -1.5265 -0.0370  0.4280
 5101TIP3   OH236717   6.708   5.201   1.661 -0.4345 -0.1980  0.5278
 5101TIP3    H136718   6.669   5.233   1.742  0.4336  0.7524  0.5927
 5101TIP3    H236719   6.799   5.181   1.684 -1.2041 -4.1761  0.8616
 5102TIP3   OH236720   2.397   3.462  14.443 -0.6105 -0.2561 -0.2009
 5102TIP3    H136721   2.431   3.482  14.530 -0.1468  1.4776 -0.7385
 5102TIP3    H236722   2.322   3.522  14.432 -0.5708 -0.3517 -1.0408
 5103TIP3   OH236723   1.869   1.935  14.332 -0.4282 -0.4520 -0.0936
 5103TIP3    H136724   1.889   2.017  14.378 -0.9668 -0.6092  0.4439
 5103TIP3    H236725   1.800   1.958  14.270 -0.0783 -0.3534 -0.4517
 5104TIP3   OH236726   1.203   1.966   1.943  0.5506  0.0022  0.1679
 5104TIP3    H136727   1.296   1.966   1.967  0.9358  1.8772 -1.1442
 5104TIP3    H236728   1.193   1.888   1.888  1.0373 -0.8741  1.2637
 5105TIP3   OH236729   5.392   2.196  13.462 -0.1487 -0.5646 -0.0214
 5105TIP3    H136730   5.336   2.193  13.385  1.4833 -0.2413 -1.2659
 5105TIP3    H236731   5.412   2.289  13.474  1.0117 -0.7652 -0.2804
 5106TIP3   OH236732   1.220   2.319   0.315 -0.3889 -0.3807  0.4764
 5106TIP3    H136733   1.215   2.414   0.324 -1.5567 -0.0044 -2.7547
 5106TIP3    H236734   1.309   2.302   0.286 -0.6206 -0.0360 -0.4856
 5107TIP3   OH236735   2.179   0.805  11.821  0.1077  0.4035 -0.4281
 5107TIP3    H136736   2.100   0.840  11.863 -0.5547 -0.8935 -0.5480
 5107TIP3    H236737   2.159   0.808  11.727 -0.8050 -2.1022 -0.3837
 5108TIP3   OH236738   3.505   2.690  13.370 -0.1928  0.1713 -0.2981
 5108TIP3    H136739   3.567   2.649  13.310  1.2857  1.1504  0.5072
 5108TIP3    H236740   3.536   2.665  13.457 -1.2600  0.2297  0.1107
 5109TIP3   OH236741   2.799   3.827   4.730  0.0913 -0.2656  0.3075
 5109TIP3    H136742   2.831   3.736   4.731  1.0056  0.0384  0.1263
 5109TIP3    H236743   2.770   3.840   4.640  4.7945  1.1608 -1.2970
 5110TIP3   OH236744   1.034   0.142   3.943 -0.1563 -0.2712  0.1021
 5110TIP3    H136745   1.060   0.060   3.902 -3.2465 -1.8104  0.9559
 5110TIP3    H236746   1.008   0.198   3.870 -0.2477 -0.9118 -0.3634
 5111TIP3   OH236747   0.822   0.108   4.114  0.1098  0.2349 -0.1107
 5111TIP3    H136748   0.864   0.085   4.197 -2.2821  0.1718  1.1747
 5111TIP3    H236749   0.885   0.081   4.047  0.7274 -2.9994  1.5511
 5112TIP3   OH236750   4.241   0.844   2.602 -0.4281 -0.5121  0.2113
 5112TIP3    H136751   4.178   0.864   2.533 -0.0680  2.0657  0.5281
 5112TIP3    H236752   4.324   0.882   2.571  0.1047 -0.6780  1.3791
 5113TIP3   OH236753   4.947   6.552  13.035  0.3230 -0.0858  0.1091
 5113TIP3    H136754   4.977   6.604  12.961  0.3481  0.9079  0.7965
 5113TIP3    H236755   4.961   6.608  13.111 -0.4541 -0.7754  0.7850
 5114TIP3   OH236756   5.662   2.106   4.165  0.2166 -0.5510 -0.1612
 5114TIP3    H136757   5.620   2.051   4.099 -0.0313 -1.1877  0.5117
 5114TIP3    H236758   5.702   2.043   4.226 -0.0746  0.0194  0.6234
 5115TIP3   OH236759   0.821   2.984   0.273 -0.1721  0.8754  0.0794
 5115TIP3    H136760   0.853   3.067   0.308 -1.4730  0.2024  3.1877
 5115TIP3    H236761   0.728   3.000   0.257 -1.0945 -0.5725  3.2648
 5116TIP3   OH236762   0.784   5.553   1.072  0.2866  0.5428  0.6155
 5116TIP3    H136763   0.740   5.535   0.989  1.5809  2.2918 -0.5206
 5116TIP3    H236764   0.784   5.469   1.118 -1.4814 -0.2071 -0.6331
 5117TIP3   OH236765   0.864   0.371   3.695  0.3121 -0.1029  0.5720
 5117TIP3    H136766   0.817   0.423   3.760  1.1282  0.1049  1.0150
 5117TIP3    H236767   0.820   0.391   3.612  0.3906  1.0423  0.7870
 5118TIP3   OH236768   4.905   0.050   5.077 -0.2113  0.0606 -0.3758
 5118TIP3    H136769   4.899  -0.025   5.135 -0.0579 -0.9814 -1.6450
 5118TIP3    H236770   4.943   0.119   5.130 -1.6223 -0.3356  1.2116
 5119TIP3   OH236771   6.429   1.670  11.202 -0.2997  0.2899  0.0668
 5119TIP3    H136772   6.362   1.616  11.244  0.2185 -1.3349 -1.1222
 5119TIP3    H236773   6.395   1.687  11.114  0.4290  0.2206 -0.2331
 5120TIP3   OH236774   0.036   4.496   4.423 -0.3149  0.7152  0.9407
 5120TIP3    H136775   0.122   4.456   4.437 -0.1522  0.2848 -1.0384
 5120TIP3    H236776  -0.021   4.454   4.487  0.4136 -0.8098  0.6225
 5121TIP3   OH236777   0.483   0.894   2.773 -0.2609 -0.9946 -0.6854
 5121TIP3    H136778   0.571   0.860   2.760 -0.2442 -1.1970 -0.0375
 5121TIP3    H236779   0.442   0.833   2.834  0.0849  0.6132  1.2505
 5122TIP3   OH236780   5.550   3.446  14.805  0.2297  0.0967  0.3403
 5122TIP3    H136781   5.503   3.528  14.824 -0.6035 -0.2268 -0.2806
 5122TIP3    H236782   5.481   3.381  14.794  0.8163 -0.3765 -0.6877
 5123TIP3   OH236783   4.385   4.921   5.716  0.5581  0.3980 -0.5688
 5123TIP3    H136784   4.420   4.871   5.789 -0.1280 -0.8027 -1.0323
 5123TIP3    H236785   4.462   4.956   5.671  1.0803 -0.7567 -0.5934
 5124TIP3   OH236786   5.894   6.253  17.151 -0.3134 -0.3684  0.3387
 5124TIP3    H136787   5.883   6.175  17.095  0.9985  0.2513 -0.8486
 5124TIP3    H236788   5.981   6.243  17.189 -1.2355 -0.8542  2.4874
 5125TIP3   OH236789   1.627   5.192   3.914  0.5976 -0.0458  0.0274
 5125TIP3    H136790   1.543   5.198   3.960  0.1618 -0.2577 -0.7257
 5125TIP3    H236791   1.686   5.246   3.966  0.5392 -1.5368  1.7187
 5126TIP3   OH236792   5.341   5.443  15.624  0.6064  0.5184  0.2376
 5126TIP3    H136793   5.353   5.355  15.660  0.0689  0.9643  1.5551
 5126TIP3    H236794   5.355   5.432  15.530  1.1087 -0.8650  0.4502
 5127TIP3   OH236795   3.789   4.732  15.149  0.1487 -0.2857  0.9238
 5127TIP3    H136796   3.743   4.798  15.098 -1.2473 -0.6327  1.6907
 5127TIP3    H236797   3.860   4.703  15.091 -0.3208  0.5739 -0.1211
 5128TIP3   OH236798   5.264   6.255  12.636  0.5199 -0.2641  0.1088
 5128TIP3    H136799   5.255   6.163  12.662 -0.7557  0.0466  0.8306
 5128TIP3    H236800   5.175   6.289  12.635  0.8301  0.6326 -1.5061
 5129TIP3   OH236801   6.232   3.617   1.797 -0.2544 -0.0668 -0.1560
 5129TIP3    H136802   6.154   3.566   1.775 -0.3545  0.5172 -1.2612
 5129TIP3    H236803   6.298   3.587   1.735  0.4646 -0.6517  0.8613
 5130TIP3   OH236804   5.818   4.021   1.508 -0.0536  1.1900  0.4975
 5130TIP3    H136805   5.879   4.069   1.563  0.8999  0.1733  0.3549
 5130TIP3    H236806   5.806   3.936   1.552 -1.9479  1.6243  0.9122
 5131TIP3   OH236807   0.555   6.616   3.428 -1.0871 -0.7188  0.4246
 5131TIP3    H136808   0.477   6.575   3.392 -0.3300  0.3736 -2.7661
 5131TIP3    H236809   0.526   6.703   3.454 -1.3068 -0.9743  1.0563
 5132TIP3   OH236810   0.356   4.244   3.280 -0.8154  0.1222 -0.2194
 5132TIP3    H136811   0.333   4.270   3.191 -0.9891 -1.0888 -0.5465
 5132TIP3    H236812   0.280   4.269   3.333  0.1714  2.9477  0.0552
 5133TIP3   OH236813   0.006   5.301  17.004 -0.0397  0.0107 -0.3488
 5133TIP3    H136814  -0.003   5.261  16.918  0.8853  1.4354 -1.1362
 5133TIP3    H236815  -0.043   5.383  16.998 -0.5114 -0.1740  0.7033
 5134TIP3   OH236816   4.534   6.275   2.110  0.2938 -0.4319  0.3496
 5134TIP3    H136817   4.560   6.356   2.065 -0.9855  0.9848  2.0184
 5134TIP3    H236818   4.450   6.296   2.150  0.5400 -2.1904  1.8968
 5135TIP3   OH236819   0.329   4.901   0.585  0.5491  0.4424 -0.2178
 5135TIP3    H136820   0.391   4.961   0.542 -1.8636  2.4972 -1.0687
 5135TIP3    H236821   0.318   4.829   0.523  2.7432 -0.5090  0.3836
 5136TIP3   OH236822   0.942   3.279  12.239  0.2364  0.0353 -0.1000
 5136TIP3    H136823   0.932   3.306  12.331 -0.8284  1.0635 -0.4862
 5136TIP3    H236824   1.023   3.320  12.210  0.7475 -0.5543  0.4529
 5137TIP3   OH236825   0.622   1.369  13.043 -0.4491 -0.0689  0.0307
 5137TIP3    H136826   0.563   1.382  12.969 -2.0613 -0.2121  1.2383
 5137TIP3    H236827   0.600   1.282  13.076  0.6674 -0.2532  0.3330
 5138TIP3   OH236828   0.050   1.327  11.627  0.2891  0.6314  0.2615
 5138TIP3    H136829   0.033   1.324  11.722  1.5854 -0.2436  0.4918
 5138TIP3    H236830   0.054   1.421  11.607 -0.8277  0.8303  0.9027
 5139TIP3   OH236831   1.765   2.003  16.915 -0.7543  0.1471  0.5785
 5139TIP3    H136832   1.710   2.005  16.836  0.1367  0.1958 -0.0548
 5139TIP3    H236833   1.726   2.069  16.972  0.3926  2.4099 -1.0854
 5140TIP3   OH236834   2.381   4.012  15.797  0.0619 -0.5212 -0.2218
 5140TIP3    H136835   2.351   4.028  15.708  0.4642 -0.4709 -0.3515
 5140TIP3    H236836   2.387   3.917  15.803  1.0746 -0.4937 -0.6063
 5141TIP3   OH236837   1.981   5.460  14.790  0.4638  0.2684 -0.2915
 5141TIP3    H136838   2.050   5.407  14.831 -0.5180 -0.4886  0.4209
 5141TIP3    H236839   1.962   5.415  14.708  0.2686  0.0391 -0.1194
 5142TIP3   OH236840   5.875   1.026   4.696  0.1627  0.0510 -0.5874
 5142TIP3    H136841   5.891   1.044   4.788 -0.1734 -0.7390 -0.3626
 5142TIP3    H236842   5.851   0.933   4.694 -1.7029  0.4950 -1.2150
 5143TIP3   OH236843   3.451   1.588  15.194  0.2072 -0.4700  0.1318
 5143TIP3    H136844   3.428   1.666  15.246  0.7661  1.3014 -2.1226
 5143TIP3    H236845   3.466   1.622  15.106 -1.1307 -3.3889 -1.3468
 5144TIP3   OH236846   3.808   3.550   3.843  0.0394 -0.1642 -0.1247
 5144TIP3    H136847   3.716   3.549   3.816  0.2781  0.1875 -1.0036
 5144TIP3    H236848   3.823   3.639   3.873 -0.3424 -0.6691  1.6809
 5145TIP3   OH236849   3.488   2.087  17.333  0.4856  0.5217 -0.5820
 5145TIP3    H136850   3.475   1.996  17.362 -2.4325  0.8636 -0.5568
 5145TIP3    H236851   3.551   2.123  17.396  2.1001 -1.5754 -0.8917
 5146TIP3   OH236852   5.768   6.654  16.980 -0.2893  0.0617  0.2710
 5146TIP3    H136853   5.800   6.628  17.067 -3.0017 -0.7624  1.1261
 5146TIP3    H236854   5.726   6.575  16.946 -2.2812  1.3016 -0.2947
 5147TIP3   OH236855   3.589   0.652  13.957  0.9560  0.3839 -0.3521
 5147TIP3    H136856   3.581   0.726  13.898 -0.8725  0.3800 -0.1626
 5147TIP3    H236857   3.660   0.675  14.016  1.1793  1.4620 -1.0285
 5148TIP3   OH236858   0.084   1.207  13.125 -0.7199 -0.2669  0.5011
 5148TIP3    H136859   0.161   1.258  13.100 -0.2217 -0.2938  1.8940
 5148TIP3    H236860   0.031   1.268  13.176 -0.2373 -1.0468  1.9676
 5149TIP3   OH236861   2.622   3.734   1.749  0.0871 -0.7491 -0.1651
 5149TIP3    H136862   2.594   3.825   1.757  0.1589 -0.7409 -0.0079
 5149TIP3    H236863   2.541   3.685   1.736  0.1838 -0.4628 -2.0987
 5150TIP3   OH236864   4.813   4.384  16.379  0.0707  0.0360  0.3670
 5150TIP3    H136865   4.897   4.409  16.415 -0.3455 -0.8444  2.0644
 5150TIP3    H236866   4.753   4.385  16.454 -0.6989 -2.4999 -0.0917
 5151TIP3   OH236867   2.468   6.180  11.937  0.2435  0.1546 -0.2246
 5151TIP3    H136868   2.554   6.206  11.903 -0.5810  1.7230 -1.1892
 5151TIP3    H236869   2.487   6.144  12.023  1.7771  1.3463 -0.0187
 5152TIP3   OH236870   1.320   0.731   6.089 -0.2928  0.3656 -0.4417
 5152TIP3    H136871   1.309   0.784   6.010  1.1680  0.4440 -0.6386
 5152TIP3    H236872   1.380   0.662   6.062 -2.9183 -2.0630 -0.4647
 5153TIP3   OH236873   5.018   3.016  16.849 -0.2002  0.1672 -0.8749
 5153TIP3    H136874   4.941   2.996  16.901  1.7409 -0.1516  2.0876
 5153TIP3    H236875   5.026   3.111  16.853  0.6361  0.0653  0.5955
 5154TIP3   OH236876   0.638   2.125  13.404  0.2376 -0.0812 -0.5569
 5154TIP3    H136877   0.600   2.099  13.320  1.0159  0.2847 -1.0347
 5154TIP3    H236878   0.651   2.219  13.397 -0.4516  0.0798  0.2947
 5155TIP3   OH236879   5.752   4.627  12.654  0.9163 -0.0190  0.1412
 5155TIP3    H136880   5.735   4.719  12.632  0.1717 -0.5075 -1.5550
 5155TIP3    H236881   5.730   4.620  12.747  2.2737  1.7861  0.6512
 5156TIP3   OH236882   4.524   0.477  12.866  0.6240 -0.2925  0.1799
 5156TIP3    H136883   4.512   0.407  12.930  0.5174 -0.5509 -0.1221
 5156TIP3    H236884   4.593   0.532  12.903  0.4225 -0.3317  0.6113
 5157TIP3   OH236885   2.368   4.251   1.850  0.3709  0.0214  0.0632
 5157TIP3    H136886   2.430   4.310   1.892  1.8038 -0.9835 -0.5721
 5157TIP3    H236887   2.352   4.182   1.915 -1.0868  0.9017  0.6984
 5158TIP3   OH236888   4.151   6.329   2.827 -0.2793 -0.6917 -0.3129
 5158TIP3    H136889   4.229   6.295   2.783  0.5852 -1.7723  1.9132
 5158TIP3    H236890   4.078   6.298   2.774  0.7107 -1.6115 -1.1939
 5159TIP3   OH236891   6.356   4.473  14.583  0.5908  0.1565  0.1038
 5159TIP3    H136892   6.327   4.436  14.667 -0.0491  0.9872  0.2595
 5159TIP3    H236893   6.441   4.432  14.568  0.0604 -1.1078  0.4331
 5160TIP3   OH236894   2.680   4.842   5.129  0.3966  0.1992  0.3408
 5160TIP3    H136895   2.713   4.795   5.205  0.3001  0.8522  0.7934
 5160TIP3    H236896   2.605   4.892   5.162 -0.6291 -0.7257 -0.5175
 5161TIP3   OH236897   4.050   5.719  13.552 -0.1343  0.1947 -0.0555
 5161TIP3    H136898   3.956   5.716  13.567  0.0826  0.1533  1.3803
 5161TIP3    H236899   4.070   5.637  13.507 -0.4070 -1.1164  2.0857
 5162TIP3   OH236900   4.453   0.882  17.260 -0.3051  0.0917  0.4168
 5162TIP3    H136901   4.425   0.793  17.237  1.5602 -0.2269 -0.8460
 5162TIP3    H236902   4.374   0.923  17.296 -1.1011 -2.2178  1.5229
 5163TIP3   OH236903   1.853   5.113   3.246  0.1857  0.0690 -0.0395
 5163TIP3    H136904   1.840   5.090   3.338 -0.6661  0.8622  0.0680
 5163TIP3    H236905   1.940   5.082   3.224  0.5388  0.1864  1.1467
 5164TIP3   OH236906   6.415   6.552   6.212  0.3043  0.0420 -0.2569
 5164TIP3    H136907   6.482   6.492   6.244  0.1617  0.1342  0.2215
 5164TIP3    H236908   6.436   6.564   6.119  2.6983  2.3106  0.4750
 5165TIP3   OH236909   0.569   6.248   0.861 -0.5032 -0.6337  0.2745
 5165TIP3    H136910   0.549   6.301   0.784  0.7506  1.0588  1.0411
 5165TIP3    H236911   0.621   6.175   0.828 -0.8952 -0.5224 -0.6073
 5166TIP3   OH236912   6.056   4.934   5.343  0.4406 -0.0002  0.1607
 5166TIP3    H136913   6.056   4.868   5.413  0.7302  2.1726  2.3256
 5166TIP3    H236914   6.141   4.924   5.301  0.2307 -1.4009  0.0029
 5167TIP3   OH236915   0.248   4.381   3.047 -0.1356  0.1511 -0.4006
 5167TIP3    H136916   0.250   4.414   2.957  1.6769 -1.0842 -0.8651
 5167TIP3    H236917   0.183   4.435   3.091 -0.8155  1.0139 -2.3632
 5168TIP3   OH236918   2.248   1.412  16.058  0.2550 -0.1033 -0.1457
 5168TIP3    H136919   2.163   1.402  16.015  0.0893  0.4452  0.0469
 5168TIP3    H236920   2.228   1.416  16.151  0.6445 -1.6806  0.0378
 5169TIP3   OH236921   3.344   0.770  14.131  0.2710  0.0085 -0.1926
 5169TIP3    H136922   3.297   0.687  14.125  0.1044  0.0188  0.7447
 5169TIP3    H236923   3.425   0.748  14.177  0.1695  0.3821  0.1726
 5170TIP3   OH236924   1.046   5.922  14.336  0.3820 -0.0202  0.4652
 5170TIP3    H136925   0.964   5.895  14.377  1.4629 -0.3169  2.5852
 5170TIP3    H236926   1.050   5.871  14.255 -1.2737 -0.3666  0.5586
 5171TIP3   OH236927   6.057   2.184   0.704 -0.2708 -0.3418  0.8682
 5171TIP3    H136928   6.035   2.162   0.614  0.6398 -0.2589  0.6103
 5171TIP3    H236929   6.021   2.272   0.717 -0.2180 -0.2673  0.5153
 5172TIP3   OH236930   0.887   4.059  12.441  0.4354  0.0313  0.3529
 5172TIP3    H136931   0.798   4.030  12.462 -0.0336  0.6660 -0.6620
 5172TIP3    H236932   0.904   4.021  12.354  1.6133 -1.0405  1.0111
 5173TIP3   OH236933   2.307   2.663   5.460 -0.7041 -0.6686  0.4506
 5173TIP3    H136934   2.386   2.708   5.490 -0.7179 -0.2781 -0.0760
 5173TIP3    H236935   2.243   2.681   5.529 -0.7040  0.1183  0.2601
 5174TIP3   OH236936   1.356   0.778  12.053 -1.0825 -0.0523 -0.1907
 5174TIP3    H136937   1.445   0.741  12.056 -0.7563  0.6945 -0.3844
 5174TIP3    H236938   1.368   0.867  12.019 -1.8316  0.2792  0.3644
 5175TIP3   OH236939   6.141   3.039  16.421 -0.1084 -0.2830  0.3026
 5175TIP3    H136940   6.175   3.060  16.334 -0.3088 -1.0839  0.0217
 5175TIP3    H236941   6.213   3.059  16.480  0.7028 -1.4513 -0.2340
 5176TIP3   OH236942   3.648   4.560   0.667 -0.4676  0.0286 -0.2786
 5176TIP3    H136943   3.640   4.653   0.646 -1.6998 -0.0485 -0.1985
 5176TIP3    H236944   3.558   4.527   0.667  0.0344 -1.5677 -2.0888
 5177TIP3   OH236945   5.468   3.254   3.621 -0.0662 -0.4254 -0.2016
 5177TIP3    H136946   5.468   3.322   3.688 -1.0899 -3.7266  3.4992
 5177TIP3    H236947   5.385   3.268   3.574 -1.2948 -0.2380  1.8670
 5178TIP3   OH236948   4.092   2.622   0.500  0.1934 -0.0740  0.0086
 5178TIP3    H136949   4.147   2.555   0.539 -0.2479  1.0221  2.7615
 5178TIP3    H236950   4.006   2.608   0.540 -0.3909  0.9020 -0.8676
 5179TIP3   OH236951   5.083   3.138  15.316  0.4399  0.2614 -0.2623
 5179TIP3    H136952   5.000   3.179  15.340 -0.2397 -0.1087 -1.8450
 5179TIP3    H236953   5.149   3.181  15.371 -0.5760  1.7076 -0.1455
 5180TIP3   OH236954   3.691   5.577   0.371  0.2536 -0.3698 -0.3982
 5180TIP3    H136955   3.688   5.641   0.441 -0.4552 -0.6260 -0.1861
 5180TIP3    H236956   3.745   5.618   0.303 -0.5668  0.6333 -0.4535
 5181TIP3   OH236957   1.744   4.620  14.590 -0.0047 -0.2379  0.8445
 5181TIP3    H136958   1.671   4.681  14.593  0.7330  0.6252  1.5620
 5181TIP3    H236959   1.791   4.641  14.509 -0.7055 -0.9992  0.2246
 5182TIP3   OH236960   2.485   0.452   5.816 -0.0450 -0.1727  0.3067
 5182TIP3    H136961   2.472   0.507   5.739  0.0754 -0.2349  0.2409
 5182TIP3    H236962   2.563   0.488   5.858  1.5239 -1.7578 -1.0628
 5183TIP3   OH236963   3.675   2.163  12.560  0.1549 -0.0089 -0.0316
 5183TIP3    H136964   3.602   2.223  12.576 -0.4789 -0.5062 -0.9758
 5183TIP3    H236965   3.677   2.152  12.465  1.7070  0.2758 -0.0522
 5184TIP3   OH236966   5.163   3.971   5.688 -0.3803 -0.0010  0.3564
 5184TIP3    H136967   5.209   3.960   5.605  1.3793 -1.4367  1.4381
 5184TIP3    H236968   5.193   4.056   5.721 -2.9489  1.7802 -1.4667
 5185TIP3   OH236969   2.446   6.609   1.513  0.5629 -0.3320  0.3875
 5185TIP3    H136970   2.532   6.576   1.488  0.4145 -0.3314 -0.1376
 5185TIP3    H236971   2.457   6.703   1.520  0.6024 -0.3306  0.3057
 5186TIP3   OH236972   5.700   4.664   1.903 -0.6146  0.3847 -0.3401
 5186TIP3    H136973   5.610   4.637   1.886 -0.3454 -0.0017 -1.2138
 5186TIP3    H236974   5.700   4.690   1.995 -1.0691 -1.9044  0.3902
 5187TIP3   OH236975   3.697   2.183   1.837  0.7176 -0.2651 -0.6202
 5187TIP3    H136976   3.763   2.253   1.837  0.8206 -0.3081 -2.3533
 5187TIP3    H236977   3.716   2.131   1.915  2.3404  0.0881 -0.7496
 5188TIP3   OH236978   3.971   1.924  16.375  0.9353  0.1428  0.6018
 5188TIP3    H136979   4.035   1.856  16.395  2.0870  0.6034 -1.2826
 5188TIP3    H236980   4.022   2.005  16.371 -0.0613  0.7997  0.7007
 5189TIP3   OH236981   4.375   3.102  16.595 -0.1314  0.5925 -0.2605
 5189TIP3    H136982   4.356   3.196  16.596  2.0394  1.0784 -0.2610
 5189TIP3    H236983   4.438   3.091  16.523  2.4963 -0.1785  1.9792
 5190TIP3   OH236984   0.370   1.114  14.284  0.5864 -0.5212  0.2469
 5190TIP3    H136985   0.419   1.140  14.362  0.3604 -0.6269  0.4252
 5190TIP3    H236986   0.434   1.068  14.230  0.8456 -0.0824  0.1797
 5191TIP3   OH236987   0.702   3.987   6.726 -0.3876 -1.0641  0.3106
 5191TIP3    H136988   0.607   3.981   6.717 -0.7428 -0.0500  2.7799
 5191TIP3    H236989   0.727   3.909   6.776 -0.5826  0.7346  3.4349
 5192TIP3   OH236990   2.366   4.303   2.516 -0.0099 -0.3590 -0.1812
 5192TIP3    H136991   2.280   4.266   2.537 -1.2959  1.9483 -0.9908
 5192TIP3    H236992   2.388   4.357   2.592 -0.4684  0.9429 -0.9322
 5193TIP3   OH236993   0.658   4.992  11.533 -0.2613  0.1660  0.4566
 5193TIP3    H136994   0.708   4.911  11.546  0.4592  0.5558  0.2034
 5193TIP3    H236995   0.724   5.061  11.538 -1.1538  0.9205  2.7996
 5194TIP3   OH236996   3.793   4.068  11.982 -0.1763 -0.0266  0.1393
 5194TIP3    H136997   3.836   4.021  11.910  2.1040  1.6122  0.2953
 5194TIP3    H236998   3.735   4.130  11.939  0.0234 -0.0887 -0.2233
 5195TIP3   OH236999   4.622   4.709   0.043  0.4798  0.3301  0.3182
 5195TIP3    H137000   4.553   4.675   0.100 -1.6285  1.6264 -1.2756
 5195TIP3    H237001   4.608   4.663  -0.040  2.0427  0.1070  0.1544
 5196TIP3   OH237002   2.305   5.003  12.400 -0.3540  0.5510  0.2549
 5196TIP3    H137003   2.331   4.970  12.486  0.8402  2.3591  0.6403
 5196TIP3    H237004   2.210   5.012  12.406 -0.6586 -2.0430  0.3447
 5197TIP3   OH237005   3.616   0.356   3.347  0.4592  0.5515  0.2032
 5197TIP3    H137006   3.705   0.391   3.356  0.8517 -0.7651  2.2675
 5197TIP3    H237007   3.620   0.299   3.270  1.7004 -0.2112  0.7902
 5198TIP3   OH237008   5.603   1.914  11.336 -0.3741  0.3520  0.8820
 5198TIP3    H137009   5.609   2.003  11.300 -0.0196  0.5897  1.5211
 5198TIP3    H237010   5.530   1.919  11.398 -0.8948 -0.0244  0.3144
 5199TIP3   OH237011   0.506   6.514  11.634  0.1969 -0.1544 -0.1750
 5199TIP3    H137012   0.595   6.487  11.658  0.7521  2.5398  1.1612
 5199TIP3    H237013   0.518   6.591  11.580 -1.3137  1.0647  1.1241
 5200TIP3   OH237014   4.636   3.607   2.704  0.3783  0.0907 -0.2395
 5200TIP3    H137015   4.541   3.597   2.694  0.4683 -1.6390  0.2581
 5200TIP3    H237016   4.649   3.622   2.798  0.6471 -0.8125 -0.1201
 5201TIP3   OH237017   4.698   0.470   5.432  0.1477  0.5077 -0.1804
 5201TIP3    H137018   4.616   0.508   5.401 -0.4328 -0.2379  0.4198
 5201TIP3    H237019   4.718   0.400   5.370 -0.3982 -0.2105  0.4385
 5202TIP3   OH237020   1.136   5.488   2.145 -0.6810  0.8162  0.2863
 5202TIP3    H137021   1.115   5.563   2.090 -0.8942  2.5656  2.5937
 5202TIP3    H237022   1.181   5.526   2.221  0.1684 -1.5289  1.0581
 5203TIP3   OH237023   3.433   2.394   0.013  0.3858 -0.0501  0.0968
 5203TIP3    H137024   3.503   2.336   0.042 -2.5620 -2.8741  2.2807
 5203TIP3    H237025   3.437   2.468   0.073  2.6316  0.9018 -1.1074
 5204TIP3   OH237026   0.753   0.124  16.292  0.1426 -0.4678  0.3228
 5204TIP3    H137027   0.675   0.071  16.276 -0.0929 -0.0910  0.2110
 5204TIP3    H237028   0.804   0.116  16.211 -0.2271  0.0413  0.0379
 5205TIP3   OH237029   4.369   1.024  14.888  0.3579 -0.0058  0.0019
 5205TIP3    H137030   4.450   1.014  14.839 -0.0211 -0.1029 -0.6109
 5205TIP3    H237031   4.300   1.023  14.822 -0.2077 -0.8143  0.5913
 5206TIP3   OH237032   5.879   4.478  15.198  0.3386  0.4336  0.6765
 5206TIP3    H137033   5.940   4.407  15.216 -1.4608 -1.8828 -1.5692
 5206TIP3    H237034   5.798   4.452  15.240 -0.6174  0.6298 -0.9427
 5207TIP3   OH237035   3.344   4.950  11.378 -0.7725 -0.1559 -0.0122
 5207TIP3    H137036   3.342   4.921  11.469 -0.2892  1.4786  0.5628
 5207TIP3    H237037   3.425   5.000  11.370 -0.8211 -0.2362 -1.3369
 5208TIP3   OH237038   5.642   5.713  14.235  0.2055  0.0549  0.1044
 5208TIP3    H137039   5.622   5.630  14.191 -1.6732  0.3037  0.4385
 5208TIP3    H237040   5.720   5.693  14.288  1.7341 -0.6089 -2.2188
 5209TIP3   OH237041   0.569   2.573  16.159  0.0695  0.2485  0.1300
 5209TIP3    H137042   0.633   2.644  16.165  1.1893 -0.8376  1.8313
 5209TIP3    H237043   0.485   2.618  16.157  0.7876  1.6678 -0.0317
 5210TIP3   OH237044   6.173   0.737   1.048  0.2199  0.7614 -0.3396
 5210TIP3    H137045   6.192   0.822   1.087  0.5848  0.7790 -0.5554
 5210TIP3    H237046   6.249   0.717   0.994  0.4217  0.0118  0.1984
 5211TIP3   OH237047   0.895   2.171  16.097  0.2829  0.6052 -0.2348
 5211TIP3    H137048   0.815   2.179  16.045  0.0405  0.2734  0.0841
 5211TIP3    H237049   0.946   2.249  16.076  0.3764  0.2746 -1.3009
 5212TIP3   OH237050   5.747   1.359  16.552 -1.2813 -0.1011  0.0807
 5212TIP3    H137051   5.658   1.324  16.549 -1.4119  0.2648 -0.5831
 5212TIP3    H237052   5.766   1.384  16.461 -0.1166 -1.1327  0.0140
 5213TIP3   OH237053   0.744   2.924  17.351 -0.5070  0.1662 -0.1368
 5213TIP3    H137054   0.658   2.884  17.334 -0.2685 -1.0764  1.3075
 5213TIP3    H237055   0.763   2.901  17.442  0.1358  2.7871  0.4727
 5214TIP3   OH237056   5.083   4.920   3.413  0.1479  0.0935 -0.1994
 5214TIP3    H137057   5.169   4.962   3.410 -0.3842  1.2118 -0.3957
 5214TIP3    H237058   5.082   4.861   3.338  0.5586  0.4651 -0.5033
 5215TIP3   OH237059   5.934   2.626  15.787  0.4974  0.3555 -0.3179
 5215TIP3    H137060   5.965   2.694  15.847  2.3864 -0.4046 -0.3565
 5215TIP3    H237061   5.839   2.630  15.793  0.6081  0.3082  2.7294
 5216TIP3   OH237062   6.702   1.434   1.763  0.2089 -0.0297  0.6938
 5216TIP3    H137063   6.748   1.404   1.842  0.6348  0.6577  0.7141
 5216TIP3    H237064   6.684   1.354   1.714 -0.2089 -0.4880  1.5599
 5217TIP3   OH237065   2.455   1.780   4.047 -0.2885  0.0410  0.0587
 5217TIP3    H137066   2.365   1.785   4.077 -0.2076 -2.2867  0.8853
 5217TIP3    H237067   2.452   1.813   3.957 -2.2483 -1.2598 -0.4089
 5218TIP3   OH237068   1.004   0.213   1.504 -0.1835 -0.3417 -0.4274
 5218TIP3    H137069   0.997   0.280   1.435  1.9983 -0.6631 -1.0640
 5218TIP3    H237070   0.967   0.255   1.582  1.1457  1.6772 -0.7930
 5219TIP3   OH237071   3.983   4.351   4.454 -0.2141  0.4901  0.1345
 5219TIP3    H137072   3.975   4.283   4.521 -1.5832 -1.0676 -1.5031
 5219TIP3    H237073   3.981   4.433   4.503 -2.2970 -0.5391  1.9593
 5220TIP3   OH237074   5.840   4.218  11.537 -0.0337 -0.1702 -0.2582
 5220TIP3    H137075   5.906   4.280  11.507 -1.5531  0.0450 -3.6632
 5220TIP3    H237076   5.869   4.133  11.504 -0.6519 -0.3211 -0.4406
 5221TIP3   OH237077   5.763   2.162   0.347  0.4618  0.2301 -0.3466
 5221TIP3    H137078   5.743   2.217   0.422 -0.2774  0.3342 -0.6160
 5221TIP3    H237079   5.764   2.222   0.272  3.3325  0.5334 -0.1830
 5222TIP3   OH237080   1.561   3.958   5.537 -0.0215 -0.2623  0.1740
 5222TIP3    H137081   1.626   4.027   5.524 -1.3235  0.6271 -2.4259
 5222TIP3    H237082   1.495   3.997   5.594 -0.2193  0.3053 -0.4249
 5223TIP3   OH237083   6.612   6.279  11.670 -0.0149 -0.0022  0.0928
 5223TIP3    H137084   6.570   6.364  11.656 -0.4451  0.2009  2.3849
 5223TIP3    H237085   6.696   6.300  11.711  0.3679 -0.6489 -0.3392
 5224TIP3   OH237086   1.042   2.686  13.615  0.1724  0.3141 -0.0424
 5224TIP3    H137087   0.967   2.727  13.659 -0.1765  0.2373 -0.5523
 5224TIP3    H237088   1.116   2.743  13.635 -0.1382  0.7167 -0.0241
 5225TIP3   OH237089   4.002   1.446   3.046 -0.5329 -0.6225  0.3711
 5225TIP3    H137090   4.049   1.520   3.010  1.2186 -1.2660  1.1797
 5225TIP3    H237091   4.011   1.377   2.980 -1.5689 -0.3465 -0.0783
 5226TIP3   OH237092   3.643   6.706   0.327 -0.0587  0.0102  0.7675
 5226TIP3    H137093   3.696   6.746   0.259 -1.5368  0.5349 -0.1142
 5226TIP3    H237094   3.572   6.768   0.342 -2.6569 -2.3066 -0.8883
 5227TIP3   OH237095   5.787   2.432   4.428 -0.2462  0.1071  0.2852
 5227TIP3    H137096   5.833   2.468   4.503 -1.9486  0.2479  1.3163
 5227TIP3    H237097   5.826   2.346   4.414  1.4008  0.8597  0.0721
 5228TIP3   OH237098   0.227   2.885  13.277  0.4616  0.6884 -0.3259
 5228TIP3    H137099   0.319   2.874  13.253  0.5062 -1.1786  0.4902
 5228TIP3    H237100   0.218   2.978  13.295  2.7847  0.6254  1.7747
 5229TIP3   OH237101   1.850   5.852   0.048 -0.2155 -0.2245  0.3967
 5229TIP3    H137102   1.895   5.768   0.052 -1.9799 -1.3649 -1.3942
 5229TIP3    H237103   1.757   5.829   0.045 -0.8281  1.8767  1.3512
 5230TIP3   OH237104   1.466   0.014  12.798 -0.2090 -0.6884  0.0865
 5230TIP3    H137105   1.384   0.061  12.816 -0.3406 -0.4888 -0.9546
 5230TIP3    H237106   1.442  -0.050  12.730  0.5064 -0.5846 -0.2735
 5231TIP3   OH237107   6.205   2.036   3.376  0.3272 -0.3081  0.5380
 5231TIP3    H137108   6.195   1.969   3.444 -2.0545 -1.7443 -1.0854
 5231TIP3    H237109   6.232   1.988   3.298 -0.3677  0.7809 -0.4061
 5232TIP3   OH237110   1.413   0.650  12.558  0.0040 -0.1723 -0.2071
 5232TIP3    H137111   1.371   0.695  12.631  0.0032 -1.0369  0.3321
 5232TIP3    H237112   1.393   0.558  12.571  0.5511 -0.4055 -0.9408
 5233TIP3   OH237113   2.602   5.632  16.419  0.2315  0.1176  0.0027
 5233TIP3    H137114   2.662   5.680  16.476  1.4295 -1.5437  0.2059
 5233TIP3    H237115   2.655   5.609  16.343 -0.4603 -0.4334 -0.3271
 5234TIP3   OH237116   4.267   5.453  12.930 -0.2184  0.4675 -0.4206
 5234TIP3    H137117   4.290   5.479  13.019 -0.3937  0.1943 -0.2958
 5234TIP3    H237118   4.224   5.530  12.893  2.0650  1.5051 -1.1269
 5235TIP3   OH237119   4.766   2.479  15.454  0.3604  0.5129  0.6224
 5235TIP3    H137120   4.843   2.509  15.406 -0.0673 -0.3415 -0.6646
 5235TIP3    H237121   4.693   2.497  15.396 -0.0268 -1.8724  0.2858
 5236TIP3   OH237122   2.859   3.851   2.852  0.3513 -0.5074  0.3736
 5236TIP3    H137123   2.918   3.875   2.923  0.4155  0.7826 -0.1015
 5236TIP3    H237124   2.796   3.791   2.892 -2.3194  3.4303  2.7085
 5237TIP3   OH237125   0.671   1.205  16.517 -0.9185  0.1749  0.3270
 5237TIP3    H137126   0.633   1.120  16.492  0.1971  0.4091 -2.5634
 5237TIP3    H237127   0.601   1.248  16.567 -1.6012 -2.2990  1.6661
 5238TIP3   OH237128   1.476   5.071   2.841  1.1809 -0.7052 -0.4591
 5238TIP3    H137129   1.511   5.029   2.763  3.2221 -1.4618  0.8053
 5238TIP3    H237130   1.550   5.077   2.902  0.3033  2.1799  0.5035
 5239TIP3   OH237131   6.540   2.757   6.177 -0.2463  1.0011  0.1427
 5239TIP3    H137132   6.497   2.681   6.138 -2.7913  0.4120  3.6364
 5239TIP3    H237133   6.489   2.832   6.146 -0.0032  0.9183 -0.4599
 5240TIP3   OH237134   4.869   5.168   3.894  0.0842  0.1154  0.3641
 5240TIP3    H137135   4.893   5.075   3.889  0.2286  0.1099  1.1031
 5240TIP3    H237136   4.845   5.181   3.986 -0.0111  0.7925  0.2420
 5241TIP3   OH237137   4.677   0.232   5.174 -0.5571  0.2035  0.2925
 5241TIP3    H137138   4.614   0.231   5.246 -2.1214  1.4817 -0.9876
 5241TIP3    H237139   4.626   0.260   5.098  1.2674 -0.1072 -1.1077
 5242TIP3   OH237140   6.207   1.485   3.722  0.3374 -0.1871  0.6062
 5242TIP3    H137141   6.131   1.459   3.775  0.4109 -0.1340  0.7387
 5242TIP3    H237142   6.221   1.413   3.662 -0.2413  0.0956  0.1229
 5243TIP3   OH237143   4.364   5.117  14.862  0.2026 -0.0650  0.9053
 5243TIP3    H137144   4.363   5.087  14.771  1.0197 -0.4735  1.0229
 5243TIP3    H237145   4.339   5.209  14.857 -2.2529 -0.6825  0.5201
 5244TIP3   OH237146   4.189   4.489   4.767 -0.3976  0.2083 -0.2371
 5244TIP3    H137147   4.120   4.535   4.816  0.9324  0.5599  1.3830
 5244TIP3    H237148   4.171   4.509   4.676 -1.1533  2.1264  0.2975
 5245TIP3   OH237149   0.627   1.099   1.338  0.5250 -0.6406  0.3871
 5245TIP3    H137150   0.723   1.101   1.347  0.5466  1.4267  0.2155
 5245TIP3    H237151   0.595   1.148   1.414 -0.3423 -0.4226 -0.1084
 5246TIP3   OH237152   1.725   0.172  12.282 -0.0517  0.1121 -0.3394
 5246TIP3    H137153   1.707   0.266  12.275  2.8782  0.8817  0.9185
 5246TIP3    H237154   1.690   0.148  12.368  0.7285  0.4856  0.0897
 5247TIP3   OH237155   2.106   5.755  12.189  0.4297 -0.6401  0.1131
 5247TIP3    H137156   2.027   5.720  12.148 -0.5382  0.1675  1.2156
 5247TIP3    H237157   2.092   5.740  12.283  1.2220  0.2128  0.3783
 5248TIP3   OH237158   4.817   6.506   4.622 -0.0917 -0.0665  0.3976
 5248TIP3    H137159   4.904   6.467   4.621  0.8045  1.8150 -0.2545
 5248TIP3    H237160   4.817   6.565   4.546 -1.5398  0.7656  1.0093
 5249TIP3   OH237161   4.525   3.614  13.172 -0.5205  0.0839  0.3106
 5249TIP3    H137162   4.473   3.684  13.211 -1.4442 -1.1362  1.3500
 5249TIP3    H237163   4.460   3.551  13.140  0.2381  0.3934 -2.0598
 5250TIP3   OH237164   4.364   0.615  17.183  0.2670  0.0428 -0.5892
 5250TIP3    H137165   4.307   0.630  17.108  0.9060 -0.8149 -1.2538
 5250TIP3    H237166   4.364   0.520  17.196  0.2316  0.1673  0.4500
 5251TIP3   OH237167   0.432   3.990  15.824 -0.4213  0.0655 -0.0579
 5251TIP3    H137168   0.474   4.072  15.797 -1.0240  0.4094  0.0365
 5251TIP3    H237169   0.406   3.948  15.742  0.9062 -0.5935 -0.1702
 5252TIP3   OH237170   6.558   5.006   2.317  0.4686  0.3517 -0.6083
 5252TIP3    H137171   6.540   4.997   2.411  0.1086 -0.1774 -0.7258
 5252TIP3    H237172   6.581   4.918   2.289  2.1678  0.7885 -0.7005
 5253TIP3   OH237173   3.789   3.325  14.257  0.1260  0.3778 -0.0010
 5253TIP3    H137174   3.738   3.361  14.185  1.1674  1.3831 -0.2694
 5253TIP3    H237175   3.855   3.392  14.275  0.6887 -0.4274  1.0240
 5254TIP3   OH237176   5.053   2.695   3.837  0.1362  0.6286 -0.1146
 5254TIP3    H137177   5.025   2.646   3.760 -0.8214  2.0713 -0.7357
 5254TIP3    H237178   4.983   2.683   3.901  0.9688 -0.6397  0.6223
 5255TIP3   OH237179   1.418   5.081   5.188  0.2290 -0.6480  0.1139
 5255TIP3    H137180   1.487   5.127   5.235 -2.2758  1.6643  1.8117
 5255TIP3    H237181   1.390   5.142   5.120  0.1445 -1.7488 -0.8684
 5256TIP3   OH237182   3.439   0.134  15.637  0.3262  1.1343 -0.3059
 5256TIP3    H137183   3.359   0.096  15.601  1.2171  0.4000 -1.6092
 5256TIP3    H237184   3.504   0.122  15.567  1.6489  1.4230  0.8418
 5257TIP3   OH237185   6.498   4.637  12.914 -1.0239  0.0236  0.5305
 5257TIP3    H137186   6.590   4.651  12.936 -0.7959  0.2457 -0.5560
 5257TIP3    H237187   6.464   4.724  12.894 -0.3276 -0.4350 -3.3612
 5258TIP3   OH237188   0.443   4.997   2.269  0.2074  0.4879 -0.3164
 5258TIP3    H137189   0.403   5.083   2.285 -2.5861 -0.5582 -1.1565
 5258TIP3    H237190   0.501   5.011   2.194 -1.0673  1.4439 -1.1602
 5259TIP3   OH237191   6.740   1.154   5.577 -0.1714  0.0980 -0.0001
 5259TIP3    H137192   6.657   1.170   5.533 -0.8591 -0.3779  1.0885
 5259TIP3    H237193   6.743   1.060   5.591  0.7645  0.0535 -0.4099
 5260TIP3   OH237194   1.642   2.772  16.379 -0.1199  0.7764 -0.2084
 5260TIP3    H137195   1.556   2.730  16.389 -0.1283  0.7024 -0.5788
 5260TIP3    H237196   1.693   2.709  16.328 -1.1483  2.5844 -3.7582
 5261TIP3   OH237197   5.023   1.462   6.682  0.3836 -0.9578 -0.4689
 5261TIP3    H137198   4.989   1.372   6.672  2.4073 -1.6167 -2.0530
 5261TIP3    H237199   4.944   1.516   6.691 -0.8930 -2.8701  0.6988
 5262TIP3   OH237200   6.427   3.407   3.909  0.2616 -0.3293  0.8149
 5262TIP3    H137201   6.499   3.412   3.972  0.6882  2.9363  0.2118
 5262TIP3    H237202   6.445   3.477   3.846 -2.3759 -0.7521 -0.5327
 5263TIP3   OH237203   1.880   4.711  17.379 -0.3759 -0.0219 -0.1669
 5263TIP3    H137204   1.939   4.674  17.444  1.3907 -0.3521 -1.8633
 5263TIP3    H237205   1.852   4.795  17.416 -0.8907 -0.9952  1.7759
 5264TIP3   OH237206   2.283   5.435   3.802 -0.6720  0.1576 -0.7665
 5264TIP3    H137207   2.320   5.347   3.809 -2.5306 -0.7669 -1.8685
 5264TIP3    H237208   2.356   5.493   3.825  0.1492 -1.6822  1.6510
 5265TIP3   OH237209   2.712   2.883   3.981 -0.0496 -0.1178 -0.2386
 5265TIP3    H137210   2.668   2.842   4.056 -0.3425  0.9751  0.2096
 5265TIP3    H237211   2.733   2.810   3.923 -1.5086 -0.7838  0.0247
 5266TIP3   OH237212   1.936   2.476   3.537  0.1695  0.4916 -0.0435
 5266TIP3    H137213   1.875   2.532   3.585  1.0068  0.5493  0.9832
 5266TIP3    H237214   1.976   2.420   3.604  1.9062  1.0871 -0.5323
 5267TIP3   OH237215   5.915   3.125   0.920  0.0523  0.6043 -0.0126
 5267TIP3    H137216   5.950   3.050   0.871 -1.9695 -0.1035 -0.5120
 5267TIP3    H237217   5.967   3.128   1.000 -0.0749 -1.6564  0.2365
 5268TIP3   OH237218   4.356   0.530   2.597  0.3979 -0.0110 -0.0753
 5268TIP3    H137219   4.328   0.587   2.525 -2.8572  3.5617  3.4927
 5268TIP3    H237220   4.288   0.464   2.603  0.5471 -0.1720 -0.1547
 5269TIP3   OH237221   3.106   3.036  15.005  0.0617  0.0780 -0.5993
 5269TIP3    H137222   3.014   3.026  15.032  0.0343  0.0328 -0.7103
 5269TIP3    H237223   3.105   3.019  14.911  0.0920  0.6419 -0.7059
 5270TIP3   OH237224   2.956   4.222   2.168 -0.3719 -0.0234 -0.0243
 5270TIP3    H137225   2.898   4.287   2.128  1.3156  1.6608  0.1408
 5270TIP3    H237226   3.042   4.238   2.129 -0.1695 -3.3130 -1.2595
 5271TIP3   OH237227   0.432   5.593  10.930 -0.2957  0.5152  0.3896
 5271TIP3    H137228   0.455   5.633  10.846  3.6819 -2.2619 -0.1468
 5271TIP3    H237229   0.363   5.649  10.965 -0.2861  3.3733 -3.4559
 5272TIP3   OH237230   0.182   5.323  12.986  0.7706 -0.3111  0.3742
 5272TIP3    H137231   0.199   5.409  12.948 -2.7071 -0.3961 -1.8406
 5272TIP3    H237232   0.256   5.269  12.958  2.2995  1.5795  0.6088
 5273TIP3   OH237233   4.927   4.205  14.307 -0.3103 -1.2776 -1.1481
 5273TIP3    H137234   4.928   4.272  14.238  1.0427  0.5669  0.5474
 5273TIP3    H237235   5.006   4.154  14.291  1.0384  0.3391  0.0555
 5274TIP3   OH237236   0.471   6.443   2.363 -0.1579 -0.1499 -0.3556
 5274TIP3    H137237   0.545   6.396   2.402  0.1929 -0.6294 -1.5780
 5274TIP3    H237238   0.412   6.375   2.334 -1.9254  0.2063  2.0428
 5275TIP3   OH237239   3.259   1.820  15.122  0.3261 -0.9170 -0.4871
 5275TIP3    H137240   3.228   1.729  15.127  1.6535 -1.4898 -1.9006
 5275TIP3    H237241   3.341   1.815  15.073  0.8958  0.9543  0.1988
 5276TIP3   OH237242   5.561   4.845  12.805 -0.4110 -0.4944 -0.5180
 5276TIP3    H137243   5.586   4.893  12.726  1.3804 -0.8929 -0.2431
 5276TIP3    H237244   5.542   4.913  12.870 -0.7076 -0.1712 -0.9333
 5277TIP3   OH237245   2.192   3.413  14.107 -0.0007  0.0122 -0.0011
 5277TIP3    H137246   2.099   3.399  14.122 -0.3842  1.2126 -1.0667
 5277TIP3    H237247   2.196   3.488  14.047  1.6692  0.3404  0.4593
 5278TIP3   OH237248   5.645   1.472  11.870  0.5757  0.4450  0.2385
 5278TIP3    H137249   5.679   1.386  11.843  0.4241  0.6423 -0.6030
 5278TIP3    H237250   5.723   1.526  11.878  0.5014  0.9784 -1.9834
 5279TIP3   OH237251   0.882   4.144  15.308  0.3073  0.3732 -0.2083
 5279TIP3    H137252   0.962   4.092  15.315  0.5783  0.5099 -1.8456
 5279TIP3    H237253   0.914   4.234  15.298  0.0098  0.3408 -1.6575
 5280TIP3   OH237254   6.176   5.064   0.683  0.3399 -0.0929  0.7197
 5280TIP3    H137255   6.259   5.024   0.708 -0.1079 -0.1884  2.1543
 5280TIP3    H237256   6.154   5.122   0.756 -0.3151  0.7820 -0.1433
 5281TIP3   OH237257   0.041   3.409  13.259  0.0896 -0.3199  0.5267
 5281TIP3    H137258   0.082   3.400  13.173 -0.1682 -0.3012  0.4005
 5281TIP3    H237259   0.070   3.494  13.291 -1.7469  0.7842 -0.5890
 5282TIP3   OH237260   2.990   4.454   0.479  0.1105  0.0116  0.2127
 5282TIP3    H137261   3.056   4.387   0.462  1.5440  0.5614  2.9353
 5282TIP3    H237262   3.008   4.522   0.415  0.3589 -1.0547 -0.8783
 5283TIP3   OH237263   6.692   6.487   0.686  0.2030  0.3008 -0.6437
 5283TIP3    H137264   6.657   6.398   0.681 -0.0407  0.4101 -0.9142
 5283TIP3    H237265   6.787   6.474   0.688  0.1636  0.0251 -0.4320
 5284TIP3   OH237266   0.200   0.554   3.992 -0.2310  0.0771  0.6672
 5284TIP3    H137267   0.215   0.531   4.083  0.3548  0.4809  0.6734
 5284TIP3    H237268   0.261   0.625   3.974  0.3566 -0.6547 -0.3232
 5285TIP3   OH237269   6.652   2.850   4.723  0.3377 -0.5061 -0.0089
 5285TIP3    H137270   6.625   2.758   4.727 -0.8205 -0.2406 -1.1510
 5285TIP3    H237271   6.674   2.872   4.814 -3.1488 -0.8364  1.0561
 5286TIP3   OH237272   2.512   0.469   0.332 -0.0048 -0.2702 -0.6763
 5286TIP3    H137273   2.492   0.513   0.249  1.3826  0.1085 -0.8454
 5286TIP3    H237274   2.599   0.502   0.355 -0.3050 -0.4998  0.8536
 5287TIP3   OH237275   5.133   0.741  13.908  0.1757 -0.5203 -0.0008
 5287TIP3    H137276   5.162   0.656  13.941 -0.3277 -0.3710  0.8547
 5287TIP3    H237277   5.142   0.800  13.982  0.8815  0.2674 -0.6948
 5288TIP3   OH237278   4.041   4.673  11.931 -0.3316 -0.1282 -0.2632
 5288TIP3    H137279   4.119   4.618  11.921 -0.5932 -0.4985 -0.2755
 5288TIP3    H237280   4.054   4.744  11.867  0.4724  0.3783  0.4452
 5289TIP3   OH237281   1.785   1.533  13.396 -0.0527  0.4622 -0.3213
 5289TIP3    H137282   1.749   1.444  13.402 -0.3157  0.6075  0.2916
 5289TIP3    H237283   1.709   1.590  13.394  0.1169  0.6764 -0.7541
 5290TIP3   OH237284   3.941   6.618  12.228 -0.1192  0.6321 -0.0252
 5290TIP3    H137285   3.960   6.694  12.173  1.1250 -0.2624 -0.9039
 5290TIP3    H237286   3.851   6.594  12.205 -0.2148  1.3038 -0.3959
 5291TIP3   OH237287   1.597   1.162  13.209  0.3170 -0.1362  0.3453
 5291TIP3    H137288   1.580   1.155  13.303 -0.6206  0.3816  0.2251
 5291TIP3    H237289   1.599   1.256  13.192 -2.1380 -0.1764 -0.5781
 5292TIP3   OH237290   0.355   2.622   5.094  0.0742 -0.0440  0.2289
 5292TIP3    H137291   0.388   2.541   5.134 -0.3704  1.0966  3.1728
 5292TIP3    H237292   0.281   2.594   5.041  1.8351 -1.8887 -1.4246
 5293TIP3   OH237293   3.362   5.895  16.813  0.3547  0.2717  0.8794
 5293TIP3    H137294   3.413   5.942  16.879  0.9586 -0.1891  0.7538
 5293TIP3    H237295   3.292   5.955  16.788 -0.1230  0.3127  2.2263
 5294TIP3   OH237296   4.142   5.943  14.981  0.0941  0.7653 -0.5760
 5294TIP3    H137297   4.131   5.889  15.059  2.0479  0.6573 -0.3121
 5294TIP3    H237298   4.056   5.982  14.966 -2.5462 -4.9392 -2.8426
 5295TIP3   OH237299   3.789   0.121   0.713 -0.1386 -0.1027 -0.3680
 5295TIP3    H137300   3.761   0.153   0.627 -0.4319  1.7984  0.3801
 5295TIP3    H237301   3.882   0.101   0.701 -0.3462 -0.5981 -1.3088
 5296TIP3   OH237302   3.735   2.044   2.408  0.2534 -0.4316  0.5697
 5296TIP3    H137303   3.712   2.060   2.499  2.1137 -0.3816  1.0617
 5296TIP3    H237304   3.716   1.951   2.394 -1.2392 -0.1608  0.5986
 5297TIP3   OH237305   1.771   5.392   5.463 -0.7014 -0.5916  0.5908
 5297TIP3    H137306   1.752   5.377   5.555 -0.6910  1.5350  0.9793
 5297TIP3    H237307   1.849   5.446   5.463 -0.2758 -1.1640 -0.7112
 5298TIP3   OH237308   5.917   1.454   6.436  0.1627 -0.3465  0.7409
 5298TIP3    H137309   5.822   1.452   6.450  0.3432 -3.0163  2.2376
 5298TIP3    H237310   5.929   1.411   6.351  0.0959 -2.3929  1.7049
 5299TIP3   OH237311   4.918   3.291   3.315  0.5107 -0.0902 -0.3005
 5299TIP3    H137312   4.887   3.244   3.393  1.5122 -0.1238  0.0809
 5299TIP3    H237313   4.891   3.235   3.242 -0.0500 -0.2742  0.0384
 5300TIP3   OH237314   3.735   3.026   5.305 -0.0289  0.5404 -0.4242
 5300TIP3    H137315   3.705   2.963   5.370  0.0954 -1.6980 -2.4208
 5300TIP3    H237316   3.826   3.042   5.327 -0.2798  0.6948  0.5761
 5301TIP3   OH237317   6.605   3.740   0.921 -0.0914 -0.4515  0.2147
 5301TIP3    H137318   6.638   3.739   1.011  0.3196 -1.5435  0.0674
 5301TIP3    H237319   6.521   3.694   0.926 -0.5465  0.3664  0.2050
 5302TIP3   OH237320   5.597   0.752  14.084  0.0538  0.2403 -0.1912
 5302TIP3    H137321   5.551   0.722  14.006  0.7431 -0.3850 -0.3604
 5302TIP3    H237322   5.674   0.696  14.091  0.5852  1.0020  0.3219
 5303TIP3   OH237323   0.413   4.183   5.866 -0.1076 -0.4483 -0.1819
 5303TIP3    H137324   0.341   4.153   5.811  0.8667 -1.1464 -1.1448
 5303TIP3    H237325   0.410   4.128   5.944 -0.3725 -0.7441 -0.4015
 5304TIP3   OH237326   5.370   3.973   6.232  1.1478  0.1594 -0.6461
 5304TIP3    H137327   5.383   4.053   6.283 -1.5947  1.1369 -1.3115
 5304TIP3    H237328   5.349   3.906   6.298 -3.7139  1.6934 -0.2322
 5305TIP3   OH237329   1.308   6.203  17.110 -0.4129 -0.7238  0.0750
 5305TIP3    H137330   1.342   6.287  17.079 -1.6135 -0.0042  0.6265
 5305TIP3    H237331   1.219   6.198  17.075 -0.0160 -2.2670 -0.8198
 5306TIP3   OH237332   4.568   0.630  15.812  0.1950  0.2770  0.2180
 5306TIP3    H137333   4.481   0.639  15.772 -0.0648 -1.1419  0.4192
 5306TIP3    H237334   4.554   0.570  15.885  1.1042  1.0809  1.0593
 5307TIP3   OH237335   4.792   4.377   3.690 -0.3483 -0.1999  0.3382
 5307TIP3    H137336   4.786   4.394   3.784  0.7720 -1.5412  0.6951
 5307TIP3    H237337   4.752   4.453   3.649 -2.6284 -0.4240  1.9200
 5308TIP3   OH237338   3.992   0.017  14.219 -0.1906  0.6980  0.0267
 5308TIP3    H137339   4.076  -0.017  14.189 -0.8380  0.5176 -1.6820
 5308TIP3    H237340   3.927  -0.037  14.175 -1.2356  0.7379  1.4329
 5309TIP3   OH237341   0.255   3.127   3.193  0.4151  0.0253  0.3404
 5309TIP3    H137342   0.263   3.096   3.103  1.5811  1.7092 -0.1929
 5309TIP3    H237343   0.243   3.221   3.185  1.8109  0.3989  1.9414
 5310TIP3   OH237344   4.539   1.010   5.340  0.0620 -0.3719  0.4754
 5310TIP3    H137345   4.482   0.984   5.268  0.7212  1.3239 -0.7106
 5310TIP3    H237346   4.499   1.089   5.375  1.5764  0.7626 -0.2779
 5311TIP3   OH237347   5.087   4.127   3.958  0.1797 -0.4862 -0.0586
 5311TIP3    H137348   5.018   4.087   3.905 -2.0406  1.3451  1.2405
 5311TIP3    H237349   5.118   4.057   4.015 -2.4086 -0.8537  1.0298
 5312TIP3   OH237350   0.790   2.976   0.614  0.0446  0.1928  0.0991
 5312TIP3    H137351   0.767   2.933   0.697  0.1307  0.2395  0.1479
 5312TIP3    H237352   0.775   2.909   0.547  0.5349 -0.0376  0.2150
 5313TIP3   OH237353   0.015   6.482  16.793  0.3163  0.3742 -0.5323
 5313TIP3    H137354   0.067   6.522  16.862 -1.4930  1.4365  0.2806
 5313TIP3    H237355  -0.046   6.425  16.839 -1.5835  1.8469 -1.0805
 5314TIP3   OH237356   0.828   1.927   0.962  0.2831 -0.2589 -0.2801
 5314TIP3    H137357   0.829   1.851   1.020  0.6299 -0.2586 -0.2833
 5314TIP3    H237358   0.818   1.890   0.874 -0.3993 -0.2498 -0.2076
 5315TIP3   OH237359   4.929   6.390  14.283  0.4584 -0.0376 -0.2903
 5315TIP3    H137360   4.904   6.298  14.283 -1.0726  0.3381  0.4426
 5315TIP3    H237361   4.944   6.410  14.375  1.4527  0.2923 -0.5148
 5316TIP3   OH237362   3.150   4.667   2.709 -0.2295  0.3906 -0.7829
 5316TIP3    H137363   3.187   4.749   2.675  0.0098  1.5403  2.0354
 5316TIP3    H237364   3.059   4.668   2.679 -0.2270  1.6812 -0.8093
 5317TIP3   OH237365   0.417   1.921  13.244  0.4300  0.0444  0.4369
 5317TIP3    H137366   0.439   1.899  13.334  0.5478 -0.7305  0.2270
 5317TIP3    H237367   0.430   1.840  13.195  2.1341  0.8831 -0.6118
 5318TIP3   OH237368   6.677   5.291  13.592 -0.2802 -0.3739  0.3167
 5318TIP3    H137369   6.769   5.305  13.617 -0.1105  0.0156 -0.5150
 5318TIP3    H237370   6.629   5.307  13.673  0.3264  0.1287  0.5926
 5319TIP3   OH237371   0.322   3.101  16.931 -0.0737  0.0328 -0.4210
 5319TIP3    H137372   0.255   3.070  16.869 -2.2551 -1.4639  2.4436
 5319TIP3    H237373   0.357   3.021  16.970  2.0596  0.8950 -0.4256
 5320TIP3   OH237374   5.141   3.422   3.897  1.0017 -0.0682 -0.4703
 5320TIP3    H137375   5.088   3.441   3.975  0.3109 -0.6209 -0.7942
 5320TIP3    H237376   5.148   3.327   3.896  1.9403 -0.0126 -0.4921
 5321TIP3   OH237377   1.621   4.437   2.124 -0.1762  0.0482 -0.3199
 5321TIP3    H137378   1.579   4.351   2.121  0.0424 -0.1024  0.5581
 5321TIP3    H237379   1.553   4.495   2.159  0.1383 -0.0801  0.5394
 5322TIP3   OH237380   1.164   1.028   2.052  0.5688 -0.0123 -0.6865
 5322TIP3    H137381   1.254   1.047   2.024  0.1302  0.6348 -1.6942
 5322TIP3    H237382   1.153   1.081   2.131  1.1577 -0.2999 -0.4029
 5323TIP3   OH237383   0.102   4.412  17.295  0.2535 -0.0389  0.1873
 5323TIP3    H137384   0.086   4.400  17.389  1.6851 -0.1215  0.4348
 5323TIP3    H237385   0.157   4.489  17.290 -0.8775  0.7437 -0.7094
 5324TIP3   OH237386   3.817   2.373   6.016 -0.2042  0.4245  0.0868
 5324TIP3    H137387   3.862   2.448   5.978  0.6646 -0.2417 -0.2538
 5324TIP3    H237388   3.724   2.391   6.004  0.0157  0.9921 -0.8744
 5325TIP3   OH237389   1.332   0.198  15.668  0.4870 -0.2875  0.3095
 5325TIP3    H137390   1.345   0.105  15.685  0.5153 -0.4727 -0.6536
 5325TIP3    H237391   1.377   0.243  15.739  0.3708 -1.0124  0.8458
 5326TIP3   OH237392   6.307   5.511  13.963 -0.6525 -0.3033  0.1128
 5326TIP3    H137393   6.286   5.558  14.043 -0.0083 -1.5137  1.0204
 5326TIP3    H237394   6.226   5.513  13.912 -1.3828 -0.3992  1.2429
 5327TIP3   OH237395   1.464   5.704  12.143 -0.1551  0.2609 -0.4679
 5327TIP3    H137396   1.372   5.684  12.125 -0.0356  1.3333 -2.5553
 5327TIP3    H237397   1.513   5.633  12.101  0.0027 -0.3295  0.6732
 5328TIP3   OH237398   1.441   4.155  12.101  0.4310  0.2859 -0.5410
 5328TIP3    H137399   1.491   4.233  12.076  0.4096  0.8858  1.1293
 5328TIP3    H237400   1.480   4.128  12.184  0.4866 -1.5648 -1.1383
 5329TIP3   OH237401   6.220   4.887   1.054 -0.5454 -0.1250 -0.0367
 5329TIP3    H137402   6.204   4.803   1.011  0.6077 -0.1787 -0.4094
 5329TIP3    H237403   6.168   4.883   1.134 -0.4382 -1.2448  0.0027
 5330TIP3   OH237404   4.762   5.147  16.999  0.0381  0.2551  0.1992
 5330TIP3    H137405   4.802   5.113  16.920 -1.0628 -0.2436 -0.1650
 5330TIP3    H237406   4.671   5.166  16.974 -0.0645  1.0322  1.0758
 5331TIP3   OH237407   6.556   4.892   4.618 -0.1670 -0.1872  0.3832
 5331TIP3    H137408   6.563   4.885   4.713 -2.3519 -1.8557  0.5028
 5331TIP3    H237409   6.464   4.910   4.602  0.6489  3.3498 -1.3788
 5332TIP3   OH237410   2.817   1.704   2.158 -0.3340  0.6997  0.5636
 5332TIP3    H137411   2.821   1.609   2.173 -0.9769  0.0387 -2.6133
 5332TIP3    H237412   2.906   1.734   2.171  0.3006 -0.7264 -0.1600
 5333TIP3   OH237413   1.611   5.300   5.000 -0.5223 -0.0605  0.3418
 5333TIP3    H137414   1.617   5.237   5.071 -0.7204 -1.1083 -0.5515
 5333TIP3    H237415   1.518   5.301   4.977 -0.4562  0.2653  0.0787
 5334TIP3   OH237416   0.003   4.011   2.334  0.2623  0.3103 -0.2166
 5334TIP3    H137417  -0.038   3.964   2.262  0.8893 -1.8774  0.7428
 5334TIP3    H237418  -0.064   4.071   2.366 -0.3461  0.6121 -1.9563
 5335TIP3   OH237419   0.598   2.165  14.190  0.0231 -0.5266  0.2018
 5335TIP3    H137420   0.663   2.107  14.150  0.1355 -1.8353  2.1214
 5335TIP3    H237421   0.646   2.209  14.260 -0.2047  1.5700 -0.9035
 5336TIP3   OH237422   0.719   0.299  17.163  0.0539 -0.7007  0.4706
 5336TIP3    H137423   0.778   0.275  17.235  0.4231 -1.5280 -0.0907
 5336TIP3    H237424   0.752   0.250  17.088 -0.1995  0.3063 -0.3262
 5337TIP3   OH237425   2.477   4.521  13.013  0.0036  0.2355  0.6095
 5337TIP3    H137426   2.504   4.546  12.924  0.4532  2.6490  1.3460
 5337TIP3    H237427   2.543   4.458  13.041  0.9024  0.7999 -0.1500
 5338TIP3   OH237428   3.539   4.492   2.401 -0.0966 -0.0054  0.1296
 5338TIP3    H137429   3.620   4.539   2.383  1.3493 -1.3332  2.6778
 5338TIP3    H237430   3.547   4.410   2.352  0.3807 -0.3484  0.7570
 5339TIP3   OH237431   6.526   5.198  14.507  0.7401  0.0116 -0.1831
 5339TIP3    H137432   6.556   5.242  14.427  0.3752 -0.5622 -0.6395
 5339TIP3    H237433   6.590   5.128  14.520 -0.4839 -1.3613 -1.2866
 5340TIP3   OH237434   3.983   5.557   4.357 -0.7552 -0.1151 -0.0031
 5340TIP3    H137435   3.976   5.462   4.341 -2.4766 -0.4324  2.1602
 5340TIP3    H237436   3.923   5.596   4.293 -0.8276 -0.5686 -0.2165
 5341TIP3   OH237437   4.967   5.258  14.692 -0.5641 -0.3068  0.1060
 5341TIP3    H137438   5.045   5.311  14.676 -1.7725  0.6032 -4.2908
 5341TIP3    H237439   4.903   5.321  14.726 -1.1389  0.5735 -2.3839
 5342TIP3   OH237440   1.951   5.945   4.422 -0.8932  0.0603 -0.3433
 5342TIP3    H137441   1.869   5.924   4.377 -0.3540 -0.8016 -0.9606
 5342TIP3    H237442   1.939   5.912   4.511 -0.7723 -1.1857 -0.7750
 5343TIP3   OH237443   2.545   5.235  11.279 -0.0127 -0.7503  0.3378
 5343TIP3    H137444   2.634   5.215  11.308 -0.5388 -0.4810  2.2991
 5343TIP3    H237445   2.546   5.328  11.259 -0.1147 -0.4724  1.5388
 5344TIP3   OH237446   1.569   1.062   0.006 -0.2426  0.0642  0.7479
 5344TIP3    H137447   1.508   1.135  -0.002 -1.8222 -1.3213 -0.7223
 5344TIP3    H237448   1.519   0.995   0.053 -0.5018 -1.6482 -1.7622
 5345TIP3   OH237449   6.649   4.462   2.580 -0.1495 -0.5558 -0.4034
 5345TIP3    H137450   6.607   4.535   2.624  2.1459  0.1356  0.7834
 5345TIP3    H237451   6.725   4.500   2.536  0.1756 -1.9628 -1.1454
 5346TIP3   OH237452   4.122   1.322  14.247 -1.0428 -0.1479  0.0850
 5346TIP3    H137453   4.053   1.320  14.182  0.2057  1.5530 -1.3903
 5346TIP3    H237454   4.080   1.352  14.327 -2.0335  0.7921 -0.7666
 5347TIP3   OH237455   2.651   6.062   1.028 -0.2809  0.6287  0.0394
 5347TIP3    H137456   2.688   5.991   1.081  2.1091  1.2105 -0.7782
 5347TIP3    H237457   2.557   6.057   1.045  0.0607 -1.3255  1.7103
 5348TIP3   OH237458   6.024   1.278  14.782  0.3049  0.5459  0.0805
 5348TIP3    H137459   6.086   1.340  14.744  1.2119 -0.2047  0.3153
 5348TIP3    H237460   5.940   1.300  14.740  0.8442  1.1677 -0.7013
 5349TIP3   OH237461   4.696   1.127  11.722 -0.2131  0.1088  0.6517
 5349TIP3    H137462   4.712   1.157  11.632 -1.1856  0.2785  0.5205
 5349TIP3    H237463   4.665   1.037  11.711 -2.1186  0.7181  0.6467
 5350TIP3   OH237464   4.011   4.079   5.690 -0.0060  0.7615  0.2097
 5350TIP3    H137465   4.092   4.119   5.723 -0.9384  1.6725  1.5045
 5350TIP3    H237466   3.941   4.123   5.739 -1.1303 -2.9708  2.3123
 5351TIP3   OH237467   6.069   0.264  14.659  0.6755 -0.4652 -0.4481
 5351TIP3    H137468   6.024   0.347  14.643  1.7217  0.0750 -0.6446
 5351TIP3    H237469   5.999   0.198  14.652 -0.2765  0.4265  0.2738
 5352TIP3   OH237470   6.560   0.322  10.572 -0.2526 -0.0591 -0.8076
 5352TIP3    H137471   6.558   0.283  10.485  1.0964 -0.1872 -0.8126
 5352TIP3    H237472   6.653   0.322  10.595 -0.7635 -3.1157  2.0124
 5353TIP3   OH237473   0.066   0.470  14.831 -0.2929  0.0692 -0.2366
 5353TIP3    H137474   0.055   0.398  14.893 -1.6960 -0.4592 -1.0530
 5353TIP3    H237475  -0.021   0.509  14.823  0.0958  0.8136 -1.0629
 5354TIP3   OH237476   0.723   4.877  12.495 -0.7451  0.0993  0.0878
 5354TIP3    H137477   0.677   4.877  12.579 -0.9723  0.2077 -0.0366
 5354TIP3    H237478   0.663   4.921  12.434 -1.8174 -2.3957 -0.8003
 5355TIP3   OH237479   3.666   5.358   3.618  0.0886 -0.1903 -0.0915
 5355TIP3    H137480   3.703   5.363   3.706 -0.6092 -0.2316  0.2101
 5355TIP3    H237481   3.732   5.399   3.562 -0.1857  1.3725  0.6770
 5356TIP3   OH237482   1.371   0.981  13.503  0.3918 -0.0540 -0.3005
 5356TIP3    H137483   1.320   0.947  13.430  0.6128 -0.5187 -0.2406
 5356TIP3    H237484   1.376   0.908  13.565 -2.5789  1.2515  1.7283
 5357TIP3   OH237485   1.100   0.780  16.848  0.7421  0.0757 -0.0257
 5357TIP3    H137486   1.059   0.856  16.889  0.1561 -0.6914  0.8591
 5357TIP3    H237487   1.054   0.771  16.764 -2.2658 -1.7534  1.6091
 5358TIP3   OH237488   1.654   3.896   4.830 -0.7016 -0.6080 -0.8477
 5358TIP3    H137489   1.605   3.817   4.851  1.0035 -1.1023  1.7707
 5358TIP3    H237490   1.744   3.866   4.819 -0.1627  0.8622 -0.6704
 5359TIP3   OH237491   1.957   2.725   2.909  0.6170  0.1982  0.2055
 5359TIP3    H137492   1.980   2.634   2.929  0.4136 -0.0589 -0.6857
 5359TIP3    H237493   1.886   2.718   2.845  0.4390  0.9876  0.3065
 5360TIP3   OH237494   3.780   2.995  13.893  0.4154 -0.1356  0.4358
 5360TIP3    H137495   3.874   3.013  13.887  0.5744 -0.9553  0.3453
 5360TIP3    H237496   3.773   2.932  13.964 -0.2061  0.8220  1.2500
 5361TIP3   OH237497   4.526   1.598   2.383  0.3376 -0.3616  0.5325
 5361TIP3    H137498   4.544   1.688   2.409  3.0181 -0.5597 -0.4167
 5361TIP3    H237499   4.593   1.546   2.428 -0.8215 -1.8402  0.6334
 5362TIP3   OH237500   5.251   5.273   0.789  0.0566 -0.0318  0.1046
 5362TIP3    H137501   5.284   5.363   0.790 -2.0261  0.7994  0.1083
 5362TIP3    H237502   5.261   5.244   0.699  1.5253 -0.1389  0.2800
 5363TIP3   OH237503   0.993   5.644   1.903  0.5625  0.1911  0.5827
 5363TIP3    H137504   1.006   5.595   1.822 -0.3910  1.7962 -0.5868
 5363TIP3    H237505   1.081   5.672   1.929  0.9017 -0.5374  0.2598
 5364TIP3   OH237506   1.789   1.830   3.276 -0.0320 -0.6584  0.0071
 5364TIP3    H137507   1.836   1.871   3.204  0.3341 -1.6273 -0.3241
 5364TIP3    H237508   1.752   1.750   3.238 -0.0293 -1.0619  0.8251
 5365TIP3   OH237509   6.402   5.139   4.676 -0.1134 -0.2890 -0.1281
 5365TIP3    H137510   6.359   5.122   4.592 -0.2935  0.5897 -0.2190
 5365TIP3    H237511   6.358   5.080   4.737 -0.5296 -0.3592 -0.4859
 5366TIP3   OH237512   4.036   0.843  11.165 -0.4143 -0.2029  0.8625
 5366TIP3    H137513   3.963   0.887  11.209 -1.5952 -1.9001  0.6987
 5366TIP3    H237514   4.046   0.889  11.082 -2.3726 -0.8942  0.1963
 5367TIP3   OH237515   6.123   0.566   4.819 -0.1834 -0.0087  0.3710
 5367TIP3    H137516   6.117   0.653   4.858  0.3372  0.2813 -0.1760
 5367TIP3    H237517   6.096   0.578   4.728  0.2816 -0.3370  0.1837
 5368TIP3   OH237518   5.858   5.833  16.687  0.2761  0.2007 -0.5095
 5368TIP3    H137519   5.770   5.869  16.699 -0.4254 -1.2435 -0.9377
 5368TIP3    H237520   5.860   5.806  16.595  0.5620 -1.2253 -0.1209
 5369TIP3   OH237521   3.773   3.674  15.434  0.4072 -0.1777 -0.8755
 5369TIP3    H137522   3.770   3.639  15.523  1.9171  0.5086 -0.5422
 5369TIP3    H237523   3.696   3.635  15.391  0.0556 -1.0708  0.5064
 5370TIP3   OH237524   2.994   3.183   1.389 -0.2083  0.1877  0.1290
 5370TIP3    H137525   2.921   3.141   1.433 -2.4475  2.5570 -1.0750
 5370TIP3    H237526   3.026   3.118   1.326  0.1375 -1.6023  2.0533
 5371TIP3   OH237527   2.971   6.340   3.579  0.1181  0.3882  0.1483
 5371TIP3    H137528   3.058   6.378   3.568  0.0240  0.4855 -0.2694
 5371TIP3    H237529   2.915   6.392   3.521 -0.0774 -0.1608 -0.1646
 5372TIP3   OH237530   6.442   5.953   5.587  0.2020 -0.3533 -0.2192
 5372TIP3    H137531   6.351   5.975   5.570  0.1757  0.7665  1.1938
 5372TIP3    H237532   6.459   5.876   5.532 -1.8700 -1.1905  0.2322
 5373TIP3   OH237533   6.672   5.512  11.239  0.4283  0.0359  0.6209
 5373TIP3    H137534   6.761   5.485  11.262  0.9288  0.4282 -0.7573
 5373TIP3    H237535   6.616   5.449  11.284  1.4873 -2.0444 -0.7857
 5374TIP3   OH237536   1.970   1.565   2.918  0.1447 -0.2727  0.5258
 5374TIP3    H137537   1.999   1.479   2.889 -1.1532 -0.2699 -0.8442
 5374TIP3    H237538   1.875   1.565   2.908  0.0143  1.0232  1.3472
 5375TIP3   OH237539   4.099   2.533  16.949  0.1774 -0.0804  0.2963
 5375TIP3    H137540   4.092   2.447  16.991  1.6707  0.6674  2.1876
 5375TIP3    H237541   4.191   2.557  16.958 -0.6949  2.9298  2.3616
 5376TIP3   OH237542   6.418   6.211   5.678  0.8939  0.5158  0.1552
 5376TIP3    H137543   6.450   6.135   5.630  1.0745  1.8108 -1.9009
 5376TIP3    H237544   6.324   6.213   5.663  0.9576  0.9587 -0.2118
 5377TIP3   OH237545   3.665   6.677  13.460  0.1651  0.2448 -0.3164
 5377TIP3    H137546   3.728   6.742  13.429 -0.5297  0.5904 -1.0461
 5377TIP3    H237547   3.673   6.605  13.398 -0.8052  0.6806 -0.9559
 5378TIP3   OH237548   2.692   5.106   3.746  0.3555  0.2844 -0.2809
 5378TIP3    H137549   2.754   5.161   3.699  0.6320  0.5170  0.3460
 5378TIP3    H237550   2.732   5.019   3.747  1.2368  0.6744  1.1097
 5379TIP3   OH237551   0.713   2.860  14.576  0.0648  0.1153 -0.0784
 5379TIP3    H137552   0.758   2.793  14.525 -0.2571 -0.2015  0.0503
 5379TIP3    H237553   0.623   2.859  14.543  0.4573  1.7454 -1.3539
 5380TIP3   OH237554   5.036   4.546  16.108  0.1285 -0.1110  0.3235
 5380TIP3    H137555   5.093   4.587  16.043 -0.5723  0.6930  0.1932
 5380TIP3    H237556   5.024   4.457  16.076 -0.6179  0.4191 -0.9508
 5381TIP3   OH237557   4.912   5.962  14.698 -0.2205 -0.1258 -0.1808
 5381TIP3    H137558   4.950   5.970  14.786 -1.1482 -1.6664  0.4059
 5381TIP3    H237559   4.936   5.873  14.670 -1.0504 -0.1272 -0.9257
 5382TIP3   OH237560   2.456   0.363  16.891 -0.2437  0.3502  0.0929
 5382TIP3    H137561   2.550   0.377  16.902  0.2722 -0.6028 -2.4693
 5382TIP3    H237562   2.436   0.289  16.948  1.1194 -1.0296 -1.1302
 5383TIP3   OH237563   5.840   0.586   0.089 -0.0708  0.6730 -0.6708
 5383TIP3    H137564   5.935   0.594   0.098  0.0756  1.8429 -2.6389
 5383TIP3    H237565   5.823   0.609  -0.003 -2.4568  2.6461  0.1615
 5384TIP3   OH237566   2.948   0.744   6.398  0.4841 -0.2025 -0.5490
 5384TIP3    H137567   2.889   0.771   6.469  0.1268  0.5408 -1.1073
 5384TIP3    H237568   3.036   0.765   6.430  0.3508 -0.1790 -0.1960
 5385TIP3   OH237569   0.559   2.519  14.040 -0.4490  0.5588 -0.1349
 5385TIP3    H137570   0.646   2.478  14.037 -1.5112 -1.8313 -0.5827
 5385TIP3    H237571   0.562   2.585  13.971  1.3760  1.4025  0.6659
 5386TIP3   OH237572   1.977   4.290   4.045 -0.4091 -0.5025  0.3863
 5386TIP3    H137573   1.913   4.338   4.097 -0.3037 -1.2907  1.2745
 5386TIP3    H237574   1.931   4.210   4.019 -0.2423 -0.4176 -0.1671
 5387TIP3   OH237575   5.534   6.114  13.676 -0.1955  0.0841  0.5293
 5387TIP3    H137576   5.612   6.166  13.693  0.0316 -0.2980  0.6589
 5387TIP3    H237577   5.555   6.027  13.708 -0.4224 -0.1938 -0.0552
 5388TIP3   OH237578   2.120   3.034   5.385  0.5997 -0.0998 -0.0595
 5388TIP3    H137579   2.099   3.037   5.478  0.6998  0.5864 -0.0504
 5388TIP3    H237580   2.087   2.950   5.355  0.9978 -0.5299  0.6970
 5389TIP3   OH237581   2.474   2.628   0.964 -0.5157 -0.0009  0.2164
 5389TIP3    H137582   2.508   2.649   0.877 -0.2929  0.9390  0.5163
 5389TIP3    H237583   2.383   2.600   0.948 -0.2440 -0.5691 -0.3845
 5390TIP3   OH237584   2.596   0.395   2.040 -0.0161  0.0009  0.0013
 5390TIP3    H137585   2.670   0.456   2.044  3.4217 -3.7650  1.7138
 5390TIP3    H237586   2.597   0.362   1.950  0.7296 -0.3161  0.1159
 5391TIP3   OH237587   2.586   5.176   1.727  0.3023 -0.3887  0.1279
 5391TIP3    H137588   2.513   5.232   1.701  0.5168 -0.5250 -0.7751
 5391TIP3    H237589   2.570   5.157   1.820 -1.2258 -1.0801 -0.2654
 5392TIP3   OH237590   3.480   2.372   2.492  0.2763  0.4963 -0.0078
 5392TIP3    H137591   3.396   2.327   2.498  0.4568  0.2203  0.5061
 5392TIP3    H237592   3.503   2.368   2.399  0.1966 -0.3080 -0.0026
 5393TIP3   OH237593   6.277   3.561   2.510  0.6660 -0.3160  0.0490
 5393TIP3    H137594   6.322   3.518   2.583 -0.1286  0.2009  0.8551
 5393TIP3    H237595   6.313   3.650   2.510  0.6688 -0.3186 -0.1942
 5394TIP3   OH237596   4.471   4.887  15.053 -0.0126  0.3681  0.2322
 5394TIP3    H137597   4.459   4.965  14.998 -0.8322  0.0963  0.0148
 5394TIP3    H237598   4.540   4.837  15.009 -1.4107 -0.3933 -1.2143
 5395TIP3   OH237599   3.562   6.319   0.371 -0.0099 -0.3933  0.0257
 5395TIP3    H137600   3.621   6.302   0.298  1.6159  0.1376  1.1384
 5395TIP3    H237601   3.615   6.370   0.432 -1.9011  0.7810  0.7510
 5396TIP3   OH237602   0.831   3.523  16.457 -0.0582  0.1957  0.2775
 5396TIP3    H137603   0.868   3.606  16.488  2.0255 -0.7093  0.3893
 5396TIP3    H237604   0.888   3.497  16.385  0.7065 -2.1591  1.6020
 5397TIP3   OH237605   0.560   1.817   4.408  0.3434  0.5841  0.3946
 5397TIP3    H137606   0.527   1.845   4.494  0.5192 -0.1962  0.7283
 5397TIP3    H237607   0.592   1.898   4.367  3.9254  0.5149  2.6496
 5398TIP3   OH237608   6.186   5.763   5.322  0.2461  0.7279 -0.1078
 5398TIP3    H137609   6.155   5.681   5.283 -1.3223  0.0938  2.1968
 5398TIP3    H237610   6.279   5.748   5.339  0.3243  0.0140 -1.0936
 5399TIP3   OH237611   5.819   4.865  12.279  0.6422  0.1420 -0.6100
 5399TIP3    H137612   5.906   4.882  12.244  0.3636  2.0236 -0.4686
 5399TIP3    H237613   5.760   4.913  12.222 -0.3110 -1.0349 -0.6481
 5400TIP3   OH237614   1.028   4.232   0.270  0.3669  0.1283  0.3736
 5400TIP3    H137615   1.021   4.252   0.176  0.4910 -2.1595 -0.1910
 5400TIP3    H237616   0.959   4.168   0.286 -2.5632  3.5874  2.9322
 5401TIP3   OH237617   0.528   5.085  17.255 -0.6502  0.5020  0.2964
 5401TIP3    H137618   0.497   5.150  17.318  1.2923 -0.6265  2.5781
 5401TIP3    H237619   0.620   5.108  17.240 -0.5174 -0.4922 -0.5256
 5402TIP3   OH237620   3.854   5.910   1.257 -0.2074 -0.0742 -0.4874
 5402TIP3    H137621   3.882   5.822   1.282  0.2240  0.1290 -0.2384
 5402TIP3    H237622   3.802   5.940   1.332  1.1140  0.5478  0.2174
 5403TIP3   OH237623   4.974   5.082  13.624 -0.4364  0.4181  0.3850
 5403TIP3    H137624   4.937   5.036  13.698  1.6337 -2.2517 -0.0736
 5403TIP3    H237625   5.053   5.033  13.602  0.0614  2.2096 -2.4150
 5404TIP3   OH237626   2.681   0.320   4.408 -0.2473  0.3411 -0.0996
 5404TIP3    H137627   2.608   0.286   4.460 -1.4620  2.3579 -0.3836
 5404TIP3    H237628   2.654   0.307   4.318  0.2485  0.0905 -0.2146
 5405TIP3   OH237629   3.690   1.264  16.338 -0.2516 -0.0134 -0.5232
 5405TIP3    H137630   3.704   1.243  16.246 -0.9720 -1.6405 -0.3063
 5405TIP3    H237631   3.595   1.277  16.345 -0.1576  0.4576 -0.0792
 5406TIP3   OH237632   4.569   0.134   3.974 -0.6058  0.3312  0.1872
 5406TIP3    H137633   4.505   0.071   4.007  0.7554 -0.5257  1.3366
 5406TIP3    H237634   4.625   0.082   3.916 -0.1861  0.7561  0.2065
 5407TIP3   OH237635   5.219   6.245  14.499 -0.4149 -0.1628  0.0913
 5407TIP3    H137636   5.289   6.272  14.440 -0.1776  0.4220  0.6279
 5407TIP3    H237637   5.145   6.301  14.475 -1.4811 -2.3320 -2.0429
 5408TIP3   OH237638   4.828   0.295  16.659  0.0630 -0.2845  0.1415
 5408TIP3    H137639   4.744   0.291  16.704  0.0720 -2.0559  0.0738
 5408TIP3    H237640   4.815   0.243  16.580  0.9189  0.3350 -0.4244
 5409TIP3   OH237641   4.100   6.491   5.018 -0.0950 -0.6790  0.3430
 5409TIP3    H137642   4.162   6.558   4.991 -0.2812  0.1249  1.8226
 5409TIP3    H237643   4.057   6.527   5.096 -2.6424 -1.0708 -0.7537
 5410TIP3   OH237644   5.069   4.101  12.230 -0.1450 -0.0542  0.4581
 5410TIP3    H137645   5.034   4.099  12.319 -0.1123  0.4176  0.4853
 5410TIP3    H237646   4.995   4.079  12.174 -0.2925  0.1610  0.5677
 5411TIP3   OH237647   4.999   0.298   3.542 -0.4803  0.6579 -0.0680
 5411TIP3    H137648   4.946   0.248   3.480 -1.9102 -1.5222  2.7286
 5411TIP3    H237649   5.088   0.266   3.528 -0.6850  0.5648 -1.2611
 5412TIP3   OH237650   0.205   0.470  14.038 -0.5652 -0.4395  0.6907
 5412TIP3    H137651   0.170   0.458  14.127 -0.4703 -1.7272  0.5742
 5412TIP3    H237652   0.220   0.381  14.007  0.1466  0.0307 -0.3316
 5413TIP3   OH237653   2.870   0.447  13.674  0.0962 -1.0028  0.3972
 5413TIP3    H137654   2.924   0.491  13.608 -1.8025  0.2431 -0.4267
 5413TIP3    H237655   2.815   0.517  13.709  0.8193 -1.7069  3.1206
 5414TIP3   OH237656   4.892   4.305   0.364  0.0383 -0.0290 -0.1809
 5414TIP3    H137657   4.867   4.281   0.275  0.4603 -0.3554 -0.2152
 5414TIP3    H237658   4.988   4.296   0.366 -0.0641 -1.2329  0.6434
 5415TIP3   OH237659   6.739   2.191   3.052  0.1583  0.2549  0.0984
 5415TIP3    H137660   6.777   2.143   2.979 -1.2338  1.1875 -1.3163
 5415TIP3    H237661   6.725   2.125   3.120 -2.9587 -1.7863 -2.2340
 5416TIP3   OH237662   3.242   5.275  12.637  0.2079 -0.2721 -0.1785
 5416TIP3    H137663   3.232   5.370  12.637 -1.1206 -0.3865  0.0789
 5416TIP3    H237664   3.311   5.258  12.701  0.8512  0.5385 -0.6324
 5417TIP3   OH237665   4.900   3.025  13.228  0.2703 -0.0369 -0.3274
 5417TIP3    H137666   4.836   3.088  13.262  0.3176 -1.0918  1.9013
 5417TIP3    H237667   4.855   2.982  13.155 -0.6930  0.8464 -0.2752
 5418TIP3   OH237668   1.996   6.631  14.732 -1.4049  0.2459 -0.1339
 5418TIP3    H137669   2.009   6.548  14.687 -0.1954  0.8619 -0.9632
 5418TIP3    H237670   1.903   6.631  14.755 -1.3256 -1.5547  0.3525
 5419TIP3   OH237671   0.252   0.071  16.830 -0.4833  0.3877 -0.0194
 5419TIP3    H137672   0.181   0.131  16.808 -0.2777 -0.0769 -2.1419
 5419TIP3    H237673   0.232  -0.009  16.783  2.3774  0.8599 -2.3625
 5420TIP3   OH237674   3.266   4.782   5.681 -0.0071  0.0882 -0.6933
 5420TIP3    H137675   3.288   4.696   5.646 -0.5347 -0.3685  0.0631
 5420TIP3    H237676   3.347   4.833   5.672 -0.0863 -0.0497 -2.4008
 5421TIP3   OH237677   3.815   1.613  16.629 -0.1655  0.3542 -0.2825
 5421TIP3    H137678   3.822   1.561  16.549 -1.3463  1.0552 -0.8607
 5421TIP3    H237679   3.729   1.590  16.665 -0.3113  1.2247 -0.0648
 5422TIP3   OH237680   6.171   4.773   4.353  0.1768  0.0395  0.4294
 5422TIP3    H137681   6.240   4.707   4.341 -0.6105 -1.1591  2.1208
 5422TIP3    H237682   6.090   4.723   4.354 -0.3893  0.9118  2.4491
 5423TIP3   OH237683   4.106   2.671  13.324  0.3035  0.1955  0.0114
 5423TIP3    H137684   4.057   2.645  13.246  1.0591  2.9831 -1.5314
 5423TIP3    H237685   4.042   2.664  13.395 -1.3175  0.3879 -1.3417
 5424TIP3   OH237686   6.069   4.048  17.305 -0.1368  0.7486  0.4146
 5424TIP3    H137687   6.149   4.022  17.259 -1.0841  0.6130 -1.2318
 5424TIP3    H237688   6.086   4.027  17.396  1.2083 -0.5231 -0.0906
 5425TIP3   OH237689   3.196   5.200  11.838 -0.3058  0.7374  0.5633
 5425TIP3    H137690   3.174   5.145  11.763  0.3782 -0.6227  1.3426
 5425TIP3    H237691   3.126   5.184  11.901  0.3569  0.0503  1.1444
 5426TIP3   OH237692   2.020   0.407  11.764 -0.4131  0.0577  0.1111
 5426TIP3    H137693   2.038   0.344  11.695  0.8812 -1.4772  1.7599
 5426TIP3    H237694   2.035   0.359  11.845 -2.7086  1.5187  1.5348
 5427TIP3   OH237695   5.136   1.648  14.327  0.1132 -0.0745 -0.1110
 5427TIP3    H137696   5.178   1.595  14.395 -0.1340  1.0397  0.9455
 5427TIP3    H237697   5.174   1.616  14.246 -0.0721 -1.8935  0.4763
 5428TIP3   OH237698   6.223   2.841  16.698  0.1916  0.0383  0.2973
 5428TIP3    H137699   6.134   2.829  16.664  0.0779  0.3922  0.4674
 5428TIP3    H237700   6.213   2.904  16.770  0.6201  0.3207  0.1160
 5429TIP3   OH237701   2.559   5.365  16.665  0.6921 -0.0169  0.6987
 5429TIP3    H137702   2.507   5.302  16.616  0.3888 -0.7075  1.8784
 5429TIP3    H237703   2.509   5.447  16.661  0.6451 -0.0740 -0.0663
 5430TIP3   OH237704   1.106   0.015  13.732  0.1722 -0.0838  0.0708
 5430TIP3    H137705   1.091  -0.023  13.646 -1.2239 -1.4635  0.8697
 5430TIP3    H237706   1.195  -0.011  13.755 -0.5115 -2.4110  0.3127
 5431TIP3   OH237707   3.890   2.298  13.551 -0.5070  0.3329  0.1261
 5431TIP3    H137708   3.967   2.315  13.496  0.1819  0.6664  1.1811
 5431TIP3    H237709   3.847   2.223  13.508  1.0029 -0.5766  0.1278
 5432TIP3   OH237710   5.046   3.746  12.125  0.1404 -0.4849  0.3815
 5432TIP3    H137711   5.073   3.707  12.042 -1.3134 -1.4671  0.3415
 5432TIP3    H237712   4.957   3.778  12.110  0.3550  0.5756  1.1741
 5433TIP3   OH237713   5.323   6.628  12.425 -0.2280 -0.0646  0.1724
 5433TIP3    H137714   5.390   6.663  12.483 -0.4019  0.7531 -0.1008
 5433TIP3    H237715   5.274   6.705  12.396  0.9108 -0.2094 -2.4192
 5434TIP3   OH237716   2.906   1.601  15.664 -0.6128 -0.0550 -0.4010
 5434TIP3    H137717   2.962   1.605  15.741 -0.9480  1.1871 -0.1996
 5434TIP3    H237718   2.905   1.509  15.639  1.4900 -0.1148 -0.4008
 5435TIP3   OH237719   3.286   5.904  13.512 -0.1510  0.0544 -0.2564
 5435TIP3    H137720   3.366   5.952  13.489 -0.5175 -0.8020 -3.9245
 5435TIP3    H237721   3.308   5.812  13.498 -1.1209 -0.3984  1.0379
 5436TIP3   OH237722   2.423   3.891   1.601  0.5744 -0.1820 -0.2728
 5436TIP3    H137723   2.448   3.858   1.515 -0.9539 -1.0625 -0.4021
 5436TIP3    H237724   2.430   3.987   1.592  1.0406 -0.2862 -1.1646
 5437TIP3   OH237725   0.999   0.832   5.319 -0.6396  0.4060 -0.3799
 5437TIP3    H137726   1.039   0.838   5.232 -0.2608 -0.1910 -0.2576
 5437TIP3    H237727   1.014   0.741   5.345  1.3484  1.1480  1.3147
 5438TIP3   OH237728   0.352   2.164  11.775  0.2381  0.2977  0.0343
 5438TIP3    H137729   0.346   2.260  11.772  2.2827  0.4387 -1.3496
 5438TIP3    H237730   0.278   2.138  11.830 -1.4948  2.5391 -1.0447
 5439TIP3   OH237731   2.809   3.707   1.105 -0.1678  0.7079 -0.0142
 5439TIP3    H137732   2.888   3.761   1.098  0.2299 -0.0163 -1.8001
 5439TIP3    H237733   2.821   3.639   1.038 -1.2132 -0.8679  1.3362
 5440TIP3   OH237734   4.284   2.332   6.426  0.3598 -0.7118 -0.3639
 5440TIP3    H137735   4.321   2.338   6.514  1.8614  0.9390 -1.0433
 5440TIP3    H237736   4.192   2.310   6.439  0.1734  0.9948  1.7054
 5441TIP3   OH237737   3.561   3.097   5.807 -0.4079 -0.2206  0.6743
 5441TIP3    H137738   3.650   3.100   5.773 -0.4210  0.5239  0.6829
 5441TIP3    H237739   3.519   3.174   5.769 -1.3197 -1.0612 -0.0739
 5442TIP3   OH237740   1.570   2.996  15.434 -0.5310 -0.1403  0.5969
 5442TIP3    H137741   1.657   2.992  15.474  0.1424 -0.2306 -0.7927
 5442TIP3    H237742   1.516   2.937  15.486  0.2599 -0.1332  1.4478
 5443TIP3   OH237743   0.586   5.976  11.484 -0.4191  0.5005 -0.4372
 5443TIP3    H137744   0.623   5.916  11.420  3.2787  0.9709  1.0116
 5443TIP3    H237745   0.540   5.919  11.546  0.8762 -0.6176 -0.4432
 5444TIP3   OH237746   5.410   0.182   1.882 -0.1364 -0.1152 -0.2254
 5444TIP3    H137747   5.419   0.229   1.965  0.6174 -0.8394  0.1140
 5444TIP3    H237748   5.359   0.241   1.827 -4.6994 -1.3089  2.1422
 5445TIP3   OH237749   1.675   1.754  12.707  0.2408  0.0739  0.9870
 5445TIP3    H137750   1.698   1.781  12.618  0.2415  0.7821  1.1998
 5445TIP3    H237751   1.733   1.680  12.725 -0.0535 -0.3528  0.2476
 5446TIP3   OH237752   5.847   3.465   3.394  0.1483 -0.3139  0.6517
 5446TIP3    H137753   5.864   3.439   3.484  1.3997 -1.7798  0.0433
 5446TIP3    H237754   5.752   3.467   3.387 -0.0798  2.4477  2.6679
 5447TIP3   OH237755   0.570   5.291  12.236 -0.0655  0.1338 -0.3482
 5447TIP3    H137756   0.477   5.269  12.240 -0.9575  3.5678  2.3540
 5447TIP3    H237757   0.572   5.385  12.217  2.8920  0.1053 -0.6605
 5448TIP3   OH237758   4.248   0.986  17.392  0.4050  0.1516  0.2868
 5448TIP3    H137759   4.290   1.070  17.411  0.8141 -0.1829  0.9133
 5448TIP3    H237760   4.164   1.010  17.353  1.1224  0.8273 -0.8778
 5449TIP3   OH237761   6.240   4.734   4.027 -0.1885 -0.4417 -0.3032
 5449TIP3    H137762   6.182   4.771   4.094  0.2099 -0.4861  0.0727
 5449TIP3    H237763   6.216   4.781   3.947 -1.4051 -1.1404 -0.3702
 5450TIP3   OH237764   0.568   6.228  12.138 -0.3275  0.7395  0.5056
 5450TIP3    H137765   0.595   6.145  12.097  0.3210  0.3411  1.6810
 5450TIP3    H237766   0.517   6.273  12.071  0.4038 -0.0405 -0.6071
 5451TIP3   OH237767   5.814   0.238  16.559  0.2993  0.2686  0.1402
 5451TIP3    H137768   5.743   0.274  16.506  1.4886 -0.0192 -1.7188
 5451TIP3    H237769   5.830   0.151  16.523  1.4452  0.2399  0.6643
 5452TIP3   OH237770   1.438   2.131   1.456 -0.1956  0.4775  0.5423
 5452TIP3    H137771   1.513   2.188   1.438 -0.1612  0.1832 -0.2955
 5452TIP3    H237772   1.468   2.044   1.428  0.8826 -0.6492  4.4960
 5453TIP3   OH237773   4.798   4.545  12.849 -0.5075 -0.1390 -0.1859
 5453TIP3    H137774   4.794   4.506  12.762 -0.7734 -1.5136  0.4051
 5453TIP3    H237775   4.887   4.526  12.880 -0.8030 -0.7680  0.3103
 5454TIP3   OH237776   2.862   2.163   1.692  0.2851 -0.7880  0.7012
 5454TIP3    H137777   2.824   2.239   1.650  0.2505  0.1453  2.3245
 5454TIP3    H237778   2.794   2.132   1.752  1.4499 -0.0211  2.5159
 5455TIP3   OH237779   5.775   4.619   1.331 -0.6026  0.5246 -0.7381
 5455TIP3    H137780   5.854   4.649   1.376  0.1166  0.4506 -1.9156
 5455TIP3    H237781   5.745   4.695   1.282 -1.5682  0.6991  0.1031
 5456TIP3   OH237782   3.036   5.176   5.525  0.2056 -0.1799  0.0015
 5456TIP3    H137783   3.092   5.239   5.572  1.6759  0.1258 -1.9992
 5456TIP3    H237784   2.971   5.230   5.481 -0.4956 -0.3758  0.7623
 5457TIP3   OH237785   6.733   6.010  11.532  1.0683 -0.5029  0.0773
 5457TIP3    H137786   6.714   6.017  11.626  0.7407  3.2340 -0.0953
 5457TIP3    H237787   6.656   5.966  11.495 -0.9597  1.8891  1.1310
 5458TIP3   OH237788   1.364   4.765   4.689 -0.0610  0.4054 -0.4144
 5458TIP3    H137789   1.336   4.736   4.602 -0.0556 -0.6382 -0.0834
 5458TIP3    H237790   1.379   4.859   4.680 -1.0274  0.4944 -1.2899
 5459TIP3   OH237791   3.717   2.787   3.135  0.5251 -0.4824 -0.4080
 5459TIP3    H137792   3.722   2.700   3.175  0.5994 -0.0940  0.4662
 5459TIP3    H237793   3.680   2.772   3.048 -1.7331 -1.1632  0.5902
 5460TIP3   OH237794   3.056   4.293   3.551 -0.2971 -0.2301  0.4095
 5460TIP3    H137795   3.135   4.253   3.514  0.0413 -0.3561  1.2223
 5460TIP3    H237796   3.082   4.317   3.640 -0.6412  1.3632  0.1081
 5461TIP3   OH237797   0.519   4.410   1.242 -0.2908 -0.3749 -0.3430
 5461TIP3    H137798   0.533   4.504   1.231 -0.2463 -0.4062 -0.5576
 5461TIP3    H237799   0.424   4.399   1.242 -0.4567  0.0847  3.1366
 5462TIP3   OH237800   0.058   5.370  14.844  0.2685  0.2002 -0.2720
 5462TIP3    H137801  -0.020   5.411  14.808  0.0830  0.1591  0.0777
 5462TIP3    H237802   0.126   5.386  14.779  0.0360  0.4785 -0.4479
 5463TIP3   OH237803   1.933   4.919  11.886  0.1279 -0.1355  0.4278
 5463TIP3    H137804   1.891   4.973  11.953 -1.1154  0.3568 -0.6901
 5463TIP3    H237805   1.993   4.863  11.934 -1.3482 -0.3996  2.0485
 5464TIP3   OH237806   6.733   5.748   3.767 -0.6562  0.5673  0.2589
 5464TIP3    H137807   6.641   5.774   3.759 -0.2267  2.4570  1.1299
 5464TIP3    H237808   6.744   5.681   3.699 -2.5964  0.4746 -0.0294
 5465TIP3   OH237809   5.110   6.655  17.035 -0.1431 -0.6889  0.6081
 5465TIP3    H137810   5.089   6.618  16.949 -0.6641  1.2329 -0.1417
 5465TIP3    H237811   5.205   6.669  17.032 -0.3719  0.9229 -0.3549
 5466TIP3   OH237812   0.293   5.848   4.305 -0.2126  0.2765 -0.0739
 5466TIP3    H137813   0.318   5.906   4.233  0.2397 -1.0813 -1.0530
 5466TIP3    H237814   0.231   5.899   4.356  1.0311  2.0385 -0.2354
 5467TIP3   OH237815   3.120   3.852  11.575  0.5635  0.0068 -0.5646
 5467TIP3    H137816   3.176   3.876  11.501  2.1829 -3.0470 -0.4812
 5467TIP3    H237817   3.082   3.768  11.549 -0.9622  0.1474  1.0337
 5468TIP3   OH237818   1.112   1.476  13.620  0.3307 -0.3339  0.1652
 5468TIP3    H137819   1.165   1.450  13.546  1.2272 -1.8720  1.2824
 5468TIP3    H237820   1.174   1.512  13.683 -0.2417 -0.1927  0.6615
 5469TIP3   OH237821   5.147   6.319  16.265 -0.2039 -0.2459 -0.6137
 5469TIP3    H137822   5.227   6.290  16.221  0.1141 -1.7114  0.8119
 5469TIP3    H237823   5.154   6.414  16.268  1.5775 -0.3414 -0.4075
 5470TIP3   OH237824   2.560   1.953  16.267  0.3740  0.6480  0.0246
 5470TIP3    H137825   2.487   1.904  16.231 -0.1262  0.1967  1.5817
 5470TIP3    H237826   2.628   1.948  16.200  0.0584 -1.5318 -0.2019
 5471TIP3   OH237827   4.534   1.822   3.349 -0.1415 -0.5027 -0.1915
 5471TIP3    H137828   4.565   1.731   3.351 -0.7027 -0.6869  0.9208
 5471TIP3    H237829   4.609   1.874   3.378  1.4465 -0.1449 -4.2507
 5472TIP3   OH237830   1.992   5.228   0.507  0.6119  0.4769  0.5824
 5472TIP3    H137831   2.087   5.225   0.494  0.8562  0.3973  2.1636
 5472TIP3    H237832   1.967   5.137   0.523  0.0485  0.3175 -1.0351
 5473TIP3   OH237833   2.390   3.770   3.235 -0.6748  0.4486  0.7949
 5473TIP3    H137834   2.450   3.844   3.247 -0.8403  0.5757  0.8434
 5473TIP3    H237835   2.310   3.797   3.280 -1.0123  0.5743  0.1269
 5474TIP3   OH237836   0.834   5.336  14.458  0.1949 -0.0653  0.3448
 5474TIP3    H137837   0.878   5.253  14.439  0.6217  0.4303 -0.9074
 5474TIP3    H237838   0.868   5.397  14.393 -1.5194  0.6288  0.0511
 5475TIP3   OH237839   6.282   1.988   4.722  0.8106 -0.3547 -0.0152
 5475TIP3    H137840   6.235   2.009   4.803  1.4174 -0.5674  0.4045
 5475TIP3    H237841   6.227   1.924   4.678  0.9180 -0.9508  0.6950
 5476TIP3   OH237842   3.776   2.266   2.150 -0.0047  0.1364 -0.0097
 5476TIP3    H137843   3.824   2.196   2.105  0.3333  0.0003  0.5514
 5476TIP3    H237844   3.717   2.219   2.209  2.2699  0.2443  2.5816
 5477TIP3   OH237845   6.469   4.274  13.705 -0.1842 -0.2219  0.0127
 5477TIP3    H137846   6.449   4.220  13.782 -0.3195 -1.4450 -0.8467
 5477TIP3    H237847   6.561   4.256  13.687 -1.0094 -2.8430 -2.2248
 5478TIP3   OH237848   1.479   4.867  12.263 -0.3585 -0.1603 -0.0301
 5478TIP3    H137849   1.387   4.841  12.258 -0.3001 -0.4832  0.4481
 5478TIP3    H237850   1.527   4.790  12.234 -0.2919  1.0273 -3.4912
 5479TIP3   OH237851   3.881   6.189  14.085  0.0299  0.4823 -0.3507
 5479TIP3    H137852   3.849   6.174  13.996  1.4394 -1.8909 -0.5208
 5479TIP3    H237853   3.811   6.158  14.141  0.2814 -0.7239 -0.6837
 5480TIP3   OH237854   3.349   1.323  12.550 -0.3340 -0.4105 -0.2695
 5480TIP3    H137855   3.256   1.327  12.527  0.2279  0.6941 -2.6549
 5480TIP3    H237856   3.372   1.412  12.577  0.3357 -0.3143 -1.1190
 5481TIP3   OH237857   6.350   4.776  16.749 -0.2387  0.1018 -0.1365
 5481TIP3    H137858   6.418   4.743  16.690 -0.6918  0.4008 -0.8480
 5481TIP3    H237859   6.268   4.744  16.712 -0.5954  0.9788 -0.1507
 5482TIP3   OH237860   4.665   0.604  12.252 -0.3445 -0.0326  0.1295
 5482TIP3    H137861   4.595   0.618  12.316  0.2908  1.0793  0.6141
 5482TIP3    H237862   4.648   0.667  12.183 -0.8936 -1.0733 -0.7064
 5483TIP3   OH237863   5.162   4.891   1.048 -0.5301  0.4944 -0.4142
 5483TIP3    H137864   5.142   4.876   0.956 -1.2463 -1.6533  0.0264
 5483TIP3    H237865   5.118   4.973   1.069 -1.5822  0.2781 -1.6465
 5484TIP3   OH237866   6.313   0.340   3.570 -0.1084 -0.0451 -0.5648
 5484TIP3    H137867   6.321   0.433   3.590  0.5968 -0.3341  0.5967
 5484TIP3    H237868   6.402   0.313   3.548 -0.5784 -0.1145 -2.5367
 5485TIP3   OH237869   1.307   6.003  14.382 -0.5918 -0.4601  0.5294
 5485TIP3    H137870   1.312   6.093  14.414 -1.2107 -0.2432  0.0260
 5485TIP3    H237871   1.214   5.981  14.387 -0.7063 -0.4377 -1.0773
 5486TIP3   OH237872   2.043   0.242   2.692  0.3733  0.1735  0.2750
 5486TIP3    H137873   1.961   0.219   2.735 -0.8278  0.8953 -1.4850
 5486TIP3    H237874   2.066   0.165   2.640  0.7743  0.0103  0.6857
 5487TIP3   OH237875   0.289   2.163   2.918  0.1928  0.5416  1.2135
 5487TIP3    H137876   0.358   2.110   2.957  0.8877  1.8277  1.8180
 5487TIP3    H237877   0.209   2.115   2.935  0.9266 -1.0186  0.4457
 5488TIP3   OH237878   2.868   3.546   0.183 -0.0573 -0.8525 -0.3460
 5488TIP3    H137879   2.880   3.451   0.176  0.1623 -0.7733 -1.1556
 5488TIP3    H237880   2.773   3.558   0.184 -0.1160 -0.9997 -1.8106
 5489TIP3   OH237881   4.464   1.316  12.898 -0.1576 -0.1189 -0.3814
 5489TIP3    H137882   4.430   1.366  12.823 -0.8481  1.9692  1.2310
 5489TIP3    H237883   4.411   1.236  12.899 -0.8275  0.2811 -1.5189
 5490TIP3   OH237884   0.337   2.379   1.652 -0.3113 -0.2860  0.2280
 5490TIP3    H137885   0.347   2.450   1.715 -1.5968  0.2469 -0.1458
 5490TIP3    H237886   0.246   2.350   1.662  0.1879 -1.9129  0.3967
 5491TIP3   OH237887   3.432   1.124   4.534  0.8486  0.2045  0.0324
 5491TIP3    H137888   3.401   1.064   4.466  1.0739 -1.9923  1.7583
 5491TIP3    H237889   3.523   1.098   4.550  0.7924  0.6429  1.1968
 5492TIP3   OH237890   6.131   4.951   2.124  0.0013 -0.6538 -0.0498
 5492TIP3    H137891   6.209   5.001   2.144  0.8150 -2.1382  0.6524
 5492TIP3    H237892   6.064   4.986   2.183  0.7455 -0.8755  0.9380
 5493TIP3   OH237893   1.338   6.559  12.664  0.4710  0.3924 -0.1956
 5493TIP3    H137894   1.260   6.571  12.718  0.5457 -1.3566  0.3753
 5493TIP3    H237895   1.310   6.499  12.595  1.0205  0.6277 -0.6257
 5494TIP3   OH237896   1.362   4.542   0.612  0.2191  0.5142 -0.8977
 5494TIP3    H137897   1.352   4.553   0.517  2.1823 -0.5668 -1.2785
 5494TIP3    H237898   1.443   4.493   0.622 -1.0732 -1.3934  1.2575
 5495TIP3   OH237899   4.088   4.898  15.763 -0.1412 -0.3478  0.0517
 5495TIP3    H137900   4.109   4.912  15.856 -0.4041  0.5024 -0.0025
 5495TIP3    H237901   4.007   4.948  15.750  2.6181  4.3392 -1.8783
 5496TIP3   OH237902   2.246   2.579   0.166 -0.0513 -0.2580 -0.5698
 5496TIP3    H137903   2.258   2.516   0.095  0.9877  0.6626 -1.2723
 5496TIP3    H237904   2.181   2.641   0.133 -1.8173 -1.4470  0.5090
 5497TIP3   OH237905   5.064   1.289  13.603 -0.1978  0.2532  0.0036
 5497TIP3    H137906   4.983   1.244  13.624 -1.1633  2.1472  0.5264
 5497TIP3    H237907   5.111   1.228  13.546 -1.2033 -1.5727  1.0461
 5498TIP3   OH237908   3.461   2.680   4.797 -0.5406 -0.0489 -0.2858
 5498TIP3    H137909   3.492   2.770   4.788 -0.8599  0.0131 -0.8082
 5498TIP3    H237910   3.468   2.643   4.709 -0.1257 -0.6309 -0.0147
 5499TIP3   OH237911   1.739   6.225  12.217 -0.5586  0.3597 -0.3126
 5499TIP3    H137912   1.666   6.264  12.169 -4.1183 -1.5880  2.9328
 5499TIP3    H237913   1.745   6.135  12.184  0.0124  0.3398 -0.1641
 5500TIP3   OH237914   0.348   3.338   2.655 -0.0528  0.1173  0.1526
 5500TIP3    H137915   0.412   3.375   2.716 -0.0053 -1.6051  1.1810
 5500TIP3    H237916   0.401   3.302   2.584  0.1172 -1.0652  0.8693
 5501TIP3   OH237917   4.762   4.650  16.145 -0.1646 -0.1430  0.4583
 5501TIP3    H137918   4.678   4.607  16.128 -0.3828  0.5807 -0.3650
 5501TIP3    H237919   4.824   4.604  16.088 -0.2258  0.0483  0.2353
 5502TIP3   OH237920   6.590   5.829  15.586 -0.2417 -0.4820  0.0065
 5502TIP3    H137921   6.592   5.734  15.592 -0.4758 -0.4930 -0.0838
 5502TIP3    H237922   6.539   5.857  15.662  0.5174 -0.3828  0.4841
 5503TIP3   OH237923   2.225   6.284  12.321 -0.6086 -0.5922 -0.3443
 5503TIP3    H137924   2.168   6.208  12.308 -1.6004 -0.1572  1.1977
 5503TIP3    H237925   2.184   6.354  12.270 -0.1214 -0.8754 -1.1415
 5504TIP3   OH237926   0.281   6.210   0.029 -0.0434 -0.2349  0.5059
 5504TIP3    H137927   0.278   6.304   0.047 -1.9815 -0.3459  0.9576
 5504TIP3    H237928   0.308   6.171   0.112 -0.1909 -0.1378  0.6005
 5505TIP3   OH237929   0.946   3.866   5.766  0.0224  0.2162  0.0020
 5505TIP3    H137930   0.938   3.953   5.727  1.2767  1.4221  2.2689
 5505TIP3    H237931   0.914   3.876   5.855 -0.4927 -1.8596  0.1082
 5506TIP3   OH237932   6.689   5.536   2.083 -0.2874 -0.0869  0.0733
 5506TIP3    H137933   6.652   5.585   2.156 -0.5835  3.8075 -2.3615
 5506TIP3    H237934   6.778   5.514   2.110 -1.3529 -1.6133  2.6506
 5507TIP3   OH237935   2.067   6.475   3.481 -0.1096  0.0214  0.7066
 5507TIP3    H137936   2.114   6.452   3.401 -1.3830 -2.8549  0.6347
 5507TIP3    H237937   2.122   6.539   3.525  2.1556 -0.6642 -0.9803
 5508TIP3   OH237938   2.397   5.852   1.272  0.1293  0.0495  0.2877
 5508TIP3    H137939   2.318   5.801   1.289  0.2227 -0.3871 -0.5782
 5508TIP3    H237940   2.371   5.915   1.205  0.5867 -0.2646 -0.1835
 5509TIP3   OH237941   2.458   6.145  12.432  0.7660  0.1288  0.2596
 5509TIP3    H137942   2.389   6.203  12.399 -0.5848 -0.7026  1.4877
 5509TIP3    H237943   2.428   6.057  12.412  2.4097 -0.2361 -0.8514
 5510TIP3   OH237944   3.126   5.769  14.488 -0.0359 -0.4882  0.2178
 5510TIP3    H137945   3.158   5.692  14.535 -1.2287 -0.8642  0.4404
 5510TIP3    H237946   3.066   5.734  14.422  0.0722  0.1900 -0.2510
 5511TIP3   OH237947   6.081   0.684   5.153  0.3105 -0.0827  0.4725
 5511TIP3    H137948   6.002   0.726   5.187 -0.5199 -1.7334  0.6673
 5511TIP3    H237949   6.087   0.715   5.063 -1.0611 -0.6050  0.1810
 5512TIP3   OH237950   1.817   5.336  17.250 -0.1521 -0.1884 -0.1555
 5512TIP3    H137951   1.807   5.259  17.194 -1.1424  0.3487 -0.7507
 5512TIP3    H237952   1.905   5.328  17.286  0.9027 -0.0989 -2.5216
 5513TIP3   OH237953   0.374   0.463  15.002  0.4275  0.0480 -0.0221
 5513TIP3    H137954   0.294   0.474  15.054 -0.8811 -0.6148 -1.7901
 5513TIP3    H237955   0.437   0.425  15.063 -1.3070 -1.5029  0.9267
 5514TIP3   OH237956   5.951   2.118   3.811 -0.5768 -0.0526  0.0436
 5514TIP3    H137957   5.930   2.199   3.858  1.2321  1.6059 -1.8258
 5514TIP3    H237958   5.884   2.111   3.743 -1.1051 -0.5180  0.5955
 5515TIP3   OH237959   5.936   2.023  16.868  0.1806 -0.7505 -0.1352
 5515TIP3    H137960   5.902   2.101  16.825 -4.8546 -1.2419  2.3006
 5515TIP3    H237961   5.963   1.966  16.795  0.9037  1.8668 -2.0775
 5516TIP3   OH237962   4.109   6.527  11.625 -0.1045 -0.5093 -0.2410
 5516TIP3    H137963   4.113   6.434  11.606  0.3800 -0.5222 -0.0937
 5516TIP3    H237964   4.015   6.547  11.631 -0.2858 -0.5509 -2.3894
 5517TIP3   OH237965   1.169   5.435   0.675  0.2254 -0.4691  0.2539
 5517TIP3    H137966   1.118   5.420   0.755  0.5324 -1.1650  0.3235
 5517TIP3    H237967   1.136   5.369   0.614  1.7771 -1.6466  0.6424
 5518TIP3   OH237968   2.298   6.417   0.952 -1.2159 -0.0990 -0.0664
 5518TIP3    H137969   2.390   6.401   0.930 -0.9151  1.6604 -0.2413
 5518TIP3    H237970   2.252   6.411   0.869 -1.3502 -1.3535  0.0740
 5519TIP3   OH237971   2.011   0.812   4.388  0.1261  0.5304 -0.2273
 5519TIP3    H137972   1.988   0.894   4.345 -1.8934  0.2082  0.1178
 5519TIP3    H237973   2.038   0.754   4.316 -2.2009  0.3197 -1.0220
 5520TIP3   OH237974   4.831   5.936   3.714  0.2211  0.0868  0.5252
 5520TIP3    H137975   4.787   5.863   3.759 -1.4991  1.3141  0.9444
 5520TIP3    H237976   4.879   5.981   3.783  0.1147  0.1704  0.5456
 5521TIP3   OH237977   5.679   0.577  11.607  0.9694 -1.0029  0.2284
 5521TIP3    H137978   5.615   0.514  11.575  1.4750 -1.2443 -0.3195
 5521TIP3    H237979   5.630   0.630  11.671 -0.3734  0.1676 -1.6507
 5522TIP3   OH237980   6.621   4.478  11.465  0.3529 -0.9496  0.0845
 5522TIP3    H137981   6.608   4.409  11.400  0.3644 -1.1739  0.3183
 5522TIP3    H237982   6.603   4.559  11.418  1.7242 -1.0043 -0.5938
 5523TIP3   OH237983   3.183   4.317  16.454  0.2976  0.0665  0.0939
 5523TIP3    H137984   3.210   4.233  16.418 -1.7555 -1.5115  1.9597
 5523TIP3    H237985   3.125   4.355  16.388  1.3789  0.1346 -0.8369
 5524TIP3   OH237986   3.318   4.790   3.653  0.0521  0.6021 -0.4699
 5524TIP3    H137987   3.250   4.819   3.714  1.6147  1.8381  0.7533
 5524TIP3    H237988   3.300   4.696   3.642 -1.6727  0.8284  0.0071
 5525TIP3   OH237989   6.388   0.118   5.930 -0.2878  0.8976  0.2048
 5525TIP3    H137990   6.319   0.071   5.885  0.1423  0.6590 -0.2152
 5525TIP3    H237991   6.449   0.050   5.959  0.4885  1.1929 -0.6597
 5526TIP3   OH237992   3.448   2.410   2.192 -0.3853  0.3553 -0.2572
 5526TIP3    H137993   3.502   2.449   2.123  0.1281  0.7173  0.3341
 5526TIP3    H237994   3.401   2.485   2.230 -0.2574  0.2357  0.1378
 5527TIP3   OH237995   0.000   5.488   1.012 -0.7037 -0.0265  0.0081
 5527TIP3    H137996   0.000   5.403   0.968 -0.3021  0.0169 -0.0841
 5527TIP3    H237997   0.033   5.549   0.945  0.8806 -0.1198  0.6519
 5528TIP3   OH237998   2.517   5.622  15.918 -0.2427 -0.2103 -0.2826
 5528TIP3    H137999   2.538   5.715  15.916 -1.2190  0.0275 -0.1253
 5528TIP3    H238000   2.485   5.603  15.829 -0.5453 -0.2605 -0.1670
 5529TIP3   OH238001   0.783   5.238  16.364 -0.2200 -0.2618  0.5150
 5529TIP3    H138002   0.767   5.202  16.277  0.4287  0.3156  0.1495
 5529TIP3    H238003   0.878   5.241  16.372 -0.0933  3.4656 -0.3999
 5530TIP3   OH238004   4.104   2.674   0.992 -0.1785  0.2819 -0.2239
 5530TIP3    H138005   4.194   2.705   0.991  0.2476 -0.9236 -0.9055
 5530TIP3    H238006   4.076   2.682   1.084  1.2052 -0.9508  0.3323
 5531TIP3   OH238007   1.818   1.649   4.663 -0.5213  0.2450 -0.0497
 5531TIP3    H138008   1.903   1.692   4.676 -1.0360  1.3755 -0.2419
 5531TIP3    H238009   1.798   1.609   4.748  0.4308 -0.4818 -0.1567
 5532TIP3   OH238010   4.991   5.350   3.755 -0.3590  0.8140  0.4481
 5532TIP3    H138011   5.053   5.392   3.814  1.7300 -1.0744 -0.2726
 5532TIP3    H238012   4.952   5.279   3.807 -0.5462  0.8448  0.3514
 5533TIP3   OH238013   6.215   4.605   4.699 -0.1171  0.4749 -0.2322
 5533TIP3    H138014   6.229   4.510   4.702  1.1279  0.6549  1.9805
 5533TIP3    H238015   6.302   4.643   4.713 -0.9720  1.8703  1.7612
 5534TIP3   OH238016   3.196   4.191   1.038  0.7458 -0.3920 -0.2323
 5534TIP3    H138017   3.251   4.193   0.960  1.8663 -1.4939  0.4894
 5534TIP3    H238018   3.239   4.251   1.099  1.5444 -1.7138  0.5525
 5535TIP3   OH238019   1.972   5.871   1.400 -0.7349  0.0428 -0.1705
 5535TIP3    H138020   1.963   5.866   1.495  0.2167  1.0876  0.0035
 5535TIP3    H238021   2.019   5.954   1.385  0.7155 -0.9500 -1.4257
 5536TIP3   OH238022   4.128   2.178   0.762  0.0027 -0.4757 -0.1724
 5536TIP3    H138023   4.142   2.247   0.826 -0.8656 -0.6584  0.2219
 5536TIP3    H238024   4.176   2.207   0.684 -0.3577  0.5650 -0.0135
 5537TIP3   OH238025   0.811   1.023   1.624  0.2177  0.3785  0.3654
 5537TIP3    H138026   0.847   1.054   1.541  0.2432  0.2814  0.3396
 5537TIP3    H238027   0.887   1.021   1.683  0.4654 -0.7682  0.0431
 5538TIP3   OH238028   2.855   3.795   0.070  0.2684  0.2826 -0.0387
 5538TIP3    H138029   2.901   3.723   0.112 -1.6252 -1.6648 -1.0719
 5538TIP3    H238030   2.806   3.836   0.141  2.1451  1.2665  0.7442
 5539TIP3   OH238031   4.617   2.639   3.598 -0.0285 -0.4917 -0.0754
 5539TIP3    H138032   4.558   2.589   3.541  1.8675 -1.7588 -1.0183
 5539TIP3    H238033   4.606   2.599   3.684  0.0385 -1.2841 -0.4200
 5540TIP3   OH238034   5.802   3.781  13.049  0.3259  0.5884 -0.5641
 5540TIP3    H138035   5.822   3.745  12.962  0.1547 -1.3344  0.1398
 5540TIP3    H238036   5.886   3.783  13.094  0.0046 -1.3886  0.2298
 5541TIP3   OH238037   2.463   1.057   6.171 -0.0065 -0.0293 -0.2212
 5541TIP3    H138038   2.513   0.989   6.126 -0.8004  0.6855 -2.3523
 5541TIP3    H238039   2.396   1.083   6.107 -3.4555 -1.2029  2.5546
 5542TIP3   OH238040   6.018   3.521   2.438 -0.3412 -0.1365  0.2229
 5542TIP3    H138041   6.100   3.532   2.488 -1.3606  1.7516  1.6322
 5542TIP3    H238042   5.952   3.505   2.505 -1.0702 -2.3536 -0.9558
 5543TIP3   OH238043   5.883   0.158  15.962 -0.0909  0.3449  0.1548
 5543TIP3    H138044   5.911   0.249  15.948 -1.5144  0.7498 -0.2747
 5543TIP3    H238045   5.912   0.112  15.884 -0.1391  0.6307 -0.0339
 5544TIP3   OH238046   2.730   0.686   3.441  0.2275 -0.4487  0.1300
 5544TIP3    H138047   2.778   0.759   3.401  1.7456 -1.7022 -0.4739
 5544TIP3    H238048   2.655   0.672   3.384  1.1701 -0.7867 -1.0796
 5545TIP3   OH238049   3.453   3.039   0.378  0.0108 -0.2601 -0.3850
 5545TIP3    H138050   3.459   2.948   0.350 -0.8266 -0.0041 -1.4786
 5545TIP3    H238051   3.544   3.067   0.388  0.2895 -0.9986 -0.7870
 5546TIP3   OH238052   0.578   0.031  14.706 -0.2339  0.0483 -0.2309
 5546TIP3    H138053   0.521  -0.026  14.756  0.3552  0.6118  1.1549
 5546TIP3    H238054   0.529   0.051  14.626 -1.2149 -0.8725  0.1201
 5547TIP3   OH238055   1.937   6.522  16.709  0.8774  0.7175 -0.0103
 5547TIP3    H138056   1.855   6.472  16.712  0.8898  0.5029 -1.9779
 5547TIP3    H238057   1.916   6.605  16.751  0.2291 -0.0590  1.2815
 5548TIP3   OH238058   1.509   0.058   2.443 -0.2303  0.0949  0.1082
 5548TIP3    H138059   1.504  -0.000   2.519  0.3406  1.2302  1.0558
 5548TIP3    H238060   1.540   0.141   2.479  2.0008  0.1364 -1.6431
 5549TIP3   OH238061   2.324   1.725  16.544 -0.4346  0.1557  0.5287
 5549TIP3    H138062   2.359   1.709  16.456 -1.2878  0.6084  0.0993
 5549TIP3    H238063   2.358   1.653  16.596  2.3619  1.3237  0.5020
 5550TIP3   OH238064   1.980   1.934  16.658  0.2065  0.3386  0.0973
 5550TIP3    H138065   2.068   1.937  16.697  2.0030  0.5869 -3.5870
 5550TIP3    H238066   1.961   1.841  16.646  0.8470  0.3249 -0.8559
 5551TIP3   OH238067   2.391   3.723  15.807 -0.0505  0.3430 -0.1460
 5551TIP3    H138068   2.385   3.651  15.745  0.9477 -1.2009  1.4379
 5551TIP3    H238069   2.390   3.681  15.893  2.1908  2.0398  0.8208
 5552TIP3   OH238070   5.493   0.353  17.333 -0.7231  0.2543  0.7270
 5552TIP3    H138071   5.576   0.337  17.289  0.7956 -1.5776  3.9195
 5552TIP3    H238072   5.428   0.355  17.262  1.8129  0.4407 -1.7543
 5553TIP3   OH238073   4.008   4.719  13.387 -0.1683 -0.2646  0.0700
 5553TIP3    H138074   4.029   4.730  13.294  0.2703 -3.5050 -0.3182
 5553TIP3    H238075   3.913   4.711  13.390 -0.3041  1.0814  0.1181
 5554TIP3   OH238076   2.221   4.938   5.130  0.1735 -0.7586  0.0395
 5554TIP3    H138077   2.140   4.910   5.172  0.3875  0.6449  1.5167
 5554TIP3    H238078   2.250   4.862   5.079 -0.8790 -2.0700  1.3059
 5555TIP3   OH238079   6.112   6.247   0.204  0.1384  0.4161  0.2777
 5555TIP3    H138080   6.048   6.309   0.237 -1.3381 -0.8861 -0.0201
 5555TIP3    H238081   6.126   6.186   0.277  0.0702 -0.0399 -0.0850
 5556TIP3   OH238082   2.871   5.589  11.344 -0.3950 -0.2903  0.3842
 5556TIP3    H138083   2.841   5.613  11.256 -0.2036 -1.0879  0.0906
 5556TIP3    H238084   2.959   5.553  11.330  0.4647  1.3998  1.1483
 5557TIP3   OH238085   3.849   3.279  15.887  0.1470  0.0809  0.4408
 5557TIP3    H138086   3.759   3.308  15.898  0.7200  1.7172  1.0080
 5557TIP3    H238087   3.903   3.349  15.925  1.6783 -0.6453 -0.2829
 5558TIP3   OH238088   3.868   2.293   5.526 -0.1010  0.0519  0.0001
 5558TIP3    H138089   3.850   2.217   5.581  1.0934  0.2202  0.6589
 5558TIP3    H238090   3.914   2.354   5.584 -1.2143  1.3713 -0.4578
 5559TIP3   OH238091   0.087   4.331  12.319  0.1722 -0.5395  0.1418
 5559TIP3    H138092   0.041   4.407  12.355  1.4462  0.4490 -0.2200
 5559TIP3    H238093   0.019   4.282  12.273 -0.4741  1.0468 -0.6777
 5560TIP3   OH238094   5.130   6.136   1.618  0.1614 -0.0085  0.0396
 5560TIP3    H138095   5.132   6.171   1.707  1.1401  1.8577 -0.6824
 5560TIP3    H238096   5.146   6.211   1.561 -1.2068 -1.0067 -1.7848
 5561TIP3   OH238097   0.920   5.242  14.135 -0.0635 -0.2116 -0.4827
 5561TIP3    H138098   0.920   5.288  14.052  0.0959  0.6780 -0.0044
 5561TIP3    H238099   0.836   5.266  14.175 -0.1744 -0.6988 -0.4243
 5562TIP3   OH238100   1.611   1.682   2.002  0.3178 -0.1845  0.2689
 5562TIP3    H138101   1.655   1.732   1.933  0.7501 -1.6183 -0.5260
 5562TIP3    H238102   1.520   1.713   1.999 -0.1052 -1.3824 -2.1670
 5563TIP3   OH238103   2.446   4.841  17.071  0.0194 -0.0352 -0.1001
 5563TIP3    H138104   2.448   4.795  16.987 -0.3572  1.5280 -1.0048
 5563TIP3    H238105   2.410   4.927  17.051  1.5513  1.0169  1.3614
 5564TIP3   OH238106   0.123   2.549   0.029  0.4127  0.1569  0.2680
 5564TIP3    H138107   0.219   2.547   0.037  0.4377 -0.7912 -0.1074
 5564TIP3    H238108   0.097   2.457   0.030 -0.2958  0.2836 -1.7701
 5565TIP3   OH238109   4.628   4.045  13.749  0.1076  0.3118 -0.1110
 5565TIP3    H138110   4.557   4.071  13.690 -1.4104  0.8110  1.8528
 5565TIP3    H238111   4.617   3.951  13.761 -0.0120  0.3320 -0.0668
 5566TIP3   OH238112   3.256   0.786  13.591 -0.0411 -0.3386 -0.2262
 5566TIP3    H138113   3.285   0.805  13.681  0.5317  0.5569 -0.5852
 5566TIP3    H238114   3.305   0.847  13.537 -1.5589  0.2334 -1.0089
 5567TIP3   OH238115   6.662   5.526  12.763  0.1192 -0.3827  0.0653
 5567TIP3    H138116   6.718   5.559  12.833  0.1423 -0.9737  0.3380
 5567TIP3    H238117   6.721   5.511  12.690  0.3441 -1.0952  0.3843
 5568TIP3   OH238118   3.814   1.148   5.646  0.4971 -0.0593  0.1392
 5568TIP3    H138119   3.898   1.118   5.613  0.8329  0.8436  0.1432
 5568TIP3    H238120   3.782   1.209   5.579  0.2989  0.3264  0.5770
 5569TIP3   OH238121   0.861   5.945  12.922  0.4236  0.3808  0.1618
 5569TIP3    H138122   0.811   6.002  12.980 -1.3611 -1.1025  0.1747
 5569TIP3    H238123   0.804   5.931  12.846  1.1557 -0.6958 -0.2188
 5570TIP3   OH238124   4.373   5.649  12.711  0.2712  0.0122  0.2155
 5570TIP3    H138125   4.468   5.637  12.718  0.1285 -1.0756  0.5099
 5570TIP3    H238126   4.353   5.721  12.771  1.2703  2.4413 -2.1422
 5571TIP3   OH238127   2.479   5.401  11.041  0.1022  0.0429  0.0928
 5571TIP3    H138128   2.424   5.466  10.997 -1.5565 -0.3319  1.5195
 5571TIP3    H238129   2.548   5.453  11.082  0.8261  0.5320 -1.6453
 5572TIP3   OH238130   1.140   4.678   5.976 -0.1338 -0.1815  0.8648
 5572TIP3    H138131   1.212   4.619   5.956 -0.1412  0.0359  0.1290
 5572TIP3    H238132   1.154   4.706   6.066  0.6980 -0.1484  0.7291
 5573TIP3   OH238133   6.424   1.423   6.015 -0.5266  0.5164 -0.5301
 5573TIP3    H138134   6.372   1.451   6.090 -1.0828  0.2277 -0.8000
 5573TIP3    H238135   6.397   1.333   6.000  3.2078 -1.2749  2.0384
 5574TIP3   OH238136   0.758   3.957  11.544  0.2831 -0.2073 -0.2945
 5574TIP3    H138137   0.748   3.928  11.635  2.5038  0.5721  0.2627
 5574TIP3    H238138   0.789   3.879  11.498 -1.6545 -0.8310 -0.6037
 5575TIP3   OH238139   0.982   4.332  15.770  0.2823  0.4684  0.1576
 5575TIP3    H138140   1.033   4.302  15.694 -0.1231  0.4173 -0.0950
 5575TIP3    H238141   0.927   4.257  15.793 -0.0134  0.6845  0.1471
 5576TIP3   OH238142   3.991   1.319   6.203  0.4284 -0.1400 -0.1137
 5576TIP3    H138143   4.057   1.251   6.205 -0.0705 -0.6412  2.1823
 5576TIP3    H238144   4.005   1.370   6.283 -0.5124  1.1814 -0.7284
 5577TIP3   OH238145   0.832   6.749   4.932 -0.3567 -0.3428  0.1660
 5577TIP3    H138146   0.805   6.722   5.020 -0.0347  0.8638  0.6612
 5577TIP3    H238147   0.752   6.743   4.880 -0.6652 -0.6109  0.6597
 5578TIP3   OH238148   2.507   4.157  11.660  0.2698 -0.3160  0.3666
 5578TIP3    H138149   2.444   4.187  11.595 -1.5666  0.5836  2.4296
 5578TIP3    H238150   2.455   4.108  11.724  1.8424 -0.5392  1.5600
 5579TIP3   OH238151   5.338   2.694  13.382 -0.1627  0.6726  0.2510
 5579TIP3    H138152   5.400   2.647  13.327  0.3567  1.6751 -0.0474
 5579TIP3    H238153   5.296   2.757  13.323 -2.4787 -0.8861  0.1307
 5580TIP3   OH238154   2.884   1.724  13.945 -0.4504  0.1595 -0.1659
 5580TIP3    H138155   2.887   1.796  14.008 -0.8609  0.9339 -1.0061
 5580TIP3    H238156   2.826   1.756  13.875  1.7207  0.2434 -2.0296
 5581TIP3   OH238157   0.281   3.973   4.755  0.7888  0.5398 -0.2133
 5581TIP3    H138158   0.352   3.973   4.819  0.4229 -1.4923  0.2534
 5581TIP3    H238159   0.274   3.883   4.726 -1.5652  0.6733 -0.2825
 5582TIP3   OH238160   2.673   4.433   1.741  0.3401  0.1440  0.3211
 5582TIP3    H138161   2.592   4.423   1.690  1.6412 -2.3345 -1.4308
 5582TIP3    H238162   2.733   4.479   1.682  0.4802  1.3994  1.3832
 5583TIP3   OH238163   1.267   1.933   5.613 -0.2949  0.4772 -0.0865
 5583TIP3    H138164   1.294   1.961   5.701 -0.3354 -0.5846  0.2738
 5583TIP3    H238165   1.315   1.990   5.554  2.0726 -0.7459  0.5398
 5584TIP3   OH238166   5.673   1.256   5.271 -0.5584  0.3776 -0.0210
 5584TIP3    H138167   5.730   1.180   5.258 -1.6630 -0.7521  1.3117
 5584TIP3    H238168   5.636   1.274   5.185  0.8536  0.3691 -0.6531
 5585TIP3   OH238169   5.985   1.328  14.293 -0.0901  0.6752 -0.7411
 5585TIP3    H138170   5.946   1.288  14.215 -2.0114  0.5348  0.2282
 5585TIP3    H238171   5.912   1.373  14.336  0.4103 -0.8356  1.9637
 5586TIP3   OH238172   3.617   1.884  14.340  0.4623 -0.0116 -0.6906
 5586TIP3    H138173   3.683   1.861  14.406  0.3477 -1.2460 -0.9757
 5586TIP3    H238174   3.636   1.826  14.266  0.0627  0.7649 -1.4188
 5587TIP3   OH238175   5.042   6.096  13.677  0.5912 -0.3619 -0.0964
 5587TIP3    H138176   4.981   6.024  13.664 -0.2283 -0.0347  1.6314
 5587TIP3    H238177   5.026   6.156  13.604  2.4546 -2.6112 -2.5722
 5588TIP3   OH238178   3.774   0.714   4.682 -0.0158  0.4649 -0.2168
 5588TIP3    H138179   3.836   0.680   4.618  0.2296 -1.9071  1.1250
 5588TIP3    H238180   3.805   0.802   4.703  3.5900 -0.9713  1.1281
 5589TIP3   OH238181   2.844   6.292   5.721 -0.8560 -0.3331  0.2479
 5589TIP3    H138182   2.867   6.383   5.742  1.4364 -0.6691 -0.5520
 5589TIP3    H238183   2.758   6.299   5.679 -1.7854  1.1800  2.2221
 5590TIP3   OH238184   6.024   5.094  11.174 -0.1090 -0.0108  0.8006
 5590TIP3    H138185   6.006   5.147  11.251 -1.8037  0.9061 -0.1708
 5590TIP3    H238186   6.063   5.155  11.111 -0.9822 -0.1769  0.0854
 5591TIP3   OH238187   3.307   0.211   4.039 -0.0468 -0.1163  0.3560
 5591TIP3    H138188   3.265   0.280   3.988 -1.1273 -0.3846  0.8638
 5591TIP3    H238189   3.249   0.136   4.031 -0.4469 -0.0651  2.2476
 5592TIP3   OH238190   1.711   5.214  14.985 -0.8513 -0.2168 -0.4883
 5592TIP3    H138191   1.689   5.207  15.078 -0.9047 -0.1611 -0.4961
 5592TIP3    H238192   1.771   5.142  14.969 -3.4631 -2.4177 -1.1916
 5593TIP3   OH238193   3.162   2.594  13.489  0.2766  0.3309  0.6771
 5593TIP3    H138194   3.220   2.585  13.564  0.8855 -1.3828  0.0492
 5593TIP3    H238195   3.149   2.504  13.458 -0.9598  0.8866 -0.5124
 5594TIP3   OH238196   0.895   3.809  11.958 -0.0633 -0.5661 -0.6470
 5594TIP3    H138197   0.914   3.872  12.027  0.1441 -0.2398 -0.9988
 5594TIP3    H238198   0.817   3.842  11.914 -0.5031 -1.0504 -0.2388
 5595TIP3   OH238199   6.106   5.204  14.903  0.5174 -0.4549  0.3600
 5595TIP3    H138200   6.029   5.148  14.918 -2.0334  2.2898 -1.3966
 5595TIP3    H238201   6.180   5.150  14.932 -1.9218 -3.6374  1.3360
 5596TIP3   OH238202   5.710   3.180  10.644  0.1684 -0.3418  0.2373
 5596TIP3    H138203   5.730   3.260  10.594  1.7206 -0.3035  0.8538
 5596TIP3    H238204   5.764   3.112  10.604 -2.9321 -1.7804 -1.8882
 5597TIP3   OH238205   1.606   0.731   2.359 -0.2616 -0.1896 -0.7596
 5597TIP3    H138206   1.563   0.740   2.273  0.1502 -3.0971 -1.3641
 5597TIP3    H238207   1.698   0.718   2.338 -0.2100 -1.2700  0.0956
 5598TIP3   OH238208   5.318   3.280  12.282 -0.3312  0.1454  0.1495
 5598TIP3    H138209   5.350   3.281  12.372 -0.3019 -1.6513  0.1890
 5598TIP3    H238210   5.396   3.298  12.229  0.0427 -0.6433  0.4152
 5599TIP3   OH238211   5.444   3.431  12.857 -1.3984  0.2621  0.3758
 5599TIP3    H138212   5.382   3.362  12.833 -1.3491  0.8559 -1.6055
 5599TIP3    H238213   5.389   3.507  12.876 -1.3445  0.4338 -0.1404
 5600TIP3   OH238214   3.681   1.137  14.332  0.3263  0.3394  0.9328
 5600TIP3    H138215   3.679   1.230  14.309 -0.3084  0.6821  2.2629
 5600TIP3    H238216   3.774   1.116  14.340  0.4628  0.9455  0.9635
 5601TIP3   OH238217   1.673   1.095   1.530 -0.4741  0.6138  0.0581
 5601TIP3    H138218   1.705   1.005   1.528  0.4748  0.9625 -1.2135
 5601TIP3    H238219   1.626   1.105   1.447 -0.9710  1.1670  0.4003
 5602TIP3   OH238220   3.485   4.139   1.179 -0.2515 -0.3629  0.6761
 5602TIP3    H138221   3.467   4.100   1.094  0.8610  0.2427  0.1449
 5602TIP3    H238222   3.502   4.065   1.237  0.3486 -0.7242  0.0429
 5603TIP3   OH238223   2.740   3.395  12.420 -0.2784 -1.1137  0.2295
 5603TIP3    H138224   2.778   3.455  12.484 -0.2708 -0.2752 -0.5308
 5603TIP3    H238225   2.734   3.311  12.465  3.1304 -1.5015  0.1932
 5604TIP3   OH238226   1.425   3.691  13.896  0.4046 -0.3391  0.2773
 5604TIP3    H138227   1.435   3.756  13.827  1.8550 -0.0052  0.7588
 5604TIP3    H238228   1.355   3.634  13.866  1.5666 -0.7268 -1.9005
 5605TIP3   OH238229   4.049   4.594  11.195 -0.3510 -0.2607 -0.1433
 5605TIP3    H138230   4.033   4.562  11.283  2.0236 -0.6200  0.2236
 5605TIP3    H238231   4.111   4.666  11.207  0.3418 -0.5972 -1.5390
 5606TIP3   OH238232   6.502   3.520   2.179 -0.0317  0.1258 -0.5727
 5606TIP3    H138233   6.589   3.560   2.181  0.6750 -1.3609  0.0706
 5606TIP3    H238234   6.515   3.433   2.218 -1.5274 -0.6626 -1.7522
 5607TIP3   OH238235   3.567   1.103  15.659 -0.5957  0.0335 -0.3046
 5607TIP3    H138236   3.600   1.176  15.608 -1.4161 -0.1142 -1.0815
 5607TIP3    H238237   3.615   1.027  15.627  1.8524  0.4631  2.0059
 5608TIP3   OH238238   4.294   1.122  12.919  1.1013 -0.0538  0.0038
 5608TIP3    H138239   4.262   1.155  13.003  1.1915  0.3162 -0.1030
 5608TIP3    H238240   4.232   1.053  12.895  0.3793  0.6370 -0.1897
 5609TIP3   OH238241   5.147   1.705  15.792 -1.0494 -0.1081 -0.1153
 5609TIP3    H138242   5.206   1.632  15.776 -1.8633 -0.4149 -2.0335
 5609TIP3    H238243   5.059   1.666  15.794 -1.3375  0.5605  0.8831
 5610TIP3   OH238244   1.912   2.046  11.572  0.1439  0.1314 -0.2138
 5610TIP3    H138245   1.872   2.132  11.560  0.1100  0.0420 -0.7406
 5610TIP3    H238246   1.930   2.041  11.666 -1.1699  0.1336  0.0470
 5611TIP3   OH238247   5.363   4.721  12.156 -0.1504 -0.1733 -0.5211
 5611TIP3    H138248   5.269   4.733  12.160 -0.0378  0.5273  0.3177
 5611TIP3    H238249   5.398   4.809  12.138  0.3300 -0.4606 -1.0411
 5612TIP3   OH238250   2.104   0.620  16.167  0.1162 -0.1456 -0.4215
 5612TIP3    H138251   2.034   0.557  16.149 -0.6307  0.5767 -0.1260
 5612TIP3    H238252   2.093   0.687  16.100  3.0702 -1.9696 -2.9737
 5613TIP3   OH238253   0.947   6.331   2.403 -0.5438 -0.1712 -0.0882
 5613TIP3    H138254   0.894   6.362   2.476 -0.4730 -0.8166  0.2411
 5613TIP3    H238255   0.884   6.299   2.339 -0.6798  1.7023 -0.9402
 5614TIP3   OH238256   1.595   0.275   5.837 -0.1833 -0.5487 -0.0661
 5614TIP3    H138257   1.671   0.301   5.784  1.0706 -2.6853  0.5414
 5614TIP3    H238258   1.627   0.276   5.927 -0.2588 -3.1713  0.0670
 5615TIP3   OH238259   6.749   4.814   1.344 -0.1115 -0.2374  0.0367
 5615TIP3    H138260   6.673   4.852   1.299  0.2715  0.3644 -0.1110
 5615TIP3    H238261   6.816   4.882   1.340  0.4443 -0.7703  0.1560
 5616TIP3   OH238262   0.586   6.730   2.124 -0.0263  0.2609 -0.9200
 5616TIP3    H138263   0.562   6.818   2.155  0.1137 -0.2637  0.8038
 5616TIP3    H238264   0.667   6.710   2.171 -1.5096 -1.8620  0.9387
 5617TIP3   OH238265   5.525   1.305  15.861  0.8628  0.1725  0.0076
 5617TIP3    H138266   5.512   1.281  15.953  1.6188 -0.0911  0.0491
 5617TIP3    H238267   5.584   1.238  15.827  0.7133  0.3623 -0.6303
 5618TIP3   OH238268   4.410   5.291   0.070  0.0449 -0.0477 -0.3520
 5618TIP3    H138269   4.358   5.249   0.138  1.5410 -0.4655  0.5632
 5618TIP3    H238270   4.442   5.219   0.015 -1.6844  0.3207 -1.9584
 5619TIP3   OH238271   5.809   2.984   1.920 -0.3089 -0.3503 -0.5748
 5619TIP3    H138272   5.820   3.072   1.882  0.3515 -0.3173 -0.3037
 5619TIP3    H238273   5.771   3.000   2.006  3.2146 -0.0363  1.0906
 5620TIP3   OH238274   4.398   6.008  14.177  0.6300  0.2265 -0.2644
 5620TIP3    H138275   4.397   6.008  14.081 -0.2300 -1.9011 -0.3191
 5620TIP3    H238276   4.395   6.101  14.201  1.1271  0.8207 -2.2764
 5621TIP3   OH238277   1.010   6.645  14.018 -0.3883 -0.1008 -0.5321
 5621TIP3    H138278   1.038   6.718  14.073  1.3145 -0.1889 -1.2085
 5621TIP3    H238279   1.011   6.680  13.929 -0.6244 -0.6477 -0.7543
 5622TIP3   OH238280   4.052   1.377  11.541  0.2157 -0.3214  0.1339
 5622TIP3    H138281   4.097   1.418  11.467  0.5968 -1.3512 -0.2176
 5622TIP3    H238282   4.039   1.286  11.515 -0.8613 -0.3825  0.7905
 5623TIP3   OH238283   5.098   5.660  11.223  0.2345 -0.3582 -0.1306
 5623TIP3    H138284   5.116   5.747  11.189  1.0610 -1.0447 -1.5433
 5623TIP3    H238285   5.141   5.658  11.309 -0.7549  0.9700  0.4340
 5624TIP3   OH238286   2.617   0.410  13.306 -0.0662  0.0579 -0.0897
 5624TIP3    H138287   2.555   0.452  13.366 -0.2415 -0.0071 -0.2269
 5624TIP3    H238288   2.675   0.360  13.364 -1.0640 -1.1017 -0.0598
 5625TIP3   OH238289   4.034   3.936   4.184 -0.4277  0.4548  0.0705
 5625TIP3    H138290   3.941   3.953   4.170 -0.3411  1.5833  0.7730
 5625TIP3    H238291   4.046   3.942   4.279  0.3099 -0.0165  0.0171
 5626TIP3   OH238292   0.660   0.263   1.384  0.5979  0.2551  0.3827
 5626TIP3    H138293   0.727   0.297   1.444  1.8527 -0.1035 -0.7722
 5626TIP3    H238294   0.705   0.195   1.334 -0.9192 -0.7052  0.2573
 5627TIP3   OH238295   2.354   2.240  13.515  0.5520  0.5033 -0.1912
 5627TIP3    H138296   2.358   2.176  13.586 -3.2671  0.5794  0.3183
 5627TIP3    H238297   2.351   2.187  13.435 -0.4463  0.0898  0.1013
 5628TIP3   OH238298   0.026   4.374  15.888  0.2004  0.1161  0.2706
 5628TIP3    H138299   0.028   4.318  15.811  1.0042  1.4996 -0.7683
 5628TIP3    H238300   0.099   4.343  15.942  1.9273  1.3247 -1.2264
 5629TIP3   OH238301   0.215   6.342   2.244 -0.4806 -0.2403 -0.1213
 5629TIP3    H138302   0.132   6.320   2.203  0.0993 -0.0848 -1.4231
 5629TIP3    H238303   0.281   6.306   2.186  0.3853  0.1130  0.6070
 5630TIP3   OH238304   3.006   1.121  14.214 -0.1926  0.2781 -0.7178
 5630TIP3    H138305   3.020   1.200  14.160  2.4452  1.3829  1.3700
 5630TIP3    H238306   2.988   1.155  14.302 -3.1657 -1.4975 -0.5076
 5631TIP3   OH238307   5.820   0.343   4.786  0.0401 -0.6744  0.4605
 5631TIP3    H138308   5.740   0.342   4.734  0.7914  0.1286 -0.7755
 5631TIP3    H238309   5.830   0.435   4.813  0.8258 -0.6485  0.1233
 5632TIP3   OH238310   6.008   2.648  14.928 -0.0083  0.4602  0.3999
 5632TIP3    H138311   5.965   2.725  14.889 -2.6954 -0.1601  1.9010
 5632TIP3    H238312   5.993   2.578  14.865 -1.6013  0.1760  1.0488
 5633TIP3   OH238313   4.359   0.808   5.466  0.5957  0.0685 -0.1401
 5633TIP3    H138314   4.324   0.842   5.384  0.6648 -0.3457 -0.3388
 5633TIP3    H238315   4.417   0.737   5.441  0.0525 -0.5472  0.3109
 5634TIP3   OH238316   1.008   0.353   1.788 -0.9919 -0.2356 -0.2634
 5634TIP3    H138317   0.935   0.348   1.851 -0.4035 -0.0124  0.4472
 5634TIP3    H238318   1.078   0.302   1.828 -0.8454 -0.6816 -1.0756
 5635TIP3   OH238319   1.573   1.906  16.398 -0.3799 -0.4060 -0.3006
 5635TIP3    H138320   1.500   1.965  16.417  0.7646  0.8829  0.2262
 5635TIP3    H238321   1.612   1.888  16.483  0.4751 -0.3321 -0.6660
 5636TIP3   OH238322   0.189   2.707  12.334 -0.0060 -0.0132  0.3699
 5636TIP3    H138323   0.284   2.711  12.321  0.0015  0.2880  0.4923
 5636TIP3    H238324   0.157   2.654  12.262  0.2965 -0.4211  0.5322
 5637TIP3   OH238325   4.903   1.846   4.085  0.2172  0.5033 -0.0802
 5637TIP3    H138326   4.945   1.887   4.010  0.1939 -0.1985 -0.4865
 5637TIP3    H238327   4.960   1.866   4.159 -0.2178  1.9528 -0.1117
 5638TIP3   OH238328   1.219   2.257   2.826 -0.0085  0.8279 -0.5578
 5638TIP3    H138329   1.216   2.216   2.912  1.6150  0.1376 -0.7936
 5638TIP3    H238330   1.264   2.193   2.771 -2.0001  0.7550 -2.2286
 5639TIP3   OH238331   6.253   4.781  15.225  0.2209  0.3524 -0.4250
 5639TIP3    H138332   6.243   4.866  15.269 -0.4816  0.2365 -0.3454
 5639TIP3    H238333   6.199   4.721  15.276  0.5910 -0.1150 -0.5709
 5640TIP3   OH238334   1.463   4.717   5.935  0.0451  0.1720 -0.4120
 5640TIP3    H138335   1.527   4.781   5.906 -0.2476  2.1200  2.8055
 5640TIP3    H238336   1.468   4.719   6.030 -2.6400 -1.8842 -0.0986
 5641TIP3   OH238337   4.191   4.668  17.376  0.3406 -0.2430  0.2861
 5641TIP3    H138338   4.267   4.668  17.434  0.6176  0.5497 -0.0521
 5641TIP3    H238339   4.224   4.705  17.293 -0.0358 -1.3936 -0.3979
 5642TIP3   OH238340   4.160   4.564  16.415 -0.3187  0.3037  0.4397
 5642TIP3    H138341   4.255   4.567  16.414 -0.2093  2.0172  3.3259
 5642TIP3    H238342   4.137   4.494  16.354  2.7744 -0.4795  0.0153
 5643TIP3   OH238343   4.872   5.867  13.671  0.3680 -0.3776  0.0693
 5643TIP3    H138344   4.837   5.789  13.629  1.4833 -0.9879  0.2222
 5643TIP3    H238345   4.925   5.834  13.744 -1.2009  0.6425  1.7618
 5644TIP3   OH238346   3.738   1.160  13.773  0.0306  1.1564  0.6261
 5644TIP3    H138347   3.804   1.230  13.765  0.9897  0.2233  0.1609
 5644TIP3    H238348   3.655   1.204  13.753  0.8147  1.8290 -1.4871
 5645TIP3   OH238349   1.194   5.314  11.636  0.3305 -0.2155 -0.2126
 5645TIP3    H138350   1.105   5.332  11.666  0.1841 -0.7414 -0.3204
 5645TIP3    H238351   1.201   5.219  11.637  1.1066 -0.1612  0.4112
 5646TIP3   OH238352   4.844   2.243  14.437  0.0550 -0.3661 -0.0110
 5646TIP3    H138353   4.843   2.195  14.520  0.4259  0.2045  0.3270
 5646TIP3    H238354   4.768   2.301  14.442  1.1272  1.0444  0.7668
 5647TIP3   OH238355   2.938   3.045   1.918 -0.1890  0.2241  0.2110
 5647TIP3    H138356   2.896   2.998   1.846  0.7071  0.7934 -0.7340
 5647TIP3    H238357   2.874   3.111   1.945 -1.3047 -1.2383  1.2935
 5648TIP3   OH238358   2.863   4.615  15.531  0.0352 -0.2667  0.3904
 5648TIP3    H138359   2.920   4.685  15.562  0.8622 -0.3268 -0.9170
 5648TIP3    H238360   2.921   4.555  15.484 -1.0521 -0.4245 -0.8131
 5649TIP3   OH238361   1.040   0.707  14.196 -0.4190 -0.5087  0.2360
 5649TIP3    H138362   1.093   0.773  14.152  0.8462 -0.6509  1.5162
 5649TIP3    H238363   1.089   0.625  14.186 -0.8607 -0.8298  0.6435
 5650TIP3   OH238364   6.511   1.268  13.685  0.1680 -0.8499 -0.5644
 5650TIP3    H138365   6.603   1.256  13.705  0.1144  0.0078  0.2669
 5650TIP3    H238366   6.471   1.290  13.769 -0.6073 -0.1515 -1.1071
 5651TIP3   OH238367   5.620   4.188   1.129 -0.6232 -0.0364  0.8807
 5651TIP3    H138368   5.649   4.279   1.119 -1.1640 -0.0267 -0.8058
 5651TIP3    H238369   5.605   4.178   1.223  1.1313  1.0814  1.3265
 5652TIP3   OH238370   2.527   1.529  16.798 -0.9026 -0.4174  0.0460
 5652TIP3    H138371   2.504   1.497  16.710 -1.0329 -0.6740  0.1701
 5652TIP3    H238372   2.613   1.570  16.787 -0.5750 -1.1180 -0.0514
 5653TIP3   OH238373   4.862   5.531  15.106 -0.2947 -0.4348  0.4280
 5653TIP3    H138374   4.813   5.562  15.182 -0.4532  0.5528 -0.0700
 5653TIP3    H238375   4.798   5.530  15.035 -0.7404 -3.4604  0.7331
 5654TIP3   OH238376   1.208   5.595   0.053  0.1236 -0.0230 -0.1442
 5654TIP3    H138377   1.302   5.614   0.054  0.2142 -0.4565  0.0153
 5654TIP3    H238378   1.200   5.520  -0.006  0.0489 -0.7879  0.8133
 5655TIP3   OH238379   4.749   0.222   6.785  0.1885 -0.0798  0.3704
 5655TIP3    H138380   4.699   0.298   6.756  1.9381  0.4960 -1.3809
 5655TIP3    H238381   4.840   0.250   6.779  0.9118 -2.4973 -0.9367
 5656TIP3   OH238382   5.215   3.224   3.228 -0.0817  0.1639 -0.6510
 5656TIP3    H138383   5.242   3.155   3.288 -0.8387  0.1798 -0.2786
 5656TIP3    H238384   5.124   3.203   3.207 -0.0176  0.5036 -1.3116
 5657TIP3   OH238385   0.843   0.983  12.577  0.0580  0.2017 -0.3092
 5657TIP3    H138386   0.772   0.919  12.580 -2.6494  2.9854 -0.3092
 5657TIP3    H238387   0.896   0.957  12.502  0.0379 -2.8508  0.6033
 5658TIP3   OH238388   5.832   5.889  14.135  0.6662  0.8251 -0.3937
 5658TIP3    H138389   5.753   5.841  14.158  1.0253  0.2817 -0.2562
 5658TIP3    H238390   5.904   5.830  14.160  1.1286  1.5759  0.0806
 5659TIP3   OH238391   0.304   0.052  11.905 -0.0057 -0.1935 -0.0911
 5659TIP3    H138392   0.387   0.100  11.911  1.3960 -2.6156  1.3225
 5659TIP3    H238393   0.281   0.033  11.996 -1.2124 -1.0300 -0.5483
 5660TIP3   OH238394   2.875   3.731  15.995  0.5223  0.5160 -0.5191
 5660TIP3    H138395   2.943   3.791  15.964 -0.3149  3.4767  2.7868
 5660TIP3    H238396   2.799   3.786  16.011 -1.1447 -1.8767  0.4132
 5661TIP3   OH238397   4.826   6.198  15.147  0.2634  0.0441 -0.1027
 5661TIP3    H138398   4.792   6.179  15.234  0.1661 -0.4151 -0.2382
 5661TIP3    H238399   4.892   6.129  15.132  1.5964  1.1736  0.3421
 5662TIP3   OH238400   0.955   3.565   6.895 -0.2407 -0.1820  0.0793
 5662TIP3    H138401   1.044   3.598   6.905 -0.6127  0.1055  3.1409
 5662TIP3    H238402   0.957   3.478   6.933 -0.8712 -1.0317 -1.7008
 5663TIP3   OH238403   3.823   2.689  15.173 -0.1313 -0.1388  0.2362
 5663TIP3    H138404   3.810   2.706  15.266 -0.6776  0.1496  0.1164
 5663TIP3    H238405   3.815   2.595  15.163 -3.2379  0.0514  0.0488
 5664TIP3   OH238406   3.513   4.426   2.702  0.4197  0.8223  0.3262
 5664TIP3    H138407   3.464   4.361   2.654  1.2715  0.2752  0.1719
 5664TIP3    H238408   3.527   4.497   2.640  0.4721  0.6474  0.1379
 5665TIP3   OH238409   6.221   2.355   2.313 -0.0344  0.8306 -0.1205
 5665TIP3    H138410   6.198   2.283   2.254  2.1789  0.7743 -1.0178
 5665TIP3    H238411   6.193   2.325   2.400 -3.0042  0.7521 -1.0021
 5666TIP3   OH238412   3.895   4.078   2.823 -0.1743 -0.5757 -0.5053
 5666TIP3    H138413   3.836   4.154   2.826 -1.0051 -1.2282 -0.1192
 5666TIP3    H238414   3.888   4.039   2.910  1.5128 -0.1768 -0.1502
 5667TIP3   OH238415   5.390   1.533   4.643  0.2534  0.2914  0.3948
 5667TIP3    H138416   5.407   1.624   4.668 -0.3912  0.8914 -1.2289
 5667TIP3    H238417   5.375   1.536   4.549  3.1719 -1.9678 -0.2605
 5668TIP3   OH238418   6.049   4.367   1.341  0.2313  0.3149  0.1319
 5668TIP3    H138419   5.963   4.358   1.383  1.3050 -4.1963  1.9764
 5668TIP3    H238420   6.111   4.369   1.414  1.9128 -2.6271 -1.0544
 5669TIP3   OH238421   4.514   3.717  11.843 -0.3822  0.1060  0.5514
 5669TIP3    H138422   4.526   3.682  11.755 -0.1543 -0.0083  0.6283
 5669TIP3    H238423   4.542   3.808  11.837  1.1415 -0.3167  0.8762
 5670TIP3   OH238424   4.677   1.577   0.335 -0.0811 -0.1205  0.0004
 5670TIP3    H138425   4.770   1.600   0.336  0.2472 -1.3558 -0.3859
 5670TIP3    H238426   4.676   1.482   0.323 -1.4093 -0.0402 -0.6487
 5671TIP3   OH238427   6.043   4.146   1.625 -0.3012 -0.7462 -0.4014
 5671TIP3    H138428   6.066   4.113   1.712  0.8174  3.0503  0.9467
 5671TIP3    H238429   6.120   4.128   1.571 -0.2911 -1.5436 -0.1283
 5672TIP3   OH238430   6.735   5.233  11.493 -0.4611 -0.1239 -0.2100
 5672TIP3    H138431   6.741   5.147  11.534 -3.5195  0.2436  1.3219
 5672TIP3    H238432   6.679   5.219  11.416 -0.8623  0.4551 -0.0280
 5673TIP3   OH238433   4.649   2.396  16.150 -0.3054 -0.0575  0.0499
 5673TIP3    H138434   4.577   2.369  16.092 -1.5092  0.4508  1.2726
 5673TIP3    H238435   4.659   2.323  16.211 -1.3326  0.7799  1.2814
 5674TIP3   OH238436   1.999   5.117  16.504 -0.1287  0.2548 -0.0201
 5674TIP3    H138437   1.974   5.185  16.567 -1.1429  0.7119 -0.8711
 5674TIP3    H238438   1.951   5.039  16.533  0.3121  0.1492  0.4300
 5675TIP3   OH238439   2.116   1.307   6.236 -0.2867 -0.7160 -0.1158
 5675TIP3    H138440   2.099   1.378   6.174  0.4521  0.5910  1.1226
 5675TIP3    H238441   2.120   1.228   6.182 -0.5431  0.2570 -1.6084
 5676TIP3   OH238442   4.624   5.273  16.475 -0.7421 -0.3714  0.4002
 5676TIP3    H138443   4.663   5.352  16.436 -1.4119  1.2858  2.8725
 5676TIP3    H238444   4.699   5.225  16.510 -0.4468 -0.1720  0.0558
 5677TIP3   OH238445   2.490   4.444   3.056 -0.6292 -0.2896  0.1968
 5677TIP3    H138446   2.424   4.435   3.125 -0.2211 -1.6883  0.4353
 5677TIP3    H238447   2.473   4.371   2.997  0.5790 -0.5626  0.1666
 5678TIP3   OH238448   6.741   1.679  11.858 -0.4071  0.0131  0.3713
 5678TIP3    H138449   6.696   1.689  11.775  0.1670  2.1815  0.2651
 5678TIP3    H238450   6.822   1.632  11.836 -0.4379  0.2412 -0.2422
 5679TIP3   OH238451   4.661   6.047  14.372 -0.2826  0.3027 -0.0310
 5679TIP3    H138452   4.706   6.128  14.395  1.4859 -0.4662 -0.5730
 5679TIP3    H238453   4.582   6.075  14.326 -0.5294  1.7212  1.1967
 5680TIP3   OH238454   5.429   1.358  17.291 -0.4750 -0.9148 -0.3201
 5680TIP3    H138455   5.421   1.303  17.213 -0.8049 -0.9135 -0.2850
 5680TIP3    H238456   5.518   1.393  17.285 -1.4973  1.7209 -2.4331
 5681TIP3   OH238457   6.688   5.923  15.961 -0.2503  0.3318 -1.5899
 5681TIP3    H138458   6.724   6.008  15.987  0.6788 -0.2676 -0.8299
 5681TIP3    H238459   6.697   5.921  15.866  1.1003  0.5110 -1.4869
 5682TIP3   OH238460   3.920   1.900   3.534  0.2729 -0.3885  0.2235
 5682TIP3    H138461   3.973   1.952   3.594 -0.7375  2.1847 -0.9271
 5682TIP3    H238462   3.831   1.906   3.570 -0.4733  1.7795 -1.7296
 5683TIP3   OH238463   4.275   0.745  14.802 -0.0662 -0.8826  0.4638
 5683TIP3    H138464   4.274   0.800  14.724 -0.3647 -1.5239  0.0035
 5683TIP3    H238465   4.190   0.761  14.844  0.1560 -0.4251  0.7329
 5684TIP3   OH238466   3.205   1.570   4.543 -0.3970 -0.3869 -0.1490
 5684TIP3    H138467   3.117   1.604   4.529 -0.2127  0.6243  0.9461
 5684TIP3    H238468   3.200   1.478   4.516 -1.4915 -0.0687 -1.1002
 5685TIP3   OH238469   1.771   3.437   2.573 -0.2669 -0.2518 -0.1681
 5685TIP3    H138470   1.759   3.346   2.548 -0.0611 -0.0668 -0.9892
 5685TIP3    H238471   1.731   3.487   2.501  1.4568  0.3223 -0.7880
 5686TIP3   OH238472   4.092   1.686   4.483  0.5717  0.2684 -0.1462
 5686TIP3    H138473   4.166   1.632   4.456 -0.5566 -2.1530  1.3607
 5686TIP3    H238474   4.021   1.624   4.499 -1.4404  2.3971 -0.3004
 5687TIP3   OH238475   4.502   0.531   4.612  0.0354  0.6486 -0.1481
 5687TIP3    H138476   4.520   0.437   4.610 -0.5203  0.5380 -1.9732
 5687TIP3    H238477   4.584   0.571   4.586 -0.1922  0.5448 -1.0830
 5688TIP3   OH238478   4.064   6.567  16.481  0.4277  0.0011  0.2168
 5688TIP3    H138479   4.059   6.532  16.393 -0.6115  2.8041 -0.9466
 5688TIP3    H238480   3.973   6.569  16.512  0.4650  1.2774  0.3361
 5689TIP3   OH238481   3.580   1.697   3.474 -0.1831 -0.2270  0.0376
 5689TIP3    H138482   3.607   1.731   3.559  0.1844 -0.4122 -0.0032
 5689TIP3    H238483   3.636   1.621   3.460  1.0157  0.8277 -1.1753
 5690TIP3   OH238484   3.830   4.902  13.889 -0.4016 -1.0429 -0.5413
 5690TIP3    H138485   3.777   4.968  13.935 -0.3326 -0.7452 -0.8838
 5690TIP3    H238486   3.824   4.824  13.944 -0.6548 -0.8126 -0.2365
 5691TIP3   OH238487   2.958   5.039  16.513 -0.4223 -0.6983  0.6155
 5691TIP3    H138488   3.015   5.040  16.437 -0.9636 -1.7861  0.1719
 5691TIP3    H238489   2.938   4.947  16.527 -0.0181 -0.5667  2.3317
 5692TIP3   OH238490   0.672   5.682   3.164  0.6996 -0.0842 -0.6244
 5692TIP3    H138491   0.600   5.698   3.226  1.2993 -1.7158  0.5456
 5692TIP3    H238492   0.724   5.762   3.167 -0.4401  0.6916 -0.6620
 5693TIP3   OH238493   0.666   3.258   4.377  0.1202 -0.0411 -0.2270
 5693TIP3    H138494   0.623   3.320   4.435  1.6989  0.2073  0.7493
 5693TIP3    H238495   0.608   3.182   4.376  1.9553 -2.0303  5.4747
 5694TIP3   OH238496   3.717   3.337  11.628  0.0563 -0.2579  0.3081
 5694TIP3    H138497   3.697   3.431  11.631 -1.2014 -0.5267  1.2629
 5694TIP3    H238498   3.805   3.333  11.592 -0.3792  1.2098 -1.0569
 5695TIP3   OH238499   2.483   0.569   0.089  0.5181 -0.3264  0.0968
 5695TIP3    H138500   2.552   0.606   0.034  0.3110 -1.2341 -0.8008
 5695TIP3    H238501   2.432   0.514   0.030 -1.6807  1.1988  0.4960
 5696TIP3   OH238502   1.540   1.752   1.139 -0.0152  0.6414 -0.4318
 5696TIP3    H138503   1.527   1.663   1.108  0.0919  0.5520 -0.2230
 5696TIP3    H238504   1.522   1.747   1.233  0.4078  0.7524 -0.3427
 5697TIP3   OH238505   1.179   5.463  12.875  0.5800 -0.2474  0.4569
 5697TIP3    H138506   1.253   5.470  12.935  0.9929  0.1519 -0.0914
 5697TIP3    H238507   1.202   5.519  12.800  0.4656 -1.3915 -0.4711
 5698TIP3   OH238508   3.515   6.233   0.042 -0.0604 -0.1923  0.3926
 5698TIP3    H138509   3.502   6.241   0.136 -0.5835  1.1896  0.2199
 5698TIP3    H238510   3.438   6.275   0.003  0.7518  0.3898 -0.6470
 5699TIP3   OH238511   2.529   5.922  12.962  0.5695 -0.4616 -0.0721
 5699TIP3    H138512   2.482   5.929  12.879 -0.4093 -0.8561  0.4406
 5699TIP3    H238513   2.462   5.935  13.029  1.6441  1.6945  0.6735
 5700TIP3   OH238514   3.698   1.412  10.927  0.0976  0.0040 -0.7072
 5700TIP3    H138515   3.699   1.492  10.979  1.8185  0.3687 -1.2352
 5700TIP3    H238516   3.648   1.434  10.849  1.8710  1.1053 -1.5899
 5701TIP3   OH238517   4.458   2.144   3.720  0.4435  0.0418  0.8297
 5701TIP3    H138518   4.540   2.096   3.718  1.0822  1.1044  0.7231
 5701TIP3    H238519   4.423   2.136   3.631  1.9236  2.0195 -0.0217
 5702TIP3   OH238520   3.830   5.201  12.517  0.2970 -0.2642  0.0189
 5702TIP3    H138521   3.800   5.161  12.435  1.2669  0.2445 -0.6005
 5702TIP3    H238522   3.849   5.292  12.493  2.5495 -0.6172  0.3023
 5703TIP3   OH238523   5.801   2.902  15.095 -0.4700 -0.6132  0.3716
 5703TIP3    H138524   5.812   2.881  15.002 -1.1661 -2.9784  0.7351
 5703TIP3    H238525   5.739   2.975  15.097  0.4855  0.2548 -1.0432
 5704TIP3   OH238526   6.712   4.592   1.753 -0.3974 -0.2118  0.3106
 5704TIP3    H138527   6.687   4.503   1.778 -0.5591 -0.1836  0.2517
 5704TIP3    H238528   6.664   4.649   1.814  0.8451 -0.2062  1.3111
 5705TIP3   OH238529   0.867   4.171   2.874  0.1959 -0.0738  0.1835
 5705TIP3    H138530   0.855   4.219   2.792 -0.0641  1.9766  1.3456
 5705TIP3    H238531   0.779   4.153   2.905  0.2748  0.2350  0.5956
 5706TIP3   OH238532   2.061   0.768   3.963 -0.0897 -0.6545 -0.1320
 5706TIP3    H138533   1.987   0.828   3.951 -0.9662 -1.3527  1.4139
 5706TIP3    H238534   2.075   0.766   4.058  3.7296  1.5026 -0.4431
 5707TIP3   OH238535   0.625   5.087  14.458 -0.6916 -0.2593 -0.1871
 5707TIP3    H138536   0.686   5.079  14.384 -0.8743 -1.1570 -0.2577
 5707TIP3    H238537   0.680   5.072  14.535 -0.8254 -1.1654 -0.2561
 5708TIP3   OH238538   1.502   1.262   1.757  0.8918 -0.3671  0.2132
 5708TIP3    H138539   1.526   1.352   1.776  2.6291 -0.3097 -1.8912
 5708TIP3    H238540   1.547   1.241   1.675 -0.1493 -2.8750  0.1705
 5709TIP3   OH238541   4.209   0.644  11.628 -0.0925 -0.5869  0.1022
 5709TIP3    H138542   4.151   0.679  11.695  0.4220  2.0761 -0.7273
 5709TIP3    H238543   4.168   0.668  11.545  2.2872  1.7932 -0.5159
 5710TIP3   OH238544   2.861   3.685  14.981 -0.0900 -0.3796  0.4471
 5710TIP3    H138545   2.814   3.767  14.997 -1.7054 -0.9869 -0.8798
 5710TIP3    H238546   2.811   3.619  15.029  2.1197 -0.4545  2.8641
 5711TIP3   OH238547   2.686   1.071  17.142  0.6389  0.4241 -0.8503
 5711TIP3    H138548   2.649   1.102  17.225  0.9288  2.4856 -1.4534
 5711TIP3    H238549   2.705   0.978  17.158 -1.9427  0.0213  0.4530
 5712TIP3   OH238550   5.197   2.040   4.883 -0.1325 -0.2269  0.0034
 5712TIP3    H138551   5.187   2.088   4.965  0.9445  1.2012 -0.6703
 5712TIP3    H238552   5.291   2.042   4.866 -0.4712  0.6589 -1.9458
 5713TIP3   OH238553   1.134   2.978   1.603  0.5185 -0.0909  0.0857
 5713TIP3    H138554   1.057   2.929   1.575  0.2512  0.1679  0.3601
 5713TIP3    H238555   1.134   2.971   1.699  1.6905 -1.3726  0.0304
 5714TIP3   OH238556   4.827   0.983  10.821  0.7400 -0.3304  0.0019
 5714TIP3    H138557   4.885   0.959  10.893  0.1472 -2.2014 -0.0647
 5714TIP3    H238558   4.849   1.073  10.800  1.4697  0.0043  1.9991
 5715TIP3   OH238559   2.721   1.721  16.713  0.3702 -0.0550  0.6349
 5715TIP3    H138560   2.743   1.682  16.628  0.2366  1.2554 -0.0388
 5715TIP3    H238561   2.794   1.781  16.731 -0.9446  1.8533 -0.0156
 5716TIP3   OH238562   4.382   0.382   5.796 -0.5786  0.1425 -0.3526
 5716TIP3    H138563   4.449   0.443   5.765 -2.4924  1.1680 -2.8145
 5716TIP3    H238564   4.381   0.395   5.891  3.2910 -0.6660 -0.0142
 5717TIP3   OH238565   6.430   3.966  13.062  0.3637 -0.3160  0.4951
 5717TIP3    H138566   6.338   3.963  13.035  0.3393  1.1814  0.3034
 5717TIP3    H238567   6.428   3.953  13.157 -0.2256  1.1967  0.7254
 5718TIP3   OH238568   4.313   3.233  13.705  0.1195 -0.4481  0.0958
 5718TIP3    H138569   4.294   3.166  13.771 -2.1720  1.4541  1.5144
 5718TIP3    H238570   4.228   3.253  13.666  1.0231  0.4235 -1.5366
 5719TIP3   OH238571   5.150   3.888   3.626  0.0875  0.2940  0.1576
 5719TIP3    H138572   5.071   3.909   3.676 -0.1676  1.3379 -0.6601
 5719TIP3    H238573   5.125   3.899   3.535  0.6214 -1.3365 -0.2305
 5720TIP3   OH238574   6.233   5.620   3.113  0.1469  0.1679  1.0229
 5720TIP3    H138575   6.141   5.634   3.089  0.8158  1.5240 -1.0091
 5720TIP3    H238576   6.253   5.532   3.082 -0.3719 -0.0023  1.1648
 5721TIP3   OH238577   5.336   3.621  12.637  0.3386 -0.2707  0.5392
 5721TIP3    H138578   5.417   3.640  12.684  0.0706 -0.9634  1.3145
 5721TIP3    H238579   5.355   3.645  12.546  2.3799 -2.9185  0.1119
 5722TIP3   OH238580   0.190   5.357  13.582  0.3418  0.3749 -0.4213
 5722TIP3    H138581   0.272   5.329  13.542 -0.2690 -0.4786 -1.1014
 5722TIP3    H238582   0.210   5.443  13.620  1.5934  0.0956 -0.4054
 5723TIP3   OH238583   6.393   4.938   0.195  0.5102  0.1161 -0.3757
 5723TIP3    H138584   6.319   4.880   0.176 -0.3408  0.2740  2.1080
 5723TIP3    H238585   6.470   4.884   0.174 -0.2755 -1.3120  0.2296
 5724TIP3   OH238586   6.430   4.686   1.121  0.3167 -0.5982  0.8498
 5724TIP3    H138587   6.431   4.695   1.217  0.1188 -1.4531  0.9437
 5724TIP3    H238588   6.475   4.603   1.105  3.5249  1.1343 -0.0310
 5725TIP3   OH238589   0.417   1.562   2.187 -0.6217 -0.3156  0.0886
 5725TIP3    H138590   0.416   1.548   2.093  1.2559 -0.9046  0.1209
 5725TIP3    H238591   0.350   1.503   2.221 -1.1242 -0.2966 -0.8489
 5726TIP3   OH238592   4.877   4.417   0.802 -0.1690 -0.5270 -0.1024
 5726TIP3    H138593   4.852   4.342   0.855  0.9195 -1.6709 -1.1470
 5726TIP3    H238594   4.972   4.415   0.799  0.0202  1.9107  1.2123
 5727TIP3   OH238595   0.841   5.526   0.514  0.6585  0.3210  0.2459
 5727TIP3    H138596   0.811   5.613   0.542 -1.1002  0.7154 -2.5587
 5727TIP3    H238597   0.868   5.538   0.423  0.1999 -2.1015 -0.2715
 5728TIP3   OH238598   2.648   4.275  13.649  0.0456  0.2088  0.6335
 5728TIP3    H138599   2.737   4.263  13.617 -0.6151 -0.9348 -0.9291
 5728TIP3    H238600   2.630   4.196  13.700 -0.7380 -0.5808 -0.8001
 5729TIP3   OH238601   5.156   5.637  15.697 -0.6039  0.0036 -0.2650
 5729TIP3    H138602   5.166   5.658  15.790 -0.9159  1.4244 -0.5309
 5729TIP3    H238603   5.207   5.557  15.685 -3.5368 -2.4308  1.8964
 5730TIP3   OH238604   6.748   3.804   3.803  0.2192 -0.3929 -0.5482
 5730TIP3    H138605   6.809   3.736   3.775  2.6718  2.0244 -1.5470
 5730TIP3    H238606   6.758   3.809   3.898 -0.8620 -2.0844 -0.2917
 5731TIP3   OH238607   5.797   3.082  12.834  0.3159 -0.5615  0.4822
 5731TIP3    H138608   5.789   3.160  12.779 -0.1080 -1.0996 -0.2428
 5731TIP3    H238609   5.839   3.113  12.915  0.2407  0.3888  0.1650
 5732TIP3   OH238610   1.976   4.461  13.409 -0.3063 -0.2281 -0.4695
 5732TIP3    H138611   1.961   4.492  13.319  1.0178  0.6225 -0.4203
 5732TIP3    H238612   1.929   4.524  13.464  1.3274  1.0217 -0.4387
 5733TIP3   OH238613   1.009   0.483  13.568  0.2218  0.5048 -0.0255
 5733TIP3    H138614   1.081   0.492  13.630 -0.3278  1.0028  0.5519
 5733TIP3    H238615   1.041   0.422  13.502  1.2939  0.9706  0.0525
 5734TIP3   OH238616   5.213   0.053  14.908 -0.2668  0.3154  0.2744
 5734TIP3    H138617   5.198   0.129  14.965 -0.2309  0.1406  0.5202
 5734TIP3    H238618   5.155  -0.015  14.943  0.2639 -0.0113  0.5385
 5735TIP3   OH238619   5.494   4.986   6.554 -0.0237  0.4719  0.2368
 5735TIP3    H138620   5.440   4.918   6.593 -0.9087  0.1464 -1.5052
 5735TIP3    H238621   5.439   5.065   6.556 -0.3365  0.2969 -0.9257
 5736TIP3   OH238622   5.953   2.106  15.397  0.0586  0.4762 -0.2932
 5736TIP3    H138623   5.974   2.053  15.474 -0.3154  2.0003  0.9055
 5736TIP3    H238624   6.033   2.156  15.381  0.1063  0.2256 -0.8623
 5737TIP3   OH238625   0.885   5.926  14.570  0.2039 -0.1890  0.3341
 5737TIP3    H138626   0.833   5.904  14.647  2.0032 -0.3421  1.5727
 5737TIP3    H238627   0.839   5.884  14.497 -0.9492 -0.9735  1.4664
 5738TIP3   OH238628   3.128   3.216   1.664 -0.1194  0.1876 -0.4304
 5738TIP3    H138629   3.104   3.175   1.581  0.4834  1.2995 -1.1597
 5738TIP3    H238630   3.044   3.244   1.702 -0.2547  1.3448 -1.5469
 5739TIP3   OH238631   5.985   3.567  15.033  0.5299  0.3789 -0.0234
 5739TIP3    H138632   6.056   3.553  15.096  0.1087 -0.4007  0.2892
 5739TIP3    H238633   5.921   3.498  15.053 -0.4595  1.2519 -0.1042
 5740TIP3   OH238634   6.020   2.518   2.515 -0.3896 -0.0814 -0.1061
 5740TIP3    H138635   6.013   2.604   2.558 -0.3837  0.3326 -0.9073
 5740TIP3    H238636   5.983   2.533   2.428 -0.2346 -0.8590 -0.3050
 5741TIP3   OH238637   1.793   1.318   5.004 -0.1191 -0.1448 -0.3602
 5741TIP3    H138638   1.826   1.407   5.012  0.2226 -0.2127 -0.9327
 5741TIP3    H238639   1.804   1.296   4.911  2.9856 -1.9675  0.2731
 5742TIP3   OH238640   4.935   5.662  14.695  0.1904 -0.1740 -0.1115
 5742TIP3    H138641   4.917   5.582  14.745  1.1265 -0.9729 -1.0229
 5742TIP3    H238642   4.884   5.652  14.614 -0.9061  0.8764  0.4148
 5743TIP3   OH238643   2.355   5.318   3.040 -0.0554 -0.5639 -0.1967
 5743TIP3    H138644   2.367   5.236   2.992 -0.4589 -1.7556  1.6764
 5743TIP3    H238645   2.430   5.323   3.099  1.3470  1.7353 -2.0010
 5744TIP3   OH238646   4.316   0.927   5.200  0.3260  0.1909  0.3785
 5744TIP3    H138647   4.251   0.902   5.135  0.3555  0.0309  0.4087
 5744TIP3    H238648   4.295   1.017   5.223  1.6057  1.0024 -1.4317
 5745TIP3   OH238649   0.560   0.388   0.409  0.0253 -0.2437  0.3971
 5745TIP3    H138650   0.571   0.473   0.451  0.5500 -0.3108  0.4042
 5745TIP3    H238651   0.610   0.327   0.465  0.8098 -0.3188 -0.3594
 5746TIP3   OH238652   1.425   4.247   1.281 -0.5277  0.0224  0.1454
 5746TIP3    H138653   1.413   4.325   1.226 -2.6036 -0.8139 -0.6892
 5746TIP3    H238654   1.341   4.201   1.275  0.8873 -2.6898 -0.0180
 5747TIP3   OH238655   5.641   5.535   2.152  0.1988  0.4296 -0.4585
 5747TIP3    H138656   5.709   5.473   2.177 -1.7009 -1.0797  1.2704
 5747TIP3    H238657   5.669   5.618   2.189  1.8830  0.2581 -1.2435
 5748TIP3   OH238658   3.889   5.874  16.651  0.0667  0.1388  0.0773
 5748TIP3    H138659   3.925   5.829  16.727 -2.9946 -0.6810  1.1752
 5748TIP3    H238660   3.880   5.965  16.679  1.1400  0.3495 -0.2015
 5749TIP3   OH238661   0.063   6.624  14.806  0.1070  0.1046  0.3808
 5749TIP3    H138662   0.114   6.669  14.873 -0.6822  1.5694  0.0454
 5749TIP3    H238663   0.024   6.549  14.851  1.3882 -0.2231  0.9806
 5750TIP3   OH238664   2.351   3.675  13.636 -0.5457  0.5190  0.2245
 5750TIP3    H138665   2.385   3.678  13.726 -0.5863  0.1538  0.2517
 5750TIP3    H238666   2.374   3.588  13.605 -0.9038  0.4968  0.0236
 5751TIP3   OH238667   1.092   4.693   3.393  0.1183 -0.0330 -0.3394
 5751TIP3    H138668   1.067   4.612   3.349  2.5390  0.6796 -3.3696
 5751TIP3    H238669   1.170   4.670   3.444  1.3093  0.4115 -1.8516
 5752TIP3   OH238670   1.439   2.608  16.277 -1.2894 -0.0134 -0.2040
 5752TIP3    H138671   1.381   2.552  16.328 -0.6622  0.2329  0.8151
 5752TIP3    H238672   1.508   2.549  16.246  0.1256  0.3767  2.0177
 5753TIP3   OH238673   1.694   2.839   1.073 -0.3759  0.4817 -0.1514
 5753TIP3    H138674   1.736   2.868   1.154  1.9598  0.1035 -1.1524
 5753TIP3    H238675   1.644   2.915   1.044 -4.6071 -0.4966  3.5392
 5754TIP3   OH238676   6.595   0.022  16.683 -0.3880 -0.3656  0.3343
 5754TIP3    H138677   6.680  -0.018  16.663  0.6573  0.2316  3.1219
 5754TIP3    H238678   6.581   0.086  16.613  2.1441  0.4683  0.4995
 5755TIP3   OH238679   3.575   5.368  12.476  0.1627  0.0610  0.0657
 5755TIP3    H138680   3.492   5.396  12.439  0.0858  1.5418  1.2755
 5755TIP3    H238681   3.552   5.312  12.550  0.2326  0.6304  0.5213
 5756TIP3   OH238682   0.880   3.722  11.503 -0.3860 -0.0319  0.9067
 5756TIP3    H138683   0.941   3.695  11.572  0.0567 -1.9462 -0.1780
 5756TIP3    H238684   0.909   3.675  11.425 -1.3061  1.5380 -0.4410
 5757TIP3   OH238685   2.334   2.528  15.029 -0.5515  0.0712  0.1630
 5757TIP3    H138686   2.244   2.560  15.033 -0.9720 -1.1177  0.8435
 5757TIP3    H238687   2.371   2.571  14.952 -1.9480 -0.0250 -0.6094
 5758TIP3   OH238688   3.687   6.591  13.905  0.0882  0.0570  0.3244
 5758TIP3    H138689   3.649   6.671  13.868 -0.5869 -1.2398 -1.9451
 5758TIP3    H238690   3.740   6.554  13.835 -0.3316 -1.9584  1.0093
 5759TIP3   OH238691   3.579   1.317  14.111 -0.0803 -0.1078  0.0738
 5759TIP3    H138692   3.512   1.351  14.053  0.2003 -1.6500 -1.1889
 5759TIP3    H238693   3.592   1.226  14.084  0.1808 -0.8482  2.4392
 5760TIP3   OH238694   4.507   5.278  11.899  0.5620 -0.1133  0.8351
 5760TIP3    H138695   4.526   5.343  11.832 -0.0123  0.7723  1.5147
 5760TIP3    H238696   4.591   5.266  11.945  0.7161  0.0044  0.5880
 5761TIP3   OH238697   4.961   1.933   2.711  0.2266  0.8641 -0.4530
 5761TIP3    H138698   4.971   1.874   2.636 -0.9527 -0.7669  0.6118
 5761TIP3    H238699   5.051   1.947   2.742  0.7224  1.4482 -2.0444
 5762TIP3   OH238700   6.365   5.972   0.111 -0.1073 -0.2616 -0.5668
 5762TIP3    H138701   6.351   6.026   0.188  1.3965  0.3157 -0.6826
 5762TIP3    H238702   6.453   5.994   0.081  0.0253 -1.7925 -1.4036
 5763TIP3   OH238703   1.512   3.266  13.743 -0.4084 -0.5952 -0.1453
 5763TIP3    H138704   1.494   3.310  13.826 -1.7903 -3.4619  1.2072
 5763TIP3    H238705   1.456   3.311  13.680 -1.6721 -0.2730  1.1357
 5764TIP3   OH238706   6.509   3.230   5.945  0.2572  0.1687  0.4180
 5764TIP3    H138707   6.425   3.245   5.989 -1.2703  0.0639 -2.2783
 5764TIP3    H238708   6.506   3.139   5.916  1.0965  0.3022 -0.1379
 5765TIP3   OH238709   0.387   1.780  15.152 -0.1144 -0.2336 -0.0005
 5765TIP3    H138710   0.481   1.784  15.136  0.2253  0.3483  1.8521
 5765TIP3    H238711   0.349   1.757  15.067  1.6725 -0.3469 -0.8204
 5766TIP3   OH238712   4.228   2.242   5.925 -0.2676 -1.3089  0.1766
 5766TIP3    H138713   4.288   2.208   5.858  2.0470  1.4441  0.6726
 5766TIP3    H238714   4.173   2.305   5.879 -1.3093 -2.1827  0.1814
 5767TIP3   OH238715   6.429   6.184   4.930 -0.1276  0.1181 -0.0591
 5767TIP3    H138716   6.382   6.245   4.987 -0.7211  0.0624 -0.4723
 5767TIP3    H238717   6.360   6.144   4.877  0.3564 -0.2340 -0.4316
 5768TIP3   OH238718   0.940   2.442  15.651  0.3219 -0.0785 -0.3959
 5768TIP3    H138719   0.874   2.374  15.668  2.6679 -2.0639  1.4967
 5768TIP3    H238720   0.913   2.516  15.706 -0.3902 -0.7779  0.2128
 5769TIP3   OH238721   4.224   0.336   5.363  0.0298  0.2300 -0.1767
 5769TIP3    H138722   4.197   0.368   5.449  1.0829  0.6022  0.0310
 5769TIP3    H238723   4.210   0.411   5.305 -0.7687 -0.0501 -0.3619
 5770TIP3   OH238724   3.351   5.718   0.263  0.2214  0.5947  0.2697
 5770TIP3    H138725   3.420   5.775   0.297  0.3034  0.6272  0.0514
 5770TIP3    H238726   3.285   5.717   0.332 -0.6390  2.4615 -0.4376
 5771TIP3   OH238727   0.806   2.558   1.111  0.0277  0.1767 -0.4037
 5771TIP3    H138728   0.760   2.492   1.163 -0.9480  1.3390  0.2372
 5771TIP3    H238729   0.778   2.642   1.147  1.5620  0.9571 -0.9399
 5772TIP3   OH238730   6.046   2.812  17.361  0.4448  0.2731  0.4015
 5772TIP3    H138731   6.024   2.843  17.449  0.8951  2.3964 -0.1672
 5772TIP3    H238732   6.081   2.890  17.317 -0.6692 -0.4856 -1.9796
 5773TIP3   OH238733   6.202   6.600  11.373 -0.6267 -0.1073 -0.2965
 5773TIP3    H138734   6.163   6.556  11.298  0.2909  0.1049 -0.9249
 5773TIP3    H238735   6.278   6.646  11.336 -2.1166  2.8888  0.1120
 5774TIP3   OH238736   6.661   4.695  12.030 -0.0056 -0.2638  0.1877
 5774TIP3    H138737   6.733   4.645  12.068 -0.7870 -1.0967  0.6188
 5774TIP3    H238738   6.635   4.757  12.099  1.4716  1.3354 -0.6208
 5775TIP3   OH238739   2.867   0.554   1.705 -0.2649 -0.0980  0.4517
 5775TIP3    H138740   2.782   0.564   1.747  0.2254 -1.6076  1.8981
 5775TIP3    H238741   2.914   0.492   1.760  1.7568  0.6271 -0.3616
 5776TIP3   OH238742   3.744   0.071   1.002  0.6678  0.3159 -0.2426
 5776TIP3    H138743   3.751   0.119   0.920 -1.0379 -0.6121 -0.9821
 5776TIP3    H238744   3.816   0.105   1.056  1.1665  1.7069 -1.7044
 5777TIP3   OH238745   2.604   0.137  16.316  0.0181 -0.1663  0.2574
 5777TIP3    H138746   2.656   0.134  16.397  0.8550 -0.4452 -0.2798
 5777TIP3    H238747   2.609   0.228  16.288  2.0862 -0.5869 -0.9545
 5778TIP3   OH238748   2.684   1.150  15.679 -0.2578 -0.1831  0.2200
 5778TIP3    H138749   2.591   1.153  15.702 -0.8561 -1.2032 -1.8144
 5778TIP3    H238750   2.695   1.067  15.634  1.7885 -0.3069  0.8323
 5779TIP3   OH238751   4.193   3.831   1.063 -0.5808 -0.1605 -0.7099
 5779TIP3    H138752   4.152   3.832   0.977 -1.0758  0.4477 -0.4715
 5779TIP3    H238753   4.206   3.923   1.085 -1.6960 -0.2490  0.4404
 5780TIP3   OH238754   4.202   3.251   5.167  0.3117  0.0485 -0.0215
 5780TIP3    H138755   4.220   3.273   5.076  2.4395  0.4819  0.4339
 5780TIP3    H238756   4.267   3.183   5.189 -0.5338 -0.4663  1.0082
 5781TIP3   OH238757   2.423   3.574   1.616 -0.2382 -0.2190 -0.7497
 5781TIP3    H138758   2.409   3.480   1.608 -2.2924  0.1062 -1.5356
 5781TIP3    H238759   2.427   3.606   1.526 -0.4537  0.5519 -0.4974
 5782TIP3   OH238760   2.754   0.022   0.823 -0.3576 -0.2460  0.1514
 5782TIP3    H138761   2.661   0.033   0.838 -0.0966  0.5185  1.3817
 5782TIP3    H238762   2.782   0.103   0.779  0.0577  0.4329  1.5977
 5783TIP3   OH238763   2.600   1.044  11.679 -0.1932  0.0702 -0.6556
 5783TIP3    H138764   2.506   1.044  11.699 -0.3178  0.0252 -1.2310
 5783TIP3    H238765   2.622   1.137  11.667 -0.3782  0.0153 -1.4832
 5784TIP3   OH238766   1.600   2.215  14.126 -0.0886 -0.2675 -0.5174
 5784TIP3    H138767   1.690   2.221  14.093 -0.0376 -1.6869 -0.6788
 5784TIP3    H238768   1.554   2.163  14.060 -0.5762 -1.1045  0.4635
 5785TIP3   OH238769   2.649   5.174  13.422 -0.2247  0.1504 -0.5781
 5785TIP3    H138770   2.724   5.196  13.478 -1.4167 -0.1928  1.2456
 5785TIP3    H238771   2.688   5.134  13.345  1.4621 -1.1787  0.8774
 5786TIP3   OH238772   4.948   2.937  12.421  0.2237  0.4653  0.4542
 5786TIP3    H138773   4.889   2.910  12.492  1.3633  0.0825  1.2795
 5786TIP3    H238774   5.015   2.990  12.464  0.0091  1.6579 -0.6123
 5787TIP3   OH238775   2.154   6.608   4.022 -0.2526  0.5548 -0.2869
 5787TIP3    H138776   2.191   6.521   4.036 -2.7850 -0.5947 -0.0401
 5787TIP3    H238777   2.163   6.623   3.928 -1.8024 -1.0765 -0.7663
 5788TIP3   OH238778   4.024   5.302  16.784  0.1750 -0.0079  0.1740
 5788TIP3    H138779   4.044   5.210  16.770 -1.0436 -0.6897  2.3958
 5788TIP3    H238780   3.941   5.316  16.738  0.6762  0.1770 -0.6968
 5789TIP3   OH238781   2.281   3.021  11.793 -0.0454  0.3743 -0.3464
 5789TIP3    H138782   2.230   3.004  11.872  0.1171 -0.2910 -0.3776
 5789TIP3    H238783   2.281   2.937  11.746 -1.5610  1.1917 -1.9045
 5790TIP3   OH238784   2.640   0.970   5.482  1.0360  0.0424  0.0626
 5790TIP3    H138785   2.638   1.063   5.458  0.9421 -0.1167 -0.5680
 5790TIP3    H238786   2.593   0.966   5.565 -1.9782  0.1115 -1.4971
 5791TIP3   OH238787   6.699   2.573   1.818  0.3923  0.3722  0.5849
 5791TIP3    H138788   6.610   2.538   1.819  0.5514 -0.0679  2.2562
 5791TIP3    H238789   6.751   2.504   1.776  0.0458  0.3470  0.1969
 5792TIP3   OH238790   0.327   5.611  11.448 -0.3126  0.3255 -0.0868
 5792TIP3    H138791   0.314   5.546  11.379  0.7593 -0.2139  0.1984
 5792TIP3    H238792   0.405   5.659  11.420  0.2642 -0.0462  0.8535
 5793TIP3   OH238793   6.424   0.574  14.148 -0.3636  0.1869 -0.2110
 5793TIP3    H138794   6.429   0.658  14.103  0.0564 -1.1593 -2.8918
 5793TIP3    H238795   6.354   0.526  14.102 -1.0704 -0.7153  1.6880
 5794TIP3   OH238796   6.025   1.096  11.952 -0.1755 -0.2815  0.3708
 5794TIP3    H138797   5.940   1.137  11.934 -0.9961 -2.0320  0.0616
 5794TIP3    H238798   6.044   1.121  12.043 -1.2783 -0.2736  0.6170
 5795TIP3   OH238799   1.726   5.755   1.677  0.3201  0.1818  0.2640
 5795TIP3    H138800   1.807   5.705   1.683  0.5503  0.6059  0.7253
 5795TIP3    H238801   1.700   5.770   1.768 -0.1203  0.3007  0.1216
 5796TIP3   OH238802   4.722   6.211   3.346 -0.0884 -0.4446 -0.0838
 5796TIP3    H138803   4.710   6.174   3.259  0.0005  0.4626 -0.4927
 5796TIP3    H238804   4.801   6.265   3.339  0.4074 -1.0132  0.7852
 5797TIP3   OH238805   1.232   2.843  10.549  1.0616 -0.2584  0.2808
 5797TIP3    H138806   1.192   2.911  10.602  3.3728  0.1310  1.6752
 5797TIP3    H238807   1.171   2.829  10.476  0.4725  3.2332 -0.0382
 5798TIP3   OH238808   5.837   4.216  11.232  0.5813 -0.0435 -0.6745
 5798TIP3    H138809   5.876   4.195  11.147  0.6794 -2.0419 -0.1914
 5798TIP3    H238810   5.883   4.159  11.294  1.3495  2.2037  0.9553
 5799TIP3   OH238811   1.730   4.818  17.172  0.6791  0.4339  0.5521
 5799TIP3    H138812   1.639   4.824  17.198  0.4411  0.1661 -0.1925
 5799TIP3    H238813   1.767   4.747  17.226  0.2786  0.0958  0.3839
 5800TIP3   OH238814   2.034   1.976  13.970  0.2755 -0.4394  0.2965
 5800TIP3    H138815   2.091   1.946  13.900  0.0103 -1.0334  0.3280
 5800TIP3    H238816   1.947   1.977  13.932  0.0891 -1.0416  0.6988
 5801TIP3   OH238817   4.620   6.263   1.388  0.1390 -0.1974  0.0971
 5801TIP3    H138818   4.668   6.336   1.427 -1.3872  1.1892 -0.4880
 5801TIP3    H238819   4.608   6.289   1.297  1.7235 -2.3671 -0.8167
 5802TIP3   OH238820   0.239   4.096  12.640  0.2064  0.0502 -0.1002
 5802TIP3    H138821   0.260   4.068  12.730 -0.3022 -0.2453 -0.0717
 5802TIP3    H238822   0.218   4.015  12.594 -0.2771  0.2829 -0.2890
 5803TIP3   OH238823   0.990   0.461  12.710  0.0105 -0.3915  0.2616
 5803TIP3    H138824   1.062   0.465  12.773 -0.4449  0.1932  0.7533
 5803TIP3    H238825   0.948   0.377  12.727 -1.0610  0.3996  1.8267
 5804TIP3   OH238826   4.509   6.599  17.323 -0.0625  0.0945 -0.1448
 5804TIP3    H138827   4.497   6.668  17.257 -0.7960 -0.3537 -0.4926
 5804TIP3    H238828   4.577   6.543  17.287  1.5653  1.3782  0.7765
 5805TIP3   OH238829   2.297   4.041  15.505 -0.3571  0.6959 -0.3110
 5805TIP3    H138830   2.264   4.114  15.451 -1.0519 -0.0432 -0.9120
 5805TIP3    H238831   2.388   4.064  15.522 -0.0893  0.9304 -1.8827
 5806TIP3   OH238832   5.512   1.640   3.644  0.2030  0.0553 -0.3856
 5806TIP3    H138833   5.417   1.646   3.651  0.0038 -2.3718 -0.1205
 5806TIP3    H238834   5.527   1.577   3.573  1.4678 -2.1078  1.6520
 5807TIP3   OH238835   5.435   3.299  14.459  0.3267  0.2513  0.2589
 5807TIP3    H138836   5.424   3.383  14.414  2.2975  0.5512  0.2356
 5807TIP3    H238837   5.517   3.264  14.424 -0.4183 -1.6691  0.3350
 5808TIP3   OH238838   5.755   0.065   3.676  0.8656  0.1697  0.4413
 5808TIP3    H138839   5.848   0.045   3.683  0.3082 -2.5282  1.3180
 5808TIP3    H238840   5.725   0.074   3.767  0.1423  0.1934  0.2119
 5809TIP3   OH238841   6.130   6.588   1.653  1.3448 -0.0596  0.2456
 5809TIP3    H138842   6.206   6.591   1.595  1.0734  0.3766 -0.0979
 5809TIP3    H238843   6.073   6.659   1.621  0.5851 -0.6709  0.2055
 5810TIP3   OH238844   0.119   1.789   3.790  0.0144 -0.2459 -0.0807
 5810TIP3    H138845   0.062   1.753   3.722 -0.3047  0.5998 -0.2819
 5810TIP3    H238846   0.204   1.748   3.775 -0.1863 -0.4536 -0.6679
 5811TIP3   OH238847   6.271   4.479  15.782  0.6424 -0.6199 -0.0492
 5811TIP3    H138848   6.366   4.482  15.771  0.5699 -0.0010 -0.5414
 5811TIP3    H238849   6.258   4.431  15.865  1.4138  0.1950  0.5621
 5812TIP3   OH238850   2.205   5.761  14.252 -0.3786  0.2714  0.2955
 5812TIP3    H138851   2.178   5.832  14.194  0.1289  0.1419 -0.1150
 5812TIP3    H238852   2.189   5.794  14.340 -0.5579  0.7205  0.0987
 5813TIP3   OH238853   0.479   3.669   6.829  0.1596  0.1935  0.6861
 5813TIP3    H138854   0.428   3.746   6.804  1.0346  0.6404  0.2095
 5813TIP3    H238855   0.560   3.706   6.866  0.9158 -0.4808 -0.2375
 5814TIP3   OH238856   2.722   5.640  11.922  0.8290  0.1518  0.3641
 5814TIP3    H138857   2.806   5.607  11.887  0.6542  0.4527 -0.3573
 5814TIP3    H238858   2.693   5.571  11.981  0.8944 -0.6132 -0.4663
 5815TIP3   OH238859   1.997   1.535  11.443  0.0206  0.4994 -0.5338
 5815TIP3    H138860   1.922   1.556  11.389 -1.7937  0.8353  1.9293
 5815TIP3    H238861   2.025   1.449  11.412 -2.6456 -0.5529 -0.3174
 5816TIP3   OH238862   6.434   1.679  17.370 -0.5794  0.2052  0.4724
 5816TIP3    H138863   6.409   1.679  17.278  0.3964 -0.8899  0.1681
 5816TIP3    H238864   6.526   1.705  17.370 -0.7614  0.9046  1.2186
 5817TIP3   OH238865   3.584   1.067   0.873  0.2007  0.1153  0.1014
 5817TIP3    H138866   3.578   1.159   0.850 -1.3123  0.5946  2.1444
 5817TIP3    H238867   3.581   1.065   0.968  0.2846 -2.0527  0.1253
 5818TIP3   OH238868   3.072   2.357   2.951 -0.5001 -0.1049 -0.0280
 5818TIP3    H138869   2.977   2.369   2.950 -0.7466 -1.5632  1.7047
 5818TIP3    H238870   3.107   2.446   2.950 -1.7984  0.4475 -2.4388
 5819TIP3   OH238871   4.394   1.429   3.069 -0.2134  0.4673  0.2357
 5819TIP3    H138872   4.406   1.514   3.112  3.1414  1.0309 -1.4969
 5819TIP3    H238873   4.379   1.451   2.977  3.0288 -0.6867 -0.7002
 5820TIP3   OH238874   0.718   6.462  13.416  0.4822  0.5405  0.0110
 5820TIP3    H138875   0.793   6.479  13.472  0.5632  0.3428 -0.0357
 5820TIP3    H238876   0.711   6.367  13.414  0.5408  0.5430 -0.3906
 5821TIP3   OH238877   4.422   0.952  16.916  0.2068  0.5696 -0.0734
 5821TIP3    H138878   4.389   0.980  17.001 -1.7869 -0.5513 -0.4047
 5821TIP3    H238879   4.377   1.009  16.853 -0.3415 -0.2985 -0.4857
 5822TIP3   OH238880   2.113   2.690   5.645  0.1228  0.0239 -0.4426
 5822TIP3    H138881   2.084   2.781   5.649 -0.7709 -0.2860  0.3216
 5822TIP3    H238882   2.081   2.650   5.726  0.7206 -0.9113 -0.6471
 5823TIP3   OH238883   1.609   4.420   0.618  0.0554  0.3924  0.2345
 5823TIP3    H138884   1.678   4.405   0.552  0.3832 -1.1819  0.9060
 5823TIP3    H238885   1.657   4.432   0.700 -0.3780  1.8988  0.3068
 5824TIP3   OH238886   5.038   5.487  12.788 -0.4294  0.5905  0.3788
 5824TIP3    H138887   5.007   5.433  12.861 -1.5523  1.2355  0.3960
 5824TIP3    H238888   5.005   5.442  12.710 -0.7132  0.8380  0.3559
 5825TIP3   OH238889   2.795   6.123  13.641  0.0665  0.4289 -0.0081
 5825TIP3    H138890   2.890   6.132  13.632  0.6217 -3.1910  0.6361
 5825TIP3    H238891   2.769   6.064  13.570 -1.1734 -0.9095  1.4691
 5826TIP3   OH238892   4.424   3.209  14.250  0.0108 -0.2295  0.0535
 5826TIP3    H138893   4.400   3.298  14.223 -0.7723  0.2099  2.0338
 5826TIP3    H238894   4.517   3.214  14.271  0.4422 -0.3902 -1.7019
 5827TIP3   OH238895   0.498   2.577   5.625  0.2994  0.2482 -0.0697
 5827TIP3    H138896   0.427   2.599   5.564  0.6554  0.6235 -0.3552
 5827TIP3    H238897   0.570   2.548   5.569  0.3611 -0.1686  0.2211
 5828TIP3   OH238898   3.138   1.185   3.601 -0.9522  0.2969  0.2587
 5828TIP3    H138899   3.100   1.256   3.653 -3.8710 -1.2615  0.4469
 5828TIP3    H238900   3.141   1.219   3.512  0.3160  1.5842  0.7628
 5829TIP3   OH238901   4.810   0.114   1.507 -0.3737 -0.5347  0.3468
 5829TIP3    H138902   4.824   0.197   1.553 -2.3304 -0.1250  0.2898
 5829TIP3    H238903   4.818   0.136   1.414 -0.4749 -0.4902  0.3482
 5830TIP3   OH238904   2.914   4.014   5.601 -0.1146  0.0898  0.6516
 5830TIP3    H138905   2.892   4.058   5.684  0.2361  1.3003  0.1325
 5830TIP3    H238906   2.960   3.934   5.628  0.1660  0.5570  1.6313
 5831TIP3   OH238907   4.694   4.335   3.194 -0.3080 -0.2210 -0.1406
 5831TIP3    H138908   4.721   4.333   3.286 -2.4378  3.1577  0.7333
 5831TIP3    H238909   4.773   4.364   3.147  0.7458 -1.7829  0.5833
 5832TIP3   OH238910   6.422   4.612  14.270  0.4056 -0.6204 -0.1455
 5832TIP3    H138911   6.353   4.555  14.304  0.1677  0.0999  0.6080
 5832TIP3    H238912   6.469   4.642  14.348  0.7930 -0.1290 -0.5620
 5833TIP3   OH238913   0.091   1.773  13.463  0.1765  0.1399  0.6535
 5833TIP3    H138914   0.017   1.827  13.490 -2.1734 -2.1462 -0.7673
 5833TIP3    H238915   0.091   1.700  13.525  0.4074 -0.5375 -0.1287
 5834TIP3   OH238916   4.523   3.273   2.427  0.2191 -0.0744 -1.3219
 5834TIP3    H138917   4.593   3.220   2.465  1.1973  1.9701 -0.0852
 5834TIP3    H238918   4.508   3.342   2.492 -1.7794  0.5249 -2.3425
 5835TIP3   OH238919   4.182   2.268  17.252 -0.1022  0.1808 -0.1142
 5835TIP3    H138920   4.191   2.345  17.196  0.0729  0.1883 -0.0794
 5835TIP3    H238921   4.091   2.241  17.243 -0.0743  0.1839 -0.4019
 5836TIP3   OH238922   2.662   0.132   4.957 -0.2788 -0.1897  0.1473
 5836TIP3    H138923   2.625   0.119   5.045 -0.8129 -0.5775 -0.1239
 5836TIP3    H238924   2.731   0.196   4.969 -0.0093 -0.6127  0.9404
 5837TIP3   OH238925   4.428   0.988   3.965  0.0833 -0.1984  0.3365
 5837TIP3    H138926   4.453   0.932   3.892  2.2353  1.3194 -0.2278
 5837TIP3    H238927   4.375   1.057   3.926  2.3671  1.3839 -0.1654
 5838TIP3   OH238928   1.735   2.290  12.051 -0.0245 -0.1301 -0.0535
 5838TIP3    H138929   1.733   2.364  12.112  0.4468 -1.9219  2.2711
 5838TIP3    H238930   1.653   2.243  12.068  0.0504 -0.5936 -0.9252
 5839TIP3   OH238931   4.902   5.286  16.570  0.4414 -0.0394  0.0185
 5839TIP3    H138932   4.992   5.257  16.583 -0.3257 -1.9668  1.4425
 5839TIP3    H238933   4.901   5.377  16.601  1.5895 -0.4420  1.3340
 5840TIP3   OH238934   4.387   0.061   3.637 -0.0132 -0.0025  0.1584
 5840TIP3    H138935   4.372   0.156   3.635  1.5715  0.2802 -1.9700
 5840TIP3    H238936   4.301   0.022   3.624 -0.5383  1.1631  0.0308
 5841TIP3   OH238937   2.912   3.467  15.890 -0.0811 -0.2732 -0.5659
 5841TIP3    H138938   2.853   3.541  15.905  1.1980  0.7395 -0.4474
 5841TIP3    H238939   2.884   3.401  15.953 -1.9911 -0.3815 -1.4371
 5842TIP3   OH238940   4.556   2.997   5.917  0.3817  0.4556 -0.1959
 5842TIP3    H138941   4.480   3.055   5.925 -0.8402 -0.9010 -1.4072
 5842TIP3    H238942   4.523   2.921   5.868  2.7840  0.3019 -1.7195
 5843TIP3   OH238943   4.371   2.031  16.790  0.0529 -0.0713 -0.2719
 5843TIP3    H138944   4.407   2.031  16.701  0.9763  1.6088  0.0547
 5843TIP3    H238945   4.290   1.980  16.783 -0.8236  1.4523 -2.4827
 5844TIP3   OH238946   2.606   1.334   2.703  0.4550  1.0145 -0.1902
 5844TIP3    H138947   2.581   1.426   2.692 -0.9001  0.7522  0.4834
 5844TIP3    H238948   2.529   1.285   2.672  0.6561  0.1412  0.6599
 5845TIP3   OH238949   5.220   0.212   0.242  0.4421 -0.3345 -0.6631
 5845TIP3    H138950   5.189   0.236   0.330  2.5471  1.6136 -0.3530
 5845TIP3    H238951   5.140   0.192   0.193 -1.2653  3.0143  0.4349
 5846TIP3   OH238952   3.665   3.772  13.822  0.9531 -0.2013  0.0408
 5846TIP3    H138953   3.649   3.855  13.777 -1.0183 -1.5496 -1.9486
 5846TIP3    H238954   3.598   3.769  13.890 -0.6332 -1.1855 -1.4920
 5847TIP3   OH238955   4.706   0.135  11.433 -0.3112 -0.0409  0.3156
 5847TIP3    H138956   4.751   0.178  11.360 -0.9741 -0.0843 -0.1382
 5847TIP3    H238957   4.763   0.147  11.508 -0.3582  1.3899  0.1377
 5848TIP3   OH238958   1.395   4.428   4.745  0.5670 -0.0720  0.1124
 5848TIP3    H138959   1.352   4.363   4.689  0.9364 -0.1515 -0.0874
 5848TIP3    H238960   1.440   4.486   4.683 -1.1247  1.3923  0.1805
 5849TIP3   OH238961   3.255   0.564   0.659 -0.1330 -0.1595  0.8104
 5849TIP3    H138962   3.303   0.483   0.678  1.3598  0.6025  0.4321
 5849TIP3    H238963   3.247   0.607   0.744  1.5748  0.6004  0.6187
 5850TIP3   OH238964   5.371   4.079   3.631 -0.0432  0.4548  0.3584
 5850TIP3    H138965   5.304   4.043   3.688  0.0521  1.3150  1.0300
 5850TIP3    H238966   5.406   4.155   3.678  1.7373 -0.2421  0.2413
 5851TIP3   OH238967   6.508   1.186  17.143  0.0728  0.3033 -0.3361
 5851TIP3    H138968   6.543   1.129  17.075 -0.8010  1.2946 -1.6449
 5851TIP3    H238969   6.487   1.268  17.099 -0.1175  1.1362  1.2094
 5852TIP3   OH238970   5.153   3.697   1.446  0.4380  0.0157  0.1369
 5852TIP3    H138971   5.132   3.657   1.530 -1.8483  1.5391  0.3817
 5852TIP3    H238972   5.243   3.670   1.428 -0.3745 -3.8400  1.0119
 5853TIP3   OH238973   3.227   3.117  16.928  0.6897 -0.4352 -0.1760
 5853TIP3    H138974   3.256   3.167  16.852  1.7095  0.3301  0.6961
 5853TIP3    H238975   3.305   3.068  16.955  0.4162 -0.4740  0.5578
 5854TIP3   OH238976   1.057   1.749   3.705  0.1212 -0.2654  0.3292
 5854TIP3    H138977   0.990   1.789   3.649 -1.5974 -0.5300  2.0837
 5854TIP3    H238978   1.008   1.689   3.761  1.9474 -0.9915  1.2208
 5855TIP3   OH238979   0.275   0.949   5.182  0.1201  0.1403 -0.3505
 5855TIP3    H138980   0.320   1.033   5.179 -0.6667  0.5626 -0.5817
 5855TIP3    H238981   0.182   0.971   5.174 -0.1194 -0.7248 -0.0736
 5856TIP3   OH238982   5.359   2.125  14.891  0.6574 -0.0280 -0.3608
 5856TIP3    H138983   5.352   2.136  14.986  0.3375  0.8231 -0.4691
 5856TIP3    H238984   5.429   2.060  14.879 -0.0645 -0.9873  0.4805
 5857TIP3   OH238985   1.767   1.284   4.696 -0.0563 -0.4931  0.2058
 5857TIP3    H138986   1.736   1.361   4.648 -0.3684 -1.4653 -1.2174
 5857TIP3    H238987   1.855   1.268   4.662 -1.0196 -2.3734 -1.6225
 5858TIP3   OH238988   4.444   5.202   3.418  0.3368 -0.0815  0.1278
 5858TIP3    H138989   4.369   5.198   3.476  1.5920 -1.1882  1.7835
 5858TIP3    H238990   4.491   5.281   3.444  0.0844  0.2796 -0.4895
 5859TIP3   OH238991   3.724   5.195  13.782  0.4427 -0.1846  0.7844
 5859TIP3    H138992   3.680   5.254  13.844 -0.4660 -0.2482  0.2303
 5859TIP3    H238993   3.653   5.163  13.726  1.3835  0.7507 -1.0182
 5860TIP3   OH238994   2.416   0.623  15.857  0.4185 -0.1175 -0.3049
 5860TIP3    H138995   2.342   0.677  15.827  0.5335  0.6193  0.7115
 5860TIP3    H238996   2.482   0.633  15.789  0.4784  1.1215 -0.0771
 5861TIP3   OH238997   6.749   3.989  10.711  0.3122 -0.0221 -0.3416
 5861TIP3    H138998   6.655   3.998  10.730  0.1647  0.2233 -1.1260
 5861TIP3    H238999   6.776   4.078  10.687  0.7297 -0.1049 -0.1742
 5862TIP3   OH239000   3.684   1.042  12.482 -0.4946  0.0190 -0.0483
 5862TIP3    H139001   3.738   0.964  12.469  1.5782  1.5010 -0.9122
 5862TIP3    H239002   3.613   1.032  12.419  0.3176 -0.7055 -0.8868
 5863TIP3   OH239003   3.253   5.080  15.467 -0.3077  0.2490 -0.0327
 5863TIP3    H139004   3.347   5.064  15.480  0.0370  1.1717 -1.1155
 5863TIP3    H239005   3.215   4.993  15.453  0.7658 -0.0155 -1.6273
 5864TIP3   OH239006   2.078   2.867  15.586  0.2368  0.1433  0.9747
 5864TIP3    H139007   2.075   2.779  15.623  2.7300 -1.1845 -1.6185
 5864TIP3    H239008   2.021   2.864  15.509  2.5505 -0.2514 -0.8484
 5865TIP3   OH239009   4.288   0.704   5.726  0.0585 -0.2593  0.2521
 5865TIP3    H139010   4.375   0.677   5.755  0.4875 -0.4901 -1.2165
 5865TIP3    H239011   4.302   0.751   5.644 -1.2051 -0.3626 -0.0486
 5866TIP3   OH239012   0.175   5.298   4.491 -0.4104 -0.1542  0.7135
 5866TIP3    H139013   0.125   5.236   4.543  0.6749 -0.7978  1.0164
 5866TIP3    H239014   0.179   5.258   4.404 -2.1627  0.8864  0.1088
 5867TIP3   OH239015   0.452   3.683   0.968  0.1770 -0.4500  0.6740
 5867TIP3    H139016   0.479   3.774   0.956  1.2317 -0.6824  1.1514
 5867TIP3    H239017   0.501   3.635   0.901 -0.8624 -0.6001 -0.0027
 5868TIP3   OH239018   5.038   2.247   0.532 -0.2130 -0.3974  0.1148
 5868TIP3    H139019   5.008   2.337   0.543  0.9432 -0.1933  2.0919
 5868TIP3    H239020   5.038   2.233   0.437  3.1959  2.9592 -0.6051
 5869TIP3   OH239021   4.913   0.869  12.111 -0.3822  0.0370  0.2754
 5869TIP3    H139022   4.826   0.895  12.081  0.4333  0.9626 -1.4513
 5869TIP3    H239023   4.925   0.780  12.078 -0.4333  0.1538 -0.0601
 5870TIP3   OH239024   0.476   6.141   0.234 -0.6777  0.2325 -0.3887
 5870TIP3    H139025   0.548   6.205   0.237 -1.8468  1.5580  1.9547
 5870TIP3    H239026   0.480   6.096   0.318 -1.9762 -0.3597 -0.6215
 5871TIP3   OH239027   1.898   0.046  14.994  0.4040  0.3391 -0.3380
 5871TIP3    H139028   1.960   0.048  14.921 -1.9870  1.8717 -2.5147
 5871TIP3    H239029   1.856  -0.040  14.988  2.7638 -1.0768  1.7054
 5872TIP3   OH239030   2.249   3.276  11.676  0.3361  0.3946 -0.4100
 5872TIP3    H139031   2.247   3.328  11.756  0.3156  0.1653 -0.2593
 5872TIP3    H239032   2.295   3.196  11.701  0.0172  0.1712 -0.5398
 5873TIP3   OH239033   2.613   6.630   4.852 -0.0876  0.2020  0.5329
 5873TIP3    H139034   2.547   6.595   4.911  0.9149  0.2764  1.7397
 5873TIP3    H239035   2.649   6.706   4.897  1.4690 -0.3841  0.3615
 5874TIP3   OH239036   4.711   0.090   2.912 -0.0243 -0.6582  0.4747
 5874TIP3    H139037   4.667   0.052   2.988  1.0874 -4.8342 -0.7393
 5874TIP3    H239038   4.678   0.041   2.837  0.8810  1.5109 -1.4878
 5875TIP3   OH239039   6.657   3.325   5.017 -0.7216  0.1284 -0.1939
 5875TIP3    H139040   6.573   3.281   5.029 -0.5819  0.2268  1.3798
 5875TIP3    H239041   6.639   3.395   4.955 -1.2959 -1.1735 -1.5399
 5876TIP3   OH239042   6.337   6.414  13.445  0.3089  0.0135  0.2537
 5876TIP3    H139043   6.350   6.445  13.535 -2.5272  2.0993  0.1125
 5876TIP3    H239044   6.245   6.385  13.443 -0.1634  1.3932 -2.2780
 5877TIP3   OH239045   4.728   2.730   2.904  0.2627  0.2214 -0.6506
 5877TIP3    H139046   4.759   2.809   2.949  2.9031 -1.1725  0.2258
 5877TIP3    H239047   4.796   2.712   2.839  0.1774 -1.7740 -0.2384
 5878TIP3   OH239048   5.735   4.557  15.770  0.0689 -0.5535  0.2127
 5878TIP3    H139049   5.641   4.570  15.763  0.0309 -1.1934 -0.6160
 5878TIP3    H239050   5.762   4.614  15.841 -0.3894  2.4955 -1.8600
 5879TIP3   OH239051   2.628   2.538   5.453  0.4196  0.0749  0.2790
 5879TIP3    H139052   2.586   2.536   5.367  1.1636 -0.5248 -0.0859
 5879TIP3    H239053   2.568   2.491   5.510  0.3751 -0.3671 -0.1299
 5880TIP3   OH239054   1.632   0.942   4.847  0.3006  0.0218  0.4705
 5880TIP3    H139055   1.572   1.017   4.837  0.8041  0.4616  0.6681
 5880TIP3    H239056   1.658   0.921   4.758  0.3748  0.2680  0.4318
 5881TIP3   OH239057   4.137   4.232   4.213  0.0537  0.0385 -0.3261
 5881TIP3    H139058   4.131   4.311   4.266  0.4555 -0.2094  0.0920
 5881TIP3    H239059   4.079   4.169   4.256  1.9311 -0.8414  1.0491
 5882TIP3   OH239060   6.474   3.551  12.354  0.0622 -0.1135 -0.1954
 5882TIP3    H139061   6.422   3.630  12.342 -0.6590 -0.4692  0.5005
 5882TIP3    H239062   6.423   3.482  12.311  0.9576 -0.1191 -1.2956
 5883TIP3   OH239063   0.915   4.806  13.080  0.4747 -0.3416 -0.0433
 5883TIP3    H139064   0.965   4.724  13.084  0.5555 -0.2296  2.0264
 5883TIP3    H239065   0.892   4.825  13.170 -0.8615  1.1499 -0.6464
 5884TIP3   OH239066   4.762   2.691  16.561 -0.0639 -0.0311 -0.3187
 5884TIP3    H139067   4.788   2.628  16.494 -2.4586 -0.5269 -0.8691
 5884TIP3    H239068   4.709   2.640  16.623 -0.1100  0.9679  0.4889
 5885TIP3   OH239069   0.194   3.147  13.333  0.0572 -0.9141 -0.0663
 5885TIP3    H139070   0.143   3.220  13.298  0.2673 -0.4997  0.4779
 5885TIP3    H239071   0.249   3.186  13.402  0.7874 -1.4283 -0.3410
 5886TIP3   OH239072   3.576   2.965  14.169 -0.0123 -0.6977 -0.3799
 5886TIP3    H139073   3.582   2.873  14.143  1.4589 -0.0659 -2.5025
 5886TIP3    H239074   3.593   2.965  14.263  1.0514 -2.5065 -0.5353
 5887TIP3   OH239075   5.925   3.843   1.119 -0.3813  0.9243 -0.7336
 5887TIP3    H139076   5.928   3.903   1.193 -1.0907  1.7141 -1.3291
 5887TIP3    H239077   5.967   3.890   1.047  0.8374 -0.0568 -0.7019
 5888TIP3   OH239078   3.872   3.915   2.303  0.5870  0.1272  0.2729
 5888TIP3    H139079   3.866   3.851   2.374  0.8124  0.5683  0.6924
 5888TIP3    H239080   3.808   3.885   2.238 -0.0366  0.0437  0.9214
 5889TIP3   OH239081   3.637   2.330  11.880 -0.4859  0.2898 -0.3070
 5889TIP3    H139082   3.731   2.328  11.898 -0.1366  1.1277 -1.8609
 5889TIP3    H239083   3.604   2.246  11.912  0.9584 -0.4019 -0.5797
 5890TIP3   OH239084   3.584   6.131   4.752  0.0947 -0.1173 -0.1988
 5890TIP3    H139085   3.589   6.221   4.782  1.5387  1.5318 -4.6166
 5890TIP3    H239086   3.644   6.083   4.809 -0.3147  1.7555  1.9232
 5891TIP3   OH239087   2.156   2.246  12.856  0.3524 -0.0453  0.1496
 5891TIP3    H139088   2.127   2.225  12.767 -0.6305 -0.1017  0.4673
 5891TIP3    H239089   2.175   2.339  12.854  1.4050 -0.2503 -0.3871
 5892TIP3   OH239090   0.577   6.652   4.551 -0.3096  0.4045 -0.5925
 5892TIP3    H139091   0.573   6.695   4.465  1.7756  2.0874  0.0541
 5892TIP3    H239092   0.509   6.696   4.603 -1.1560 -0.1902 -1.1650
 5893TIP3   OH239093   1.170   5.011   5.278 -0.1583  0.5301 -0.1859
 5893TIP3    H139094   1.248   5.063   5.258  0.0673 -0.1784 -1.2267
 5893TIP3    H239095   1.160   5.018   5.373  0.7184  1.2599 -0.1314
 5894TIP3   OH239096   1.921   1.043   4.313  0.1319  0.2965 -0.1868
 5894TIP3    H139097   1.826   1.029   4.305  0.2907 -1.0992  0.0486
 5894TIP3    H239098   1.932   1.138   4.307 -1.4346  0.6221  1.2631
 5895TIP3   OH239099   6.664   3.065  11.214  0.1392 -0.5819 -0.1030
 5895TIP3    H139100   6.685   3.041  11.305  1.0221  0.3055 -0.0590
 5895TIP3    H239101   6.685   3.158  11.209 -1.5045 -0.2018 -0.7628
 5896TIP3   OH239102   0.766   4.902   5.177 -0.3304  0.3503 -0.8602
 5896TIP3    H139103   0.704   4.964   5.139  0.2121  0.4760 -1.5719
 5896TIP3    H239104   0.812   4.866   5.101  0.4894  0.2899 -0.3387
 5897TIP3   OH239105   0.792   6.573   4.017 -0.2918  0.2843 -0.3580
 5897TIP3    H139106   0.739   6.647   4.045  0.3349 -0.2046  2.4381
 5897TIP3    H239107   0.778   6.506   4.084  0.1404 -1.6769 -2.1205
 5898TIP3   OH239108   2.532   5.568   2.449  0.2617  0.2010 -0.2116
 5898TIP3    H139109   2.516   5.616   2.530  0.3321  1.9477 -1.1934
 5898TIP3    H239110   2.444   5.549   2.415  0.1806  2.0066 -1.1349
 5899TIP3   OH239111   6.105   3.486   2.981 -0.4478  0.3822 -0.1082
 5899TIP3    H139112   6.050   3.466   3.056 -1.7149 -0.0069 -1.0909
 5899TIP3    H239113   6.146   3.403   2.958  0.7377  0.7157  0.7460
 5900TIP3   OH239114   0.750   3.857   0.436  0.1233  0.7112  0.6986
 5900TIP3    H139115   0.655   3.848   0.428  0.1907  0.9999 -0.8957
 5900TIP3    H239116   0.785   3.786   0.382  0.8153  0.6691  1.1918
 5901TIP3   OH239117   3.113   1.809  15.536 -0.2544  0.1991 -0.1648
 5901TIP3    H139118   3.038   1.819  15.477  0.3087 -1.7192 -1.2830
 5901TIP3    H239119   3.150   1.897  15.543  0.5606  0.3100 -3.9623
 5902TIP3   OH239120   1.734   1.564  10.665 -0.0750 -0.0113 -0.3788
 5902TIP3    H139121   1.729   1.484  10.718 -1.9239  0.3060 -0.0419
 5902TIP3    H239122   1.654   1.565  10.614  0.1150  1.4275 -0.6986
 5903TIP3   OH239123   0.915   4.464  16.339 -0.4398 -0.0514 -0.1879
 5903TIP3    H139124   0.940   4.449  16.248  0.8482 -1.4736  0.3594
 5903TIP3    H239125   0.987   4.428  16.391 -1.3640  0.2698  1.4182
 5904TIP3   OH239126   1.855   1.315  13.687 -0.4846  0.0784 -0.1774
 5904TIP3    H139127   1.919   1.349  13.624 -0.2177  1.0764  0.6065
 5904TIP3    H239128   1.779   1.373  13.678 -0.6834 -0.1536 -0.0175
 5905TIP3   OH239129   5.460   1.096   1.393  0.1841  0.0973  0.1444
 5905TIP3    H139130   5.434   1.182   1.428 -0.2675  0.2211 -0.4805
 5905TIP3    H239131   5.525   1.064   1.455 -0.3662  0.4581  0.9281
 5906TIP3   OH239132   6.332   1.526   1.668  0.8050 -0.0996 -0.0625
 5906TIP3    H139133   6.391   1.583   1.717  1.4464 -0.4776 -0.3778
 5906TIP3    H239134   6.366   1.438   1.682  0.8218 -0.2439 -0.9235
 5907TIP3   OH239135   5.190   0.318  11.921  0.1959  0.3873 -0.1477
 5907TIP3    H139136   5.253   0.267  11.870  0.5896  1.0634 -0.3387
 5907TIP3    H239137   5.183   0.401  11.875  1.1855  1.3308  1.3131
 5908TIP3   OH239138   4.545   6.743  16.892 -0.3567  0.4956  0.1291
 5908TIP3    H139139   4.539   6.650  16.916  1.0064  0.3185 -0.1409
 5908TIP3    H239140   4.616   6.747  16.828 -0.9243  1.6258 -0.4578
 5909TIP3   OH239141   1.056   1.847  14.820 -0.2595 -0.0264  0.3491
 5909TIP3    H139142   1.143   1.882  14.840  0.1251 -0.7449 -0.0044
 5909TIP3    H239143   1.058   1.832  14.725 -0.5407 -0.6295  0.4304
 5910TIP3   OH239144   3.713   2.809   3.477 -0.1106  0.1633  0.4253
 5910TIP3    H139145   3.795   2.791   3.430 -0.3127 -0.6708  0.3825
 5910TIP3    H239146   3.691   2.899   3.453  0.6329  0.2872  0.1922
 5911TIP3   OH239147   0.466   2.877  17.314 -0.2092  0.1645  0.3152
 5911TIP3    H139148   0.440   2.845  17.228 -0.9824  1.0592  0.1952
 5911TIP3    H239149   0.387   2.866  17.368  0.0580  0.2437  0.7271
 5912TIP3   OH239150   5.690   4.737  14.459 -0.0266  0.3249 -0.3076
 5912TIP3    H139151   5.727   4.653  14.484  0.7174  1.5732  3.3360
 5912TIP3    H239152   5.612   4.746  14.513 -1.1691  1.2336 -2.0149
 5913TIP3   OH239153   3.819   0.444   1.206  0.2564 -0.1846 -0.3224
 5913TIP3    H139154   3.800   0.454   1.113  0.4928 -0.2110 -0.3751
 5913TIP3    H239155   3.870   0.363   1.212 -0.0727 -0.3792 -0.1236
 5914TIP3   OH239156   0.869   3.144  15.396 -0.0296  0.3261 -0.2265
 5914TIP3    H139157   0.778   3.165  15.420 -0.6573 -1.4516 -0.9556
 5914TIP3    H239158   0.863   3.108  15.308  1.3890  0.0858 -0.2372
 5915TIP3   OH239159   1.463   1.933  11.490 -0.1378  0.0705 -0.3762
 5915TIP3    H139160   1.466   1.965  11.580 -2.7509  1.2648 -0.6363
 5915TIP3    H239161   1.555   1.925  11.465  0.6482 -0.0095  2.2736
 5916TIP3   OH239162   2.550   3.018  17.038 -0.3181  0.1586 -0.1510
 5916TIP3    H139163   2.633   3.067  17.040  0.4740 -1.1348  1.4800
 5916TIP3    H239164   2.496   3.059  17.106 -0.4847  0.1451 -0.2756
 5917TIP3   OH239165   5.267   0.472  14.721 -0.0950  0.0608 -0.0163
 5917TIP3    H139166   5.190   0.521  14.693 -1.3187 -1.0753  1.2003
 5917TIP3    H239167   5.250   0.450  14.813  0.8254 -1.7736 -0.2294
 5918TIP3   OH239168   0.037   3.366  15.354  0.1350 -0.6292  0.0739
 5918TIP3    H139169   0.066   3.290  15.304  0.3164 -0.6314  0.1816
 5918TIP3    H239170   0.037   3.336  15.445 -0.0550 -0.5816  0.0900
 5919TIP3   OH239171   1.247   4.115  11.001 -0.8052  0.3488 -0.2487
 5919TIP3    H139172   1.330   4.069  10.989 -1.0503 -0.0902 -0.2720
 5919TIP3    H239173   1.271   4.193  11.050 -0.2295  0.7002 -1.0496
 5920TIP3   OH239174   6.311   0.603  17.302  0.0221 -0.5364  0.4558
 5920TIP3    H139175   6.381   0.668  17.309  0.0218 -0.5540  0.6134
 5920TIP3    H239176   6.357   0.519  17.301  0.0587 -0.5169 -0.2657
 5921TIP3   OH239177   0.519   0.244   1.856  0.2161 -0.3400  0.5813
 5921TIP3    H139178   0.503   0.158   1.818  0.7007 -1.1747  2.1990
 5921TIP3    H239179   0.538   0.227   1.948  0.9807  1.4365  0.7953
 5922TIP3   OH239180   3.550   5.848  15.563 -0.6030  0.0442  0.3313
 5922TIP3    H139181   3.492   5.778  15.594 -0.2903 -0.9711 -1.2546
 5922TIP3    H239182   3.609   5.805  15.501  0.5485  1.4475  0.3989
 5923TIP3   OH239183   6.541   4.274   0.873  0.2226  0.0625  0.4168
 5923TIP3    H139184   6.477   4.342   0.850  1.3929  1.3644  0.8345
 5923TIP3    H239185   6.498   4.192   0.849 -1.1903  0.9430 -0.2575
 5924TIP3   OH239186   0.296   1.099   3.488 -0.3572  0.3263  0.0492
 5924TIP3    H139187   0.270   1.089   3.580  1.2176  2.2422  0.7782
 5924TIP3    H239188   0.387   1.128   3.492  0.9477 -2.8622 -2.2665
 5925TIP3   OH239189   5.010   4.179  13.810  0.4128 -0.0636  0.0203
 5925TIP3    H139190   4.920   4.205  13.830  0.2469  0.1803 -1.0186
 5925TIP3    H239191   5.005   4.086  13.790  0.5705 -0.2937  0.9610
 5926TIP3   OH239192   2.345   2.472   0.733 -0.4272  0.3808  0.3967
 5926TIP3    H139193   2.419   2.532   0.721 -1.2213  1.3667  0.3221
 5926TIP3    H239194   2.374   2.411   0.801  1.0982 -0.3195 -0.8267
 5927TIP3   OH239195   0.110   0.692   0.197 -0.4998 -0.2043 -0.3680
 5927TIP3    H139196   0.130   0.772   0.149  1.5592  0.4071  1.3860
 5927TIP3    H239197   0.015   0.696   0.212 -0.5757  1.4322 -1.0917
 5928TIP3   OH239198   3.082   3.013   3.935  0.6365 -0.1152  0.5774
 5928TIP3    H139199   3.109   2.949   3.869 -0.1001 -1.9625  1.9625
 5928TIP3    H239200   3.163   3.053   3.965  1.0760 -0.0575 -0.6374
 5929TIP3   OH239201   5.123   3.516  11.638 -0.7547  0.0344  0.2232
 5929TIP3    H139202   5.206   3.561  11.622  0.7141 -2.3330  0.6466
 5929TIP3    H239203   5.097   3.481  11.553 -0.6669 -0.2411  0.3070
 5930TIP3   OH239204   0.760   1.327   5.127  0.3382  0.5587 -0.1292
 5930TIP3    H139205   0.790   1.346   5.217 -1.5353  0.5751  0.5231
 5930TIP3    H239206   0.712   1.406   5.101  1.6098  0.9253 -1.5340
 5931TIP3   OH239207   0.801   4.217  17.108  0.3132 -0.4610 -0.3153
 5931TIP3    H139208   0.763   4.165  17.179 -0.8306  0.0322 -0.5362
 5931TIP3    H239209   0.869   4.162  17.071  0.2354 -1.1329  0.5140
 5932TIP3   OH239210   0.701   6.684  11.237 -0.1579  0.6427 -0.8690
 5932TIP3    H139211   0.620   6.672  11.187  0.3509 -0.8360 -1.3924
 5932TIP3    H239212   0.700   6.776  11.263 -3.0860  0.2217  0.9719
 5933TIP3   OH239213   0.044   4.707   6.711  0.1324 -0.1728 -0.0319
 5933TIP3    H139214   0.109   4.702   6.780 -0.1196 -0.6190  0.1766
 5933TIP3    H239215  -0.017   4.636   6.730  0.3823 -0.6700 -1.0397
 5934TIP3   OH239216   1.632   4.173  16.990  0.4547 -0.0775  0.1478
 5934TIP3    H139217   1.698   4.240  16.974  0.2092  0.1506  0.0948
 5934TIP3    H239218   1.682   4.097  17.020  0.8111 -0.1372 -0.5799
 5935TIP3   OH239219   1.531   0.171  16.372  0.3193 -0.2080  0.0521
 5935TIP3    H139220   1.622   0.169  16.401 -0.3490  0.0464  2.3230
 5935TIP3    H239221   1.529   0.111  16.297  2.6635  1.1117 -1.1885
 5936TIP3   OH239222   4.457   2.838   2.418 -0.0681  0.4659 -0.0800
 5936TIP3    H139223   4.476   2.872   2.331 -0.4143  0.1608 -0.2759
 5936TIP3    H239224   4.362   2.843   2.426 -0.0090  0.8244  0.4177
 5937TIP3   OH239225   5.017   3.391   0.289 -0.0928  0.1579  0.2960
 5937TIP3    H139226   5.045   3.309   0.249 -0.3624 -0.5283  1.4656
 5937TIP3    H239227   4.957   3.430   0.224  0.3735 -0.3480 -0.4511
 5938TIP3   OH239228   5.878   5.007   4.011 -0.3855  0.2882  0.1391
 5938TIP3    H139229   5.907   4.971   4.095 -0.4303 -0.2379 -0.0692
 5938TIP3    H239230   5.805   5.066   4.034  1.3324  2.2819  0.7618
 5939TIP3   OH239231   2.263   2.391  12.450  0.2074 -0.6651  0.4500
 5939TIP3    H139232   2.286   2.473  12.405 -1.7993 -0.5072 -0.3733
 5939TIP3    H239233   2.320   2.325  12.411  0.9762  0.1108  0.2320
 5940TIP3   OH239234   4.371   6.430   6.055 -0.2522  0.4587  0.3118
 5940TIP3    H139235   4.375   6.360   6.121  2.2676  1.7618  1.6839
 5940TIP3    H239236   4.426   6.399   5.983  1.0581  1.0862  1.0227
 5941TIP3   OH239237   2.656   4.043  12.935  0.1081 -0.1093  0.0058
 5941TIP3    H139238   2.601   4.112  12.899 -0.9374 -1.6135 -1.4570
 5941TIP3    H239239   2.716   4.020  12.865 -1.2924 -2.3999 -0.5808
 5942TIP3   OH239240   3.597   5.126  11.363 -0.0815 -0.0176 -0.1686
 5942TIP3    H139241   3.629   5.177  11.288  0.1539  1.3027  0.7880
 5942TIP3    H239242   3.676   5.100  11.410 -0.2593  1.5946  1.1352
 5943TIP3   OH239243   2.727   2.960   0.385 -0.8737  0.4275  0.5137
 5943TIP3    H139244   2.760   3.020   0.452 -2.2094  0.8791  0.8087
 5943TIP3    H239245   2.632   2.976   0.384 -0.8256  0.8111 -1.8613
 5944TIP3   OH239246   2.380   0.403  16.512 -0.2608 -0.3108 -0.0136
 5944TIP3    H139247   2.356   0.420  16.603  0.1357  1.9701 -0.2629
 5944TIP3    H239248   2.357   0.484  16.466  3.0869  0.1411 -1.1763
 5945TIP3   OH239249   2.872   0.208  13.794 -0.2158  0.7452  0.0597
 5945TIP3    H139250   2.935   0.167  13.735  1.3858  1.6630  1.0498
 5945TIP3    H239251   2.853   0.293  13.753  2.8313  2.5056  1.9107
 5946TIP3   OH239252   6.315   4.579   1.782 -0.1137 -0.1272  0.0277
 5946TIP3    H139253   6.273   4.493   1.792 -0.8109  0.0211 -1.3878
 5946TIP3    H239254   6.313   4.617   1.870  0.2936 -1.5823  0.7038
 5947TIP3   OH239255   6.710   0.656  13.865  0.3471  0.3080  0.0447
 5947TIP3    H139256   6.738   0.692  13.949  0.8280  1.5266 -0.6042
 5947TIP3    H239257   6.780   0.679  13.804 -0.3228  0.0935 -0.8356
 5948TIP3   OH239258   0.717   1.114  17.256 -0.3373  0.2269  0.0969
 5948TIP3    H139259   0.683   1.178  17.193 -1.6271  0.4887  1.0022
 5948TIP3    H239260   0.646   1.105  17.320  0.8798 -0.1223  1.4323
 5949TIP3   OH239261   2.328   1.242   2.724 -0.1107 -0.2598  0.1335
 5949TIP3    H139262   2.314   1.208   2.812 -1.9530  0.0954  0.0114
 5949TIP3    H239263   2.300   1.334   2.729  2.9173  0.7846 -0.0286
 5950TIP3   OH239264   3.027   3.992   1.871  0.2314 -0.2355  0.0335
 5950TIP3    H139265   3.022   4.085   1.892  1.2610 -0.3063  0.6971
 5950TIP3    H239266   3.078   3.989   1.790 -1.0798 -0.1481 -0.8174
 5951TIP3   OH239267   6.502   2.381   1.749 -0.0373 -0.1114  0.4923
 5951TIP3    H139268   6.494   2.330   1.668 -1.7403 -0.2868  0.7360
 5951TIP3    H239269   6.460   2.465   1.728  2.2520  1.0529  0.2645
 5952TIP3   OH239270   1.135   1.585   4.426  0.1215 -0.3386 -0.1609
 5952TIP3    H139271   1.065   1.608   4.486  2.0598 -0.3358  2.2379
 5952TIP3    H239272   1.128   1.490   4.415  0.6821 -0.5820  1.3964
 5953TIP3   OH239273   4.757   4.840  11.414  0.3667  0.0877  0.6680
 5953TIP3    H139274   4.780   4.910  11.475  1.7668 -0.1576  0.4445
 5953TIP3    H239275   4.795   4.761  11.452  0.3885 -0.2364 -0.0098
 5954TIP3   OH239276   4.374   5.112  16.105  0.2604  0.0053  0.3920
 5954TIP3    H139277   4.417   5.146  16.184  1.4383 -2.4293  0.8900
 5954TIP3    H239278   4.434   5.135  16.034 -0.8588  2.3100  0.0727
 5955TIP3   OH239279   0.143   4.341   3.782  0.0146 -0.1217 -0.6287
 5955TIP3    H139280   0.124   4.302   3.867  1.8744 -3.6270 -1.6356
 5955TIP3    H239281   0.066   4.394   3.762 -1.0721 -0.2734  2.5749
 5956TIP3   OH239282   1.602   2.560   0.670  0.2089  0.2304 -0.3695
 5956TIP3    H139283   1.594   2.583   0.577  2.2559 -1.7243 -1.1282
 5956TIP3    H239284   1.606   2.644   0.715 -2.3091  1.2625 -1.8198
 5957TIP3   OH239285   6.544   0.764   1.779  0.3065  0.4860 -0.4484
 5957TIP3    H139286   6.492   0.750   1.858  1.4655 -0.0211  0.2526
 5957TIP3    H239287   6.480   0.778   1.710 -0.7329  0.7509  0.5494
 5958TIP3   OH239288   3.555   2.060   5.046  0.1504  0.5912 -1.1543
 5958TIP3    H139289   3.546   1.969   5.017 -0.2129  0.2422  0.0121
 5958TIP3    H239290   3.648   2.079   5.038  0.5688 -0.5616  0.4964
 5959TIP3   OH239291   6.301   1.256   3.618 -0.7797 -0.1352  0.0633
 5959TIP3    H139292   6.393   1.233   3.632 -0.5057  1.8611  2.1239
 5959TIP3    H239293   6.255   1.172   3.621  0.9966 -1.2700 -1.8146
 5960TIP3   OH239294   1.527   0.492  14.696  0.1805  0.1007  0.3591
 5960TIP3    H139295   1.541   0.398  14.691  1.3794  0.2187  1.1301
 5960TIP3    H239296   1.517   0.520  14.605 -2.4204 -1.0504  0.1881
 5961TIP3   OH239297   0.723   3.941  14.135 -0.8945  0.1497  0.0595
 5961TIP3    H139298   0.776   3.908  14.207 -0.8756 -0.3719 -0.1890
 5961TIP3    H239299   0.763   4.025  14.113 -1.1395  0.4952  0.9056
 5962TIP3   OH239300   1.019   6.176  13.147  0.5315 -0.3633 -0.1352
 5962TIP3    H139301   1.063   6.137  13.072 -0.6395 -1.4411 -0.3096
 5962TIP3    H239302   0.962   6.106  13.181 -0.4631  0.7158  0.5177
 5963TIP3   OH239303   4.178   1.404   5.115 -0.3342 -0.5342 -0.3551
 5963TIP3    H139304   4.224   1.438   5.039 -1.1591  0.7370 -0.3104
 5963TIP3    H239305   4.179   1.476   5.178 -2.0847 -0.5798 -0.2371
 5964TIP3   OH239306   1.750   1.864  16.022  0.3918  0.4504 -0.2451
 5964TIP3    H139307   1.821   1.929  16.020  1.2659 -0.3913  1.1875
 5964TIP3    H239308   1.772   1.808  16.096 -0.6280 -1.1665 -1.1130
 5965TIP3   OH239309   2.284   2.361  13.196  0.4230  0.3089 -0.7730
 5965TIP3    H139310   2.336   2.371  13.117  0.7082 -1.1239 -0.7795
 5965TIP3    H239311   2.281   2.267  13.212 -2.6622  0.2536 -1.1066
 5966TIP3   OH239312   5.486   1.331  13.122 -0.2409 -0.5308 -0.3537
 5966TIP3    H139313   5.467   1.416  13.164  1.2377 -0.7110  0.7372
 5966TIP3    H239314   5.460   1.266  13.188 -0.0891 -0.8875 -0.6474
 5967TIP3   OH239315   4.696   2.550  11.789  0.0444  0.2581  0.3805
 5967TIP3    H139316   4.726   2.468  11.827  1.1437  0.5064  0.0749
 5967TIP3    H239317   4.646   2.523  11.711  0.4119 -0.1176  0.2724
 5968TIP3   OH239318   1.141   4.698  13.918  0.0289  0.1167  0.6907
 5968TIP3    H139319   1.171   4.784  13.945  0.3916  0.2402 -0.0752
 5968TIP3    H239320   1.126   4.706  13.824 -3.0162  0.2531  1.0885
 5969TIP3   OH239321   6.231   6.345   5.034  0.3092  0.0212 -0.4633
 5969TIP3    H139322   6.168   6.390   5.090  0.7621 -1.5539  1.4497
 5969TIP3    H239323   6.179   6.312   4.961 -0.6476  0.6609 -0.0981
 5970TIP3   OH239324   5.596   3.669   3.575 -0.2108  0.2945  0.1592
 5970TIP3    H139325   5.626   3.582   3.550  0.8425  0.4883  0.7047
 5970TIP3    H239326   5.530   3.692   3.509 -1.2667 -1.3163  0.5951
 5971TIP3   OH239327   2.786   3.721  12.539 -0.1964  0.5369 -0.1808
 5971TIP3    H139328   2.756   3.775  12.465 -0.3567  0.7269  0.0221
 5971TIP3    H239329   2.726   3.743  12.610 -0.5606 -0.2557 -0.2308
 5972TIP3   OH239330   5.316   6.639  12.098  0.1856 -0.0887  0.0238
 5972TIP3    H139331   5.359   6.658  12.181  0.1570  0.3383 -0.0607
 5972TIP3    H239332   5.225   6.668  12.110  0.6857  2.0088 -0.8784
 5973TIP3   OH239333   1.764   3.544   4.673 -0.1308 -0.1853  0.7076
 5973TIP3    H139334   1.844   3.577   4.714  1.0148 -0.3268 -1.2905
 5973TIP3    H239335   1.757   3.453   4.703  1.4839 -0.7336 -0.4511
 5974TIP3   OH239336   5.344   4.209   2.451  0.4458 -0.7687 -0.2275
 5974TIP3    H139337   5.380   4.180   2.535  0.2846  1.0749  0.5379
 5974TIP3    H239338   5.250   4.195   2.460  0.1621  1.3360  0.8010
 5975TIP3   OH239339   5.823   4.058  12.689  0.3111  0.1026 -0.0328
 5975TIP3    H139340   5.824   4.103  12.774 -0.1202  0.5523 -0.2621
 5975TIP3    H239341   5.786   4.122  12.629 -0.4004 -0.5946 -0.3484
 5976TIP3   OH239342   4.972   2.550  17.020 -0.1522 -0.2096  0.3814
 5976TIP3    H139343   5.038   2.584  16.959  1.4187 -1.3019  1.4180
 5976TIP3    H239344   4.928   2.628  17.053  2.0231  0.7679  1.1994
 5977TIP3   OH239345   1.085   2.828   2.190 -0.5799  0.1385  0.1315
 5977TIP3    H139346   1.106   2.912   2.150  0.2354 -0.0174  0.2149
 5977TIP3    H239347   1.116   2.763   2.126 -1.8223 -0.1018 -0.2456
 5978TIP3   OH239348   2.823   0.920   3.304 -0.0862 -0.0298 -0.4440
 5978TIP3    H139349   2.834   0.979   3.378  2.4765 -0.5094 -0.3731
 5978TIP3    H239350   2.846   0.973   3.227  1.1329 -0.5856 -0.4842
 5979TIP3   OH239351   0.227   2.962   4.341  0.2756  0.1984  0.1356
 5979TIP3    H139352   0.160   2.942   4.275 -1.3380  1.0384  1.4433
 5979TIP3    H239353   0.183   2.947   4.425  3.0013 -3.2666  1.1567
 5980TIP3   OH239354   4.141   3.259   2.531  0.2468  0.0774  0.2684
 5980TIP3    H139355   4.132   3.208   2.612 -0.7581 -0.2928 -0.0558
 5980TIP3    H239356   4.121   3.349   2.556 -2.4552 -0.3761  0.0322
 5981TIP3   OH239357   4.189   1.435  17.142 -0.0884 -0.1452 -0.5480
 5981TIP3    H139358   4.268   1.469  17.099 -0.7963 -0.0179 -1.7845
 5981TIP3    H239359   4.220   1.361  17.194  0.8961  0.1034 -0.7583
 5982TIP3   OH239360   0.841   4.050  13.775  0.2589  0.9649  0.1264
 5982TIP3    H139361   0.927   4.089  13.756  0.4470  0.6963  0.4235
 5982TIP3    H239362   0.842   3.967  13.727  0.3572  0.7345  0.5261
 5983TIP3   OH239363   5.207   0.134  12.701  0.2182  0.1029 -0.0123
 5983TIP3    H139364   5.158   0.207  12.662  1.5450  1.0893  0.1249
 5983TIP3    H239365   5.288   0.173  12.732  0.6944 -1.3335  0.6203
 5984TIP3   OH239366   4.669   4.096   5.384 -0.1228  0.4336  0.0086
 5984TIP3    H139367   4.761   4.118   5.394  0.2883 -0.9129 -0.6845
 5984TIP3    H239368   4.664   4.003   5.405 -1.0628  0.1362 -1.4109
 5985TIP3   OH239369   4.709   5.851  16.438 -0.5556  0.1057 -0.3465
 5985TIP3    H139370   4.614   5.855  16.425 -0.9504 -1.2321  1.6580
 5985TIP3    H239371   4.722   5.886  16.526  0.7884  0.0013 -0.4842
 5986TIP3   OH239372   3.582   5.999  16.570  0.2193  0.2935 -0.2424
 5986TIP3    H139373   3.542   6.086  16.577 -0.2027  0.3250 -2.3625
 5986TIP3    H239374   3.527   5.952  16.508  0.9300 -1.2267  0.2237
 5987TIP3   OH239375   2.080   2.782   0.093  0.0038  0.4143  0.1266
 5987TIP3    H139376   2.081   2.863   0.144 -2.6239  0.5761  0.0578
 5987TIP3    H239377   2.139   2.799   0.020  1.2947  1.3813  1.3424
 5988TIP3   OH239378   6.611   6.683  14.623  0.3262  0.7722  0.4380
 5988TIP3    H139379   6.646   6.673  14.535 -0.9672 -0.0897 -0.0168
 5988TIP3    H239380   6.688   6.683  14.681  1.1220  0.1583 -0.5925
 5989TIP3   OH239381   5.766   0.119   4.559  0.1633  0.5363  0.5826
 5989TIP3    H139382   5.856   0.133   4.587 -0.0901  3.1318  0.3672
 5989TIP3    H239383   5.763   0.028   4.530  3.0786  0.7715 -0.7249
 5990TIP3   OH239384   2.937   0.589   5.958  0.2581 -0.2051  0.0970
 5990TIP3    H139385   2.851   0.554   5.980  0.4905 -0.9248 -0.1332
 5990TIP3    H239386   2.945   0.668   6.012 -0.0962 -0.7258  0.9271
 5991TIP3   OH239387   4.868   0.490   1.339  0.4050  0.5266  0.5621
 5991TIP3    H139388   4.905   0.493   1.427 -0.6906  3.1477  1.0051
 5991TIP3    H239389   4.793   0.549   1.343 -0.8598 -0.8181 -1.6288
 5992TIP3   OH239390   2.121   0.281  16.303  0.5009 -0.5182 -0.3688
 5992TIP3    H139391   2.166   0.356  16.341  1.8702 -1.2484 -0.4995
 5992TIP3    H239392   2.133   0.210  16.367 -0.5693 -0.7152 -0.3570
 5993TIP3   OH239393   5.040   4.587  11.360 -0.0944  0.1556  0.4635
 5993TIP3    H139394   4.956   4.547  11.338 -0.5361  1.1967  0.2079
 5993TIP3    H239395   5.099   4.513  11.375 -1.5463 -0.6358  2.6531
 5994TIP3   OH239396   1.711   2.640  11.838 -0.2276 -0.1126 -0.2017
 5994TIP3    H139397   1.719   2.686  11.755  2.4874  2.8510  1.4744
 5994TIP3    H239398   1.635   2.680  11.881 -0.4170 -0.2128 -0.4439
 5995TIP3   OH239399   1.986   5.178  15.940  0.3700 -0.7427 -0.0636
 5995TIP3    H139400   2.027   5.207  16.022 -0.5663  0.7066 -0.0715
 5995TIP3    H239401   2.041   5.214  15.871  0.7907 -1.4155 -0.0929
 5996TIP3   OH239402   0.256   5.296  17.149  0.4786  0.4836 -0.5985
 5996TIP3    H139403   0.170   5.272  17.115  0.2865  1.6645 -1.0147
 5996TIP3    H239404   0.239   5.377  17.198  1.0593 -0.2039  0.8078
 5997TIP3   OH239405   2.508   6.616  12.626 -0.3174 -0.0146  0.0178
 5997TIP3    H139406   2.557   6.560  12.566  0.3966 -1.7371  2.1150
 5997TIP3    H239407   2.425   6.631  12.581 -0.2775 -2.2027 -0.9226
 5998TIP3   OH239408   0.527   2.203  15.212 -0.1266  0.6124 -0.1718
 5998TIP3    H139409   0.547   2.246  15.128 -0.6248 -1.2166 -1.2814
 5998TIP3    H239410   0.432   2.190  15.210  0.0067 -0.4903  0.1412
 5999TIP3   OH239411   0.759   2.661  11.736  0.2873  0.9236  0.3384
 5999TIP3    H139412   0.698   2.631  11.669  0.4890 -0.3255  0.7023
 5999TIP3    H239413   0.813   2.585  11.756  0.9788  1.5921  1.1183
 6000TIP3   OH239414   6.148   3.393  17.348  0.0617 -1.1575  0.2073
 6000TIP3    H139415   6.240   3.416  17.339 -0.0276 -1.0952 -0.6897
 6000TIP3    H239416   6.136   3.317  17.290 -0.5808 -0.7687 -0.1895
 6001TIP3   OH239417   6.562   4.712  11.303 -0.6632  0.2502 -0.1883
 6001TIP3    H139418   6.468   4.710  11.283 -0.7031 -1.7833 -0.1000
 6001TIP3    H239419   6.598   4.778  11.245 -1.7609 -0.8795 -2.2559
 6002TIP3   OH239420   5.071   4.838   4.904 -0.2802 -0.3083 -0.1232
 6002TIP3    H139421   5.099   4.755   4.865 -0.0368 -0.2603 -0.0538
 6002TIP3    H239422   5.057   4.817   4.997 -1.4891 -0.5757 -0.3530
 6003TIP3   OH239423   3.126   5.988  17.043  0.8999  0.8163  0.7233
 6003TIP3    H139424   3.176   6.069  17.029 -0.4899  1.6680  0.4556
 6003TIP3    H239425   3.048   5.999  16.989  0.6572 -0.7015  0.7247
 6004TIP3   OH239426   2.305   3.364   1.111  0.3279  0.0705  0.2252
 6004TIP3    H139427   2.249   3.305   1.162  1.3986 -0.1742  1.1423
 6004TIP3    H239428   2.285   3.451   1.145 -1.4644  0.3362 -1.3232
 6005TIP3   OH239429   6.661   0.714   3.640 -0.3508 -0.3537 -0.1824
 6005TIP3    H139430   6.611   0.759   3.571 -1.1635  1.5036  1.5447
 6005TIP3    H239431   6.749   0.750   3.634 -0.0266 -1.2358 -1.1071
 6006TIP3   OH239432   0.760   2.609  16.853  0.0472 -0.1044 -0.2770
 6006TIP3    H139433   0.717   2.655  16.925 -1.1998 -0.4062 -0.8005
 6006TIP3    H239434   0.802   2.534  16.894  0.9391  0.7314  0.3902
 6007TIP3   OH239435   1.260   2.890  14.090 -0.3311  0.4746  0.0646
 6007TIP3    H139436   1.329   2.842  14.136 -0.0499  1.5744  0.8234
 6007TIP3    H239437   1.307   2.943  14.025 -0.7434 -1.3122 -1.7887
 6008TIP3   OH239438   5.034   0.185   3.166 -0.3366  0.1805 -0.3043
 6008TIP3    H139439   5.073   0.111   3.213 -0.2707 -0.8550 -1.9054
 6008TIP3    H239440   5.091   0.259   3.188  1.9072 -1.0298 -1.5639
 6009TIP3   OH239441   2.511   3.690   0.765  0.3689  0.1660  0.1754
 6009TIP3    H139442   2.542   3.672   0.677  1.4132 -0.5182  0.6634
 6009TIP3    H239443   2.494   3.784   0.766  0.1840  0.1510 -0.7990
 6010TIP3   OH239444   5.297   6.091  11.412  0.2284  0.2828 -0.0475
 6010TIP3    H139445   5.359   6.085  11.340  1.1086 -1.3678  0.7951
 6010TIP3    H239446   5.349   6.072  11.490 -0.9450  0.8271  0.8943
 6011TIP3   OH239447   0.360   2.684  12.689  0.1629 -0.4532 -0.0900
 6011TIP3    H139448   0.451   2.668  12.714 -0.5535 -1.0551  2.5095
 6011TIP3    H239449   0.331   2.602  12.649  0.6291 -0.4495 -0.4355
 6012TIP3   OH239450   3.833   5.529   5.776  0.3583 -0.2724  0.6867
 6012TIP3    H139451   3.754   5.490   5.813  0.6330 -0.0138  1.5692
 6012TIP3    H239452   3.893   5.455   5.766 -0.0849 -0.5241 -0.2812
 6013TIP3   OH239453   0.002   4.065  12.321 -0.4939  0.4419  0.0254
 6013TIP3    H139454  -0.029   3.974  12.322  0.8100 -0.0132  0.6297
 6013TIP3    H239455   0.097   4.058  12.315 -0.3476  1.7566  0.5694
 6014TIP3   OH239456   1.976   3.434  13.399 -0.1331 -0.1079 -0.1620
 6014TIP3    H139457   2.047   3.372  13.384 -0.4861 -0.5173 -0.1582
 6014TIP3    H239458   2.007   3.490  13.470 -0.3971 -1.2137  0.8504
 6015TIP3   OH239459   2.184   4.294  15.377 -0.1047  0.2173 -0.0056
 6015TIP3    H139460   2.141   4.375  15.350 -2.1212 -0.6794  0.3271
 6015TIP3    H239461   2.173   4.235  15.303  2.3113  0.5159 -0.6874
 6016TIP3   OH239462   5.743   4.079  11.789 -0.2944 -0.5724 -0.4212
 6016TIP3    H139463   5.780   4.109  11.706  0.6266  0.2995  0.2759
 6016TIP3    H239464   5.681   4.148  11.813 -0.7894 -0.9739 -0.5167
 6017TIP3   OH239465   0.835   1.107   4.999  0.0414 -0.5298 -0.1049
 6017TIP3    H139466   0.842   1.131   4.907  0.0814 -1.3123 -0.3188
 6017TIP3    H239467   0.820   1.189   5.045  1.6208  0.0832 -0.6186
 6018TIP3   OH239468   5.490   3.990  14.483  0.1601 -0.5377 -0.1087
 6018TIP3    H139469   5.477   4.004  14.577 -0.8432  1.3206 -0.4972
 6018TIP3    H239470   5.511   4.076  14.448  1.0970 -1.3047 -1.5351
 6019TIP3   OH239471   4.482   5.246   4.589  0.1246 -0.2657  0.4934
 6019TIP3    H139472   4.483   5.182   4.518  0.6956 -0.3222  0.5517
 6019TIP3    H239473   4.522   5.201   4.663  0.1416  0.0201  0.6602
 6020TIP3   OH239474   0.469   5.519   3.375  0.3280 -0.4919  0.5506
 6020TIP3    H139475   0.423   5.551   3.297  0.4660  2.9684  1.7275
 6020TIP3    H239476   0.399   5.482   3.429 -0.2443 -0.1777  0.0501
 6021TIP3   OH239477   2.291   3.540  11.386 -0.3307 -0.7927  0.4653
 6021TIP3    H139478   2.319   3.481  11.316 -1.7873  0.3720 -1.1882
 6021TIP3    H239479   2.344   3.514  11.461  2.2557 -1.3038 -1.3604
 6022TIP3   OH239480   2.281   3.915  12.477 -0.0777  0.0308 -0.4102
 6022TIP3    H139481   2.317   4.004  12.472  0.9135 -0.3022  0.4157
 6022TIP3    H239482   2.197   3.926  12.521  0.3501  0.4900  0.3217
 6023TIP3   OH239483   1.339   0.503  15.999 -0.0632  0.0283 -0.2085
 6023TIP3    H139484   1.302   0.512  16.087  1.7083  0.6463  0.5196
 6023TIP3    H239485   1.431   0.479  16.014  0.1383 -0.3614 -1.9087
 6024TIP3   OH239486   4.962   0.866  13.739  0.3027 -0.3148  0.4050
 6024TIP3    H139487   5.023   0.826  13.801 -0.3216  2.2674  2.9314
 6024TIP3    H239488   4.876   0.839  13.770  0.0250 -0.0635 -0.1464
 6025TIP3   OH239489   1.747   4.502   1.847 -0.2417  0.0942 -0.1227
 6025TIP3    H139490   1.724   4.469   1.934 -1.6299 -1.5178 -1.0270
 6025TIP3    H239491   1.801   4.433   1.809  2.1584  1.7172  0.1669
 6026TIP3   OH239492   6.081   4.838   0.543 -0.6708 -1.0538  0.4181
 6026TIP3    H139493   5.998   4.807   0.581 -1.0094 -1.0637 -0.3084
 6026TIP3    H239494   6.111   4.905   0.604 -2.4491  0.6792 -0.5149
 6027TIP3   OH239495   0.943   3.692  15.642  0.0097 -0.1739 -0.1389
 6027TIP3    H139496   0.874   3.626  15.642  1.5954 -1.9401  0.7744
 6027TIP3    H239497   1.009   3.658  15.582  0.8152  0.6699  0.2419
 6028TIP3   OH239498   4.662   1.100  11.267 -0.8281 -0.3464  0.3114
 6028TIP3    H139499   4.719   1.053  11.327 -1.1658  0.3274  1.1771
 6028TIP3    H239500   4.589   1.041  11.252  1.0436 -2.2355 -2.6186
 6029TIP3   OH239501   5.947   1.457  17.007  0.4927  0.3434 -0.1851
 6029TIP3    H139502   5.881   1.426  16.946 -0.9588  0.7576  1.1069
 6029TIP3    H239503   6.018   1.392  17.002 -0.9032 -1.2468 -0.1411
 6030TIP3   OH239504   1.883   5.263   1.996  0.3876 -0.3577  0.2450
 6030TIP3    H139505   1.805   5.296   2.041  0.0534 -0.7612 -0.0254
 6030TIP3    H239506   1.866   5.169   1.986 -0.1621 -0.0760 -1.9493
 6031TIP3   OH239507   3.018   2.065  11.737 -0.1516  0.3206  0.2066
 6031TIP3    H139508   2.976   2.104  11.814  0.5371 -0.1649  0.8420
 6031TIP3    H239509   3.009   1.971  11.750  1.3491  0.1930  0.4997
 6032TIP3   OH239510   5.845   4.592   5.294  0.1868  0.1171  0.0725
 6032TIP3    H139511   5.916   4.623   5.351 -0.6794  0.6490  0.8845
 6032TIP3    H239512   5.766   4.599   5.347 -0.4509 -0.7525 -0.7194
 6033TIP3   OH239513   6.265   6.132  13.277 -0.0410  0.6551  0.3063
 6033TIP3    H139514   6.225   6.218  13.278 -0.7499  0.3304  0.5530
 6033TIP3    H239515   6.309   6.126  13.193 -0.6664  0.9492 -0.0421
 6034TIP3   OH239516   4.890   4.230   1.014 -0.4138 -0.1117  0.0189
 6034TIP3    H139517   4.941   4.149   1.020 -0.1251 -0.0520 -1.3139
 6034TIP3    H239518   4.933   4.290   1.075  0.0858 -0.5943  0.1523
 6035TIP3   OH239519   0.083   4.710   2.444 -0.3619 -0.5382  0.3254
 6035TIP3    H139520   0.126   4.630   2.474 -2.2672 -1.1017  1.7211
 6035TIP3    H239521   0.136   4.739   2.369  1.3874 -2.1072  0.8762
 6036TIP3   OH239522   3.259   2.934   1.444 -0.1176  0.0472  0.5198
 6036TIP3    H139523   3.231   2.843   1.447 -0.2616  0.0521 -0.2829
 6036TIP3    H239524   3.316   2.945   1.520  1.6497 -1.2921 -0.5407
 6037TIP3   OH239525   2.301   6.705  11.659 -0.4860 -0.2235  0.3176
 6037TIP3    H139526   2.374   6.689  11.719  1.1985 -0.1629 -1.5913
 6037TIP3    H239527   2.246   6.627  11.667  0.5616 -0.9392  0.7810
 6038TIP3   OH239528   1.497   2.255   4.094 -0.1879 -0.4254  0.3030
 6038TIP3    H139529   1.408   2.282   4.119  1.8782  3.8545  4.4274
 6038TIP3    H239530   1.523   2.319   4.028  0.1936 -1.2491 -0.3728
 6039TIP3   OH239531   0.668   1.684  12.668  0.2603  0.1710 -0.3066
 6039TIP3    H139532   0.580   1.647  12.673 -0.8335  2.7470  3.1806
 6039TIP3    H239533   0.696   1.668  12.578 -2.2035 -3.9883 -0.6027
 6040TIP3   OH239534   6.605   1.580  15.176 -0.5946  0.2070 -0.8795
 6040TIP3    H139535   6.517   1.604  15.151 -0.2508  0.7768 -1.5616
 6040TIP3    H239536   6.641   1.658  15.218 -0.7166 -0.3161  0.2542
 6041TIP3   OH239537   2.338   1.082  15.531  0.1748 -0.4356  0.4852
 6041TIP3    H139538   2.385   0.999  15.538  1.1218 -0.0620 -0.9247
 6041TIP3    H239539   2.366   1.132  15.607  2.9942  0.1735 -0.8092
 6042TIP3   OH239540   3.556   4.211   4.233  0.0789 -0.3607  0.0171
 6042TIP3    H139541   3.615   4.204   4.158 -0.2485  3.2245 -0.7553
 6042TIP3    H239542   3.605   4.261   4.298 -0.6334 -0.9868  1.0555
 6043TIP3   OH239543   0.431   0.953  13.664  0.0459  0.1936  0.3711
 6043TIP3    H139544   0.453   1.015  13.733 -0.7803  0.3523  0.5067
 6043TIP3    H239545   0.503   0.891  13.663  0.5525  0.7674  0.6930
 6044TIP3   OH239546   0.751   2.682  12.962  0.1442  0.0036 -0.1578
 6044TIP3    H139547   0.839   2.646  12.950 -0.0439 -1.4988  2.1963
 6044TIP3    H239548   0.712   2.627  13.030 -1.2705  2.9070  1.5689
 6045TIP3   OH239549   0.252   0.327  12.234 -0.2331 -0.8789 -0.3283
 6045TIP3    H139550   0.232   0.418  12.254  1.1986 -0.3260 -1.2643
 6045TIP3    H239551   0.246   0.321  12.139 -1.9412 -2.1967 -0.1885
 6046TIP3   OH239552   5.493   5.473  12.354 -0.6050 -0.0765  0.8448
 6046TIP3    H139553   5.554   5.403  12.378 -0.6111 -0.4844 -0.2741
 6046TIP3    H239554   5.445   5.492  12.435 -1.0300 -1.7782  1.0226
 6047TIP3   OH239555   5.461   3.017  10.526  0.1856 -0.0936  0.5841
 6047TIP3    H139556   5.525   3.066  10.578  1.3501 -1.9901  1.0511
 6047TIP3    H239557   5.470   2.927  10.556 -2.5876 -0.4788  0.4722
 6048TIP3   OH239558   3.110   1.992   5.532 -0.4016 -0.0590  0.2200
 6048TIP3    H139559   3.151   1.991   5.618 -0.9073  1.7980  0.5351
 6048TIP3    H239560   3.017   2.008   5.550 -0.5741 -0.0024 -0.6553
 6049TIP3   OH239561   3.793   6.147  16.669  0.1159 -0.5129  0.3217
 6049TIP3    H139562   3.715   6.113  16.625  0.2830  0.4268 -0.7588
 6049TIP3    H239563   3.761   6.179  16.754 -0.5059 -0.9370  0.2536
 6050TIP3   OH239564   1.998   5.601  14.281  0.0053 -0.4066  0.1892
 6050TIP3    H139565   1.983   5.610  14.375  0.3468  1.9877  0.0894
 6050TIP3    H239566   2.067   5.665  14.262  0.6942 -1.5902 -1.5344
 6051TIP3   OH239567   1.909   2.503   3.985  0.2896  1.1759 -0.3285
 6051TIP3    H139568   1.827   2.474   3.946  0.3754 -0.6319  0.6828
 6051TIP3    H239569   1.913   2.456   4.069  3.0274 -0.0106 -0.9942
 6052TIP3   OH239570   0.045   4.759   0.479 -0.1568  0.4559 -0.1956
 6052TIP3    H139571   0.030   4.707   0.558  1.9076  0.1783  0.0760
 6052TIP3    H239572   0.041   4.849   0.508 -0.6906  0.3786 -0.0331
 6053TIP3   OH239573   4.441   5.010   5.102  0.0029 -0.0329 -0.3997
 6053TIP3    H139574   4.444   5.106   5.098 -1.2251 -0.0094 -2.0633
 6053TIP3    H239575   4.514   4.986   5.158  0.9567  1.8449 -0.7521
 6054TIP3   OH239576   0.253   4.347  11.849  0.1872  0.2471 -0.0406
 6054TIP3    H139577   0.175   4.325  11.900 -0.5540 -0.9876 -1.6045
 6054TIP3    H239578   0.222   4.413  11.786  0.3069 -0.4903 -0.8830
 6055TIP3   OH239579   1.971   4.453  12.460 -0.5409  0.1245 -0.2282
 6055TIP3    H139580   1.904   4.522  12.461 -1.2037 -0.4519 -1.8582
 6055TIP3    H239581   1.969   4.417  12.548 -1.9821  0.5101 -0.0671
 6056TIP3   OH239582   6.355   5.801   4.512  0.2207 -0.4882  0.3662
 6056TIP3    H139583   6.420   5.737   4.543  0.9194  0.3173  0.6271
 6056TIP3    H239584   6.281   5.791   4.572  1.2163  0.4606  1.8127
 6057TIP3   OH239585   5.200   1.028   2.614  0.0076  0.5602  0.3076
 6057TIP3    H139586   5.140   0.959   2.641 -1.0363  1.2827 -0.0743
 6057TIP3    H239587   5.230   1.002   2.527  0.0027  0.3550  0.3674
 6058TIP3   OH239588   1.637   2.932  14.794  0.1734 -0.2636  0.1038
 6058TIP3    H139589   1.577   2.912  14.866 -0.2925  2.6131  0.6146
 6058TIP3    H239590   1.609   3.018  14.762  1.2716 -0.7996 -2.6079
 6059TIP3   OH239591   1.399   4.371  16.297 -0.3095  0.1122 -0.4082
 6059TIP3    H139592   1.361   4.435  16.237  0.9452 -0.3509 -1.7665
 6059TIP3    H239593   1.480   4.344  16.254 -0.2633 -1.5686  0.6604
 6060TIP3   OH239594   5.115   6.560   0.072  0.2438 -0.1895 -0.3797
 6060TIP3    H139595   5.091   6.643   0.113  2.6938  1.1855 -1.4969
 6060TIP3    H239596   5.210   6.566   0.059  0.2315 -2.3958 -2.1868
 6061TIP3   OH239597   5.204   4.591  16.999  0.4176  0.3988  0.7222
 6061TIP3    H139598   5.224   4.678  16.964  0.8268  0.1838  0.4118
 6061TIP3    H239599   5.265   4.580  17.071 -0.2425  0.7305  1.3380
 6062TIP3   OH239600   4.220   1.221   3.509 -0.4158 -0.3822 -0.6180
 6062TIP3    H139601   4.290   1.159   3.487  0.5996  0.0475  1.2305
 6062TIP3    H239602   4.232   1.293   3.447 -0.1237 -0.9668 -1.2550
 6063TIP3   OH239603   0.335   6.337   1.949 -0.6193 -0.2849  0.3526
 6063TIP3    H139604   0.266   6.301   1.894  0.7602 -1.5529 -0.6274
 6063TIP3    H239605   0.379   6.261   1.987 -0.2247  0.5131  1.5829
 6064TIP3   OH239606   3.113   5.469  13.803 -0.3344  0.4332  0.9202
 6064TIP3    H139607   3.118   5.538  13.870 -3.4513 -0.9061  2.7419
 6064TIP3    H239608   3.093   5.516  13.722  0.9622  1.8966  1.3992
 6065TIP3   OH239609   2.257   6.280   1.208 -0.6646 -0.0585  0.3302
 6065TIP3    H139610   2.250   6.355   1.268 -0.2429  0.8090 -0.6712
 6065TIP3    H239611   2.243   6.317   1.121 -1.0507 -1.2609 -0.1406
 6066TIP3   OH239612   5.449   6.374  13.351 -0.4792 -0.5943 -0.4249
 6066TIP3    H139613   5.483   6.397  13.437 -1.2838 -0.6437 -0.0904
 6066TIP3    H239614   5.435   6.279  13.355  1.3987 -0.9766 -1.2996
 6067TIP3   OH239615   2.357   1.140  14.434 -0.1636  0.2107 -0.4622
 6067TIP3    H139616   2.439   1.170  14.393 -0.0149  1.3815  0.6151
 6067TIP3    H239617   2.321   1.078  14.372  1.0524  0.4191 -1.4313
 6068TIP3   OH239618   3.423   4.526   5.668 -0.5415  0.0674  1.3703
 6068TIP3    H139619   3.402   4.552   5.757 -2.3704 -0.0742  1.0134
 6068TIP3    H239620   3.370   4.448   5.652  1.1168 -0.9930  0.7427
 6069TIP3   OH239621   3.553   3.282  13.188  0.6996 -0.1079  0.2209
 6069TIP3    H139622   3.487   3.322  13.131  0.1930  2.0059  2.1526
 6069TIP3    H239623   3.573   3.198  13.146 -2.3313 -0.3166 -1.0852
 6070TIP3   OH239624   3.031   1.750  11.661  0.6525 -0.1152  0.5575
 6070TIP3    H139625   2.961   1.686  11.674  0.9717 -0.5246  0.2850
 6070TIP3    H239626   3.061   1.735  11.571  1.7457 -0.5925  0.9891
 6071TIP3   OH239627   0.989   1.325  14.820  0.2491  0.1873  0.0470
 6071TIP3    H139628   0.939   1.286  14.749  1.3480  0.1200 -0.7183
 6071TIP3    H239629   1.054   1.380  14.776  0.6550  0.5078  1.0190
 6072TIP3   OH239630   2.919   4.700   3.891  0.4551 -0.4079 -0.0800
 6072TIP3    H139631   2.928   4.637   3.963  0.1296  1.3193  1.5468
 6072TIP3    H239632   3.004   4.743   3.886 -0.0501  0.6924  0.4830
 6073TIP3   OH239633   1.181   1.653   3.459  0.0888 -0.0445  0.0469
 6073TIP3    H139634   1.113   1.687   3.400  0.3879 -2.4693 -1.8626
 6073TIP3    H239635   1.165   1.697   3.542 -1.0333  2.7625 -1.5145
 6074TIP3   OH239636   0.103   2.534   1.379  0.6159  0.0425  0.6535
 6074TIP3    H139637   0.068   2.446   1.385  0.3073  0.1500  0.4403
 6074TIP3    H239638   0.189   2.524   1.339  0.9229 -0.2430  1.3635
 6075TIP3   OH239639   5.714   1.150   5.959 -0.6205 -0.0245  0.3294
 6075TIP3    H139640   5.706   1.245   5.962 -1.8486 -0.1277  0.6754
 6075TIP3    H239641   5.699   1.122   6.050 -0.0514 -0.5405  0.2732
 6076TIP3   OH239642   0.170   4.879  14.555 -0.4767 -0.4895 -0.3640
 6076TIP3    H139643   0.233   4.945  14.582 -0.6925 -0.3110 -0.2955
 6076TIP3    H239644   0.127   4.851  14.636  1.3386 -2.5316 -0.0241
 6077TIP3   OH239645   3.278   1.587   3.645 -0.2182  0.2017 -0.6742
 6077TIP3    H139646   3.295   1.604   3.738 -1.2647  0.1734 -0.4687
 6077TIP3    H239647   3.185   1.605   3.633  0.0130  0.7442 -1.8496
 6078TIP3   OH239648   3.253   1.129  10.600  0.6493 -0.0107  0.3101
 6078TIP3    H139649   3.195   1.202  10.624 -1.0014 -0.5562 -1.7580
 6078TIP3    H239650   3.212   1.052  10.641  1.3202 -0.0719  0.8867
 6079TIP3   OH239651   3.883   6.491  13.723 -0.2888  0.0174  0.6784
 6079TIP3    H139652   3.953   6.524  13.667 -1.1405 -0.4460 -0.7236
 6079TIP3    H239653   3.893   6.395  13.720  0.7804 -0.0057  2.8661
 6080TIP3   OH239654   5.778   2.483  16.507 -0.4186  0.6935 -0.6128
 6080TIP3    H139655   5.752   2.417  16.442 -0.5462  0.6522 -0.5202
 6080TIP3    H239656   5.697   2.530  16.527 -0.2788  1.0453 -0.8652
 6081TIP3   OH239657   1.614   1.611  11.991  0.2012 -0.2614  0.3275
 6081TIP3    H139658   1.555   1.676  11.954 -2.3425  0.2207  4.5100
 6081TIP3    H239659   1.571   1.527  11.976 -0.0946 -0.2064  0.8220
 6082TIP3   OH239660   1.211   0.614  12.343  0.2000  0.2135 -0.2257
 6082TIP3    H139661   1.281   0.665  12.383 -1.0451  0.9344  1.0971
 6082TIP3    H239662   1.154   0.589  12.416 -0.1782 -1.5929 -1.0715
 6083TIP3   OH239663   5.216   1.213  12.680  0.1117  0.3527 -0.6309
 6083TIP3    H139664   5.182   1.300  12.659 -0.2805 -0.1050 -2.0153
 6083TIP3    H239665   5.262   1.186  12.600  0.2446 -0.6964 -0.2072
 6084TIP3   OH239666   0.219   0.250   0.197  0.0835 -0.2709 -0.3283
 6084TIP3    H139667   0.206   0.296   0.280  0.8911 -0.0425 -0.3277
 6084TIP3    H239668   0.215   0.319   0.131 -1.3698 -0.5473 -0.5746
 6085TIP3   OH239669   2.203   3.306  15.351 -0.3066  0.8460  0.1850
 6085TIP3    H139670   2.129   3.342  15.400 -1.3435 -0.3481 -0.4584
 6085TIP3    H239671   2.187   3.212  15.349  0.3929  0.7404 -1.3497
 6086TIP3   OH239672   5.947   6.037   2.986 -0.3748 -0.5134  0.0884
 6086TIP3    H139673   5.931   6.097   3.058  1.4168 -1.3998  1.3031
 6086TIP3    H239674   6.041   6.040   2.972 -0.3531 -2.2895 -0.4571
 6087TIP3   OH239675   6.053   4.905   2.810 -0.4078 -0.5314  0.2468
 6087TIP3    H139676   6.120   4.973   2.807  0.0793 -1.0262 -0.0069
 6087TIP3    H239677   5.982   4.945   2.862  0.6042 -0.4933  1.6656
 6088TIP3   OH239678   5.641   2.465  12.804  0.3057  0.3400 -0.2126
 6088TIP3    H139679   5.680   2.444  12.719 -0.0678  0.2022 -0.3520
 6088TIP3    H239680   5.697   2.422  12.868 -1.0851 -2.1179 -0.5382
 6089TIP3   OH239681   4.411   2.499   0.306 -0.1503 -0.3849 -0.3753
 6089TIP3    H139682   4.470   2.437   0.263  0.8065  0.3235 -0.1059
 6089TIP3    H239683   4.342   2.514   0.241 -0.9255 -2.4091 -0.1025
 6090TIP3   OH239684   2.556   6.086   1.310 -0.0187  0.3446 -0.0152
 6090TIP3    H139685   2.491   6.018   1.292 -0.0154  0.9034 -2.4810
 6090TIP3    H239686   2.626   6.041   1.358 -2.6803  0.0025  4.0433
 6091TIP3   OH239687   3.922   5.462  16.993  0.2793 -0.2750  0.2149
 6091TIP3    H139688   3.953   5.414  16.916  1.5572 -0.6152  0.9128
 6091TIP3    H239689   3.910   5.552  16.962 -0.8447 -0.7359 -0.7772
 6092TIP3   OH239690   6.632   4.251  12.637 -0.0649  0.1052 -0.2697
 6092TIP3    H139691   6.541   4.225  12.650 -0.2036  1.9054  4.0157
 6092TIP3    H239692   6.681   4.170  12.641 -1.3208 -0.7098 -0.7466
 6093TIP3   OH239693   5.175   5.529   6.943 -0.0714 -0.5209 -0.1666
 6093TIP3    H139694   5.241   5.465   6.919  1.4178 -0.1116  2.4397
 6093TIP3    H239695   5.102   5.513   6.883  1.3833 -2.6802 -1.4693
 6094TIP3   OH239696   1.698   0.220  16.060 -0.5257 -0.1130 -0.4186
 6094TIP3    H139697   1.781   0.202  16.016 -0.1843 -0.4332  0.3401
 6094TIP3    H239698   1.718   0.293  16.120 -1.2773  1.1429 -1.6367
 6095TIP3   OH239699   5.983   3.286   5.359  0.3133  0.3192 -0.2703
 6095TIP3    H139700   5.953   3.224   5.292 -0.2659 -1.7828  1.8052
 6095TIP3    H239701   6.053   3.335   5.317 -0.6210 -0.2736 -2.6767
 6096TIP3   OH239702   4.865   6.699   3.942 -0.1449 -0.4148 -0.2096
 6096TIP3    H139703   4.839   6.715   3.851  0.8324 -0.9601 -0.5970
 6096TIP3    H239704   4.886   6.605   3.945  2.4040  0.1037 -0.1007
 6097TIP3   OH239705   1.542   5.251   4.592  0.3772 -0.1498 -0.0658
 6097TIP3    H139706   1.491   5.307   4.533 -0.5431  0.1570  0.9878
 6097TIP3    H239707   1.621   5.230   4.543 -0.3350  0.1400 -1.3923
 6098TIP3   OH239708   5.649   6.623  14.516 -0.0645 -0.2771 -0.1372
 6098TIP3    H139709   5.566   6.670  14.510  0.3769  0.3616 -1.7710
 6098TIP3    H239710   5.640   6.552  14.452 -0.0593 -1.4011  1.0675
 6099TIP3   OH239711   4.711   5.047   3.516  0.3122 -0.4995 -0.6117
 6099TIP3    H139712   4.746   5.046   3.427 -0.2928  0.7698 -0.8900
 6099TIP3    H239713   4.715   5.139   3.543 -0.9651 -0.6194  0.0752
 6100TIP3   OH239714   3.975   0.957   3.729  0.1088 -0.7073 -0.2670
 6100TIP3    H139715   3.929   1.015   3.790  0.7764  1.3989 -1.6368
 6100TIP3    H239716   3.994   1.013   3.653  1.1337 -2.6567 -1.5281
 6101TIP3   OH239717   0.189   3.391   3.159 -0.1073  0.4120 -0.2513
 6101TIP3    H139718   0.180   3.445   3.237  1.2227  1.8340 -1.0351
 6101TIP3    H239719   0.198   3.453   3.087  0.7880 -0.8421 -1.2867
 6102TIP3   OH239720   5.917   6.303  14.398 -0.1208  0.4662 -1.0254
 6102TIP3    H139721   5.875   6.226  14.436  2.2061 -1.3830 -1.8779
 6102TIP3    H239722   5.964   6.344  14.471 -1.4797  1.1979 -0.5395
 6103TIP3   OH239723   0.600   5.936  10.989 -0.5610  0.0159 -0.1663
 6103TIP3    H139724   0.559   5.924  10.903 -2.2337 -1.6642  0.7689
 6103TIP3    H239725   0.634   5.849  11.011  0.1039  0.4939  0.7375
 6104TIP3   OH239726   4.053   6.155   5.324  0.4779 -0.4776  0.5504
 6104TIP3    H139727   4.091   6.073   5.293  2.1886  0.2863  0.5081
 6104TIP3    H239728   4.081   6.221   5.261 -1.8573 -0.0050 -0.0701
 6105TIP3   OH239729   4.413   2.428  16.773  0.6593 -0.0430 -0.0483
 6105TIP3    H139730   4.321   2.454  16.762  0.9639  0.6485 -1.0871
 6105TIP3    H239731   4.442   2.406  16.685  1.7306  0.5345  0.1513
 6106TIP3   OH239732   1.790   2.409   1.196 -0.1116 -0.3255  0.4007
 6106TIP3    H139733   1.863   2.458   1.235 -0.4806  0.4837  0.1026
 6106TIP3    H239734   1.814   2.402   1.103 -0.5277  0.1596  0.2556
 6107TIP3   OH239735   2.021   5.483  13.639  0.7295  0.2065 -0.0920
 6107TIP3    H139736   2.016   5.577  13.621 -0.3002 -0.0035 -1.0825
 6107TIP3    H239737   2.101   5.472  13.689  1.0110  1.5788 -0.1959
 6108TIP3   OH239738   1.234   4.700  15.522  0.1163 -0.1565  0.3701
 6108TIP3    H139739   1.257   4.639  15.592  1.9604  2.0950  1.8610
 6108TIP3    H239740   1.140   4.717  15.535  0.2265 -0.4815  1.7161
 6109TIP3   OH239741   0.530   0.242  16.687  0.4770  0.1746 -0.1096
 6109TIP3    H139742   0.592   0.284  16.628  1.8284 -0.5092  0.7832
 6109TIP3    H239743   0.518   0.305  16.758  0.6483  0.0354  0.0420
 6110TIP3   OH239744   2.734   2.356  16.406  0.0464  0.3263  0.4213
 6110TIP3    H139745   2.792   2.420  16.365  1.3540 -1.3473 -0.4451
 6110TIP3    H239746   2.661   2.408  16.440  0.6978  2.1757 -0.8759
 6111TIP3   OH239747   4.046   6.307  11.327  0.2613 -0.2749 -0.8090
 6111TIP3    H139748   3.956   6.276  11.329  0.5254 -1.0484 -0.1348
 6111TIP3    H239749   4.099   6.227  11.326  0.9696  0.0786  1.6308
 6112TIP3   OH239750   0.887   1.358  16.569 -0.1027 -0.1831 -0.4739
 6112TIP3    H139751   0.910   1.380  16.479  1.1128  0.6255  0.0014
 6112TIP3    H239752   0.817   1.294  16.561  1.0781 -1.3573 -2.0068
 6113TIP3   OH239753   6.670   2.820  11.378 -0.1082  0.0693  0.2813
 6113TIP3    H139754   6.612   2.809  11.302  0.8206  1.5554 -0.7122
 6113TIP3    H239755   6.757   2.799  11.344  0.1983 -0.1903  1.2091
 6114TIP3   OH239756   5.153   5.728  12.056 -0.6237 -0.1826  0.3702
 6114TIP3    H139757   5.190   5.814  12.034 -0.3998  0.0111  1.4869
 6114TIP3    H239758   5.210   5.694  12.125 -1.2370 -0.8450  0.5575
 6115TIP3   OH239759   2.231   4.648  14.609 -0.3617 -0.2905  0.0992
 6115TIP3    H139760   2.197   4.737  14.618 -0.5967 -0.4990  1.4566
 6115TIP3    H239761   2.320   4.653  14.645 -1.3743 -1.1861  2.9731
 6116TIP3   OH239762   3.218   1.293   4.534 -0.7144  0.4590  0.3105
 6116TIP3    H139763   3.159   1.252   4.470  0.0467 -0.6397  0.2931
 6116TIP3    H239764   3.301   1.249   4.522 -0.5649  0.1632  2.1261
 6117TIP3   OH239765   1.467   0.482  11.773  0.1753 -0.1300  0.2108
 6117TIP3    H139766   1.443   0.573  11.758 -1.0743 -0.4283  0.2605
 6117TIP3    H239767   1.474   0.443  11.686  0.5563 -0.0344  0.1956
 6118TIP3   OH239768   2.800   1.252   0.186  0.4260  0.4006 -0.1203
 6118TIP3    H139769   2.782   1.220   0.097  0.2701 -0.7631  0.3100
 6118TIP3    H239770   2.800   1.173   0.240  0.9682  1.0435  0.8505
 6119TIP3   OH239771   1.238   2.920   0.953 -0.6538  0.1509  0.1744
 6119TIP3    H139772   1.215   2.973   0.876  1.7591  0.4368 -0.4306
 6119TIP3    H239773   1.171   2.851   0.955 -3.7246  2.8799  0.7781
 6120TIP3   OH239774   0.119   6.477   3.172 -0.1248 -0.0889  0.2275
 6120TIP3    H139775   0.028   6.482   3.202  0.0291  0.3922  0.6204
 6120TIP3    H239776   0.114   6.488   3.077 -0.2754  2.5076  0.4642
 6121TIP3   OH239777   1.244   2.431  10.406 -0.2151 -0.3729  0.1572
 6121TIP3    H139778   1.197   2.500  10.361 -0.3885 -1.2344 -1.0292
 6121TIP3    H239779   1.186   2.405  10.478 -0.9746 -0.5466 -0.5092
 6122TIP3   OH239780   1.593   2.809   0.187 -0.0195 -0.4011  0.9047
 6122TIP3    H139781   1.623   2.889   0.231  0.1252 -0.6586  1.2778
 6122TIP3    H239782   1.505   2.831   0.155  0.4309  0.2501  0.0796
 6123TIP3   OH239783   4.554   1.800  17.265  0.3062  0.5056  0.4434
 6123TIP3    H139784   4.619   1.791  17.334 -1.7905  2.5429  2.8957
 6123TIP3    H239785   4.574   1.884  17.224  0.2002  0.3557  0.0805
 6124TIP3   OH239786   3.965   3.743  12.878 -0.3338  0.2947  0.5332
 6124TIP3    H139787   3.953   3.748  12.783 -0.2720 -0.5565  0.4684
 6124TIP3    H239788   3.982   3.650  12.894 -0.9450  0.3334  1.4517
 6125TIP3   OH239789   6.020   2.440   5.952 -0.3130 -0.4552 -0.2114
 6125TIP3    H139790   5.934   2.412   5.920 -1.2849  1.2354  0.7268
 6125TIP3    H239791   6.058   2.362   5.992 -1.0048 -1.4514 -1.4104
 6126TIP3   OH239792   1.409   1.180   3.468  0.0579  0.2766  0.4131
 6126TIP3    H139793   1.441   1.117   3.403  0.6987 -0.6298  1.5734
 6126TIP3    H239794   1.359   1.244   3.416  2.1471  0.6865 -1.2252
 6127TIP3   OH239795   0.662   5.879  12.382  0.1172 -0.8282  0.7241
 6127TIP3    H139796   0.670   5.787  12.405 -0.4074 -0.8911  0.6502
 6127TIP3    H239797   0.635   5.922  12.463 -0.6553 -0.8903  0.4995
 6128TIP3   OH239798   0.068   6.034  16.305 -0.4563  0.6702 -0.7724
 6128TIP3    H139799   0.056   6.084  16.225 -0.6209  1.1058 -0.4814
 6128TIP3    H239800   0.016   6.081  16.371  1.0872  1.3685  0.0232
 6129TIP3   OH239801   4.063   4.149  16.682 -0.2960  0.2202 -0.4138
 6129TIP3    H139802   4.093   4.153  16.772 -1.0336 -0.1197 -0.1470
 6129TIP3    H239803   3.974   4.184  16.684 -0.1228  0.7327 -1.1050
 6130TIP3   OH239804   0.268   2.350   3.585 -0.6470  0.2948 -0.1206
 6130TIP3    H139805   0.349   2.390   3.617  0.8562 -2.3313 -0.4268
 6130TIP3    H239806   0.203   2.372   3.652  1.2745 -0.8397  2.2656
 6131TIP3   OH239807   6.163   5.080  17.303  0.1551  0.1456  0.3965
 6131TIP3    H139808   6.248   5.073  17.347  0.7740 -2.1151 -0.9654
 6131TIP3    H239809   6.140   4.990  17.281 -1.0135  0.9700 -2.1729
 6132TIP3   OH239810   1.687   3.079   1.258 -0.0383  0.3642  0.6630
 6132TIP3    H139811   1.634   3.076   1.178  0.6610 -1.1079  0.2065
 6132TIP3    H239812   1.715   3.170   1.264 -0.4254  0.5943 -0.5578
 6133TIP3   OH239813   3.189   1.958  12.593 -0.5497 -0.6387 -0.2339
 6133TIP3    H139814   3.257   1.914  12.645 -0.9907 -0.6761  0.3188
 6133TIP3    H239815   3.107   1.924  12.627 -0.9244  0.8943  0.4868
 6134TIP3   OH239816   4.299   4.485  13.630  0.5699  0.0585  0.1181
 6134TIP3    H139817   4.229   4.432  13.669  0.7033  0.3590  0.7815
 6134TIP3    H239818   4.300   4.459  13.538  2.4480 -3.1466  0.8808
 6135TIP3   OH239819   2.252   2.870   0.531  0.4040 -0.1431 -0.1222
 6135TIP3    H139820   2.298   2.826   0.460  1.0919 -0.5284  0.5537
 6135TIP3    H239821   2.159   2.859   0.509  0.5933  1.0086 -1.7164
 6136TIP3   OH239822   1.850   2.362  12.979  0.3701  0.0658 -0.0151
 6136TIP3    H139823   1.894   2.355  12.894 -1.2513  1.0929 -0.9872
 6136TIP3    H239824   1.861   2.454  13.004 -0.2769  0.0801  0.2379
 6137TIP3   OH239825   5.799   4.021   4.793 -0.3139 -0.2717 -0.2919
 6137TIP3    H139826   5.890   4.036   4.766 -0.5651  0.4962 -0.7254
 6137TIP3    H239827   5.787   3.927   4.783  0.7065 -0.5364  0.6376
 6138TIP3   OH239828   0.534   0.115   5.625 -0.5217  0.7501 -0.1770
 6138TIP3    H139829   0.464   0.070   5.673 -1.2800  1.5809 -0.4820
 6138TIP3    H239830   0.526   0.206   5.651  1.2506  0.6923  0.7394
 6139TIP3   OH239831   0.375   3.265   4.154 -0.0905 -0.3916  0.3060
 6139TIP3    H139832   0.354   3.247   4.063  0.7931  0.5950 -0.1103
 6139TIP3    H239833   0.378   3.178   4.196  2.1978 -1.1383 -1.2054
 6140TIP3   OH239834   4.436   2.162   2.317 -0.2407 -0.4479  0.0747
 6140TIP3    H139835   4.347   2.128   2.312 -0.6611  0.1715  2.1103
 6140TIP3    H239836   4.471   2.154   2.229 -1.7505 -2.2150 -0.4108
 6141TIP3   OH239837   5.820   5.301   2.663  0.2857  0.3581 -0.6252
 6141TIP3    H139838   5.732   5.291   2.698  1.9030 -2.3599  3.3716
 6141TIP3    H239839   5.856   5.377   2.710  1.1330 -0.7170  0.5193
 6142TIP3   OH239840   3.647   0.315  12.661 -0.1365 -0.4729 -0.3310
 6142TIP3    H139841   3.640   0.302  12.755  0.6462  0.0682 -0.1889
 6142TIP3    H239842   3.690   0.400  12.651 -0.0383 -0.6085 -1.1690
 6143TIP3   OH239843   0.031   0.297   1.912 -0.0707  0.8168 -0.7464
 6143TIP3    H139844   0.015   0.288   1.818  1.4497  1.5140 -1.0961
 6143TIP3    H239845   0.051   0.389   1.925  1.7550  0.3595 -0.0856
 6144TIP3   OH239846   1.946   3.706  14.308 -0.0161  0.1402  0.6066
 6144TIP3    H139847   1.878   3.772  14.325  0.7776  0.3880  3.4571
 6144TIP3    H239848   1.911   3.626  14.347  0.6415 -0.1283  0.6517
 6145TIP3   OH239849   3.022   0.833   2.704  0.0250 -0.4279  0.1925
 6145TIP3    H139850   2.977   0.909   2.743 -0.5585  0.1486 -1.5091
 6145TIP3    H239851   3.085   0.872   2.643  0.3401 -1.3027 -0.0462
 6146TIP3   OH239852   0.404   0.940  15.653  0.2134 -0.5947  0.8821
 6146TIP3    H139853   0.418   0.954  15.746  1.1654 -0.2018  0.6890
 6146TIP3    H239854   0.372   0.850  15.647  1.9293 -1.2898  1.4518
 6147TIP3   OH239855   5.514   1.043  12.270  0.2694  0.0495 -0.4052
 6147TIP3    H139856   5.443   1.093  12.231  0.8358 -0.9900 -2.9662
 6147TIP3    H239857   5.593   1.093  12.252  0.4670  0.0237  0.3203
 6148TIP3   OH239858   2.946   6.007  14.957 -0.1478  0.3110 -0.2385
 6148TIP3    H139859   2.999   6.061  14.898 -0.0651  2.3881  1.5866
 6148TIP3    H239860   2.856   6.021  14.927 -0.1095  1.3874  0.0859
 6149TIP3   OH239861   2.612   6.707  10.938 -0.1347 -0.2751  0.0035
 6149TIP3    H139862   2.573   6.684  11.023 -0.1437 -1.2555 -0.2496
 6149TIP3    H239863   2.540   6.745  10.888 -0.2770 -0.2559  0.2208
 6150TIP3   OH239864   3.765   2.880  13.453  0.2598  0.0438 -1.0272
 6150TIP3    H139865   3.795   2.968  13.476 -1.4791  0.6606 -0.9330
 6150TIP3    H239866   3.672   2.891  13.433 -0.3048 -1.9633  0.1754
 6151TIP3   OH239867   1.793   3.398   2.844  0.2565 -0.1626  0.2341
 6151TIP3    H139868   1.880   3.359   2.833  0.1508 -0.6188  0.9746
 6151TIP3    H239869   1.773   3.436   2.759  0.4686 -1.5109 -0.4437
 6152TIP3   OH239870   0.127   1.617  12.520  0.1633  0.2531 -0.2295
 6152TIP3    H139871   0.042   1.597  12.481 -0.0165  1.5549 -0.5459
 6152TIP3    H239872   0.107   1.647  12.609  0.3005  0.4353 -0.2587
 6153TIP3   OH239873   5.899   2.472  12.670  0.0401 -0.4264 -0.0273
 6153TIP3    H139874   5.931   2.441  12.754  1.4943  2.4585  0.6132
 6153TIP3    H239875   5.882   2.393  12.619  2.9825 -2.2313  1.5696
 6154TIP3   OH239876   4.647   3.529   1.255  0.2264 -0.5139  0.6009
 6154TIP3    H139877   4.572   3.473   1.233  0.2007 -0.0942 -0.4305
 6154TIP3    H239878   4.622   3.616   1.224  1.5644 -0.5707 -0.8023
 6155TIP3   OH239879   3.725   5.822   0.189  0.0253 -0.4642 -0.0558
 6155TIP3    H139880   3.805   5.874   0.202 -0.3885 -0.0224  0.7986
 6155TIP3    H239881   3.740   5.776   0.106  0.5859  0.6661 -0.6033
 6156TIP3   OH239882   1.504   5.792   4.953  0.0395  0.2515 -0.0744
 6156TIP3    H139883   1.501   5.785   5.049  1.4757 -1.6407 -0.0943
 6156TIP3    H239884   1.506   5.885   4.935  1.5586  0.6407  1.8405
 6157TIP3   OH239885   0.516   4.851  13.694 -0.0618  0.3668  0.0158
 6157TIP3    H139886   0.562   4.807  13.766  0.6302 -0.5572 -0.9693
 6157TIP3    H239887   0.444   4.793  13.672 -0.1475  0.5463 -0.1851
 6158TIP3   OH239888   5.379   6.199  15.014 -0.1331  0.2724 -0.5988
 6158TIP3    H139889   5.474   6.199  15.023 -0.1670 -1.6451  0.3182
 6158TIP3    H239890   5.364   6.202  14.919  0.7407  2.6844 -0.7252
 6159TIP3   OH239891   3.253   0.633  12.246 -0.4365 -0.4582 -0.0729
 6159TIP3    H139892   3.236   0.692  12.172  1.2060 -0.9518 -0.9062
 6159TIP3    H239893   3.348   0.617  12.242 -0.2166 -0.1161  2.4640
 6160TIP3   OH239894   0.240   4.585  14.636 -0.1972 -0.3035 -0.0389
 6160TIP3    H139895   0.304   4.639  14.683 -0.1904 -1.4128  1.3047
 6160TIP3    H239896   0.188   4.647  14.586  0.8577  0.7755  0.1590
 6161TIP3   OH239897   0.497   5.527  11.753 -0.2336 -0.0872 -0.2382
 6161TIP3    H139898   0.536   5.508  11.667  1.2623  0.1683  0.3480
 6161TIP3    H239899   0.543   5.469  11.814 -2.1762 -1.2029  0.2525
 6162TIP3   OH239900   3.772   3.211   1.398  0.0116 -0.1993  0.4000
 6162TIP3    H139901   3.694   3.222   1.452 -0.2072 -2.1845  0.5620
 6162TIP3    H239902   3.837   3.171   1.456  0.7399  0.2395 -0.0795
 6163TIP3   OH239903   1.018   4.457  13.910 -0.4903 -0.1920  0.3455
 6163TIP3    H139904   1.069   4.536  13.927  1.7488 -1.7093  1.1435
 6163TIP3    H239905   1.015   4.451  13.814  0.7500  0.0168  0.2782
 6164TIP3   OH239906   1.489   2.687  16.919 -0.1443  0.1172 -0.0028
 6164TIP3    H139907   1.524   2.609  16.962  0.5266 -0.3449 -1.3377
 6164TIP3    H239908   1.394   2.674  16.918 -0.0634 -0.5036  0.1276
 6165TIP3   OH239909   2.177   1.462   1.205 -0.1614  0.3979 -0.5703
 6165TIP3    H139910   2.140   1.395   1.262  2.3304  0.8141  1.7520
 6165TIP3    H239911   2.171   1.543   1.257  2.9549  0.6352 -0.4110
 6166TIP3   OH239912   2.009   1.507   5.687 -0.4675 -0.1214 -0.2577
 6166TIP3    H139913   1.915   1.509   5.667 -0.4590  1.3755 -0.2148
 6166TIP3    H239914   2.023   1.420   5.724 -1.6082 -0.8082 -1.3501
 6167TIP3   OH239915   1.456   1.428  11.861  0.6849 -0.0133  0.5691
 6167TIP3    H139916   1.401   1.498  11.827 -0.1923 -0.9926 -0.1009
 6167TIP3    H239917   1.492   1.385  11.783  1.5976 -0.0305  0.9793
 6168TIP3   OH239918   2.620   5.085  13.828  0.1424 -0.4933  0.0221
 6168TIP3    H139919   2.642   5.015  13.765 -1.1530 -0.5016 -0.4399
 6168TIP3    H239920   2.564   5.043  13.893  2.3894 -0.7763  1.9222
 6169TIP3   OH239921   4.289   5.132   3.029 -0.2390 -0.3041  0.0297
 6169TIP3    H139922   4.363   5.184   3.059 -0.3149  0.2171 -0.6509
 6169TIP3    H239923   4.212   5.180   3.060 -0.3666  1.0193 -2.0882
 6170TIP3   OH239924   2.332   3.250   4.943  0.0639 -0.1538  0.3402
 6170TIP3    H139925   2.267   3.316   4.920 -0.3775 -0.5788  0.3402
 6170TIP3    H239926   2.340   3.195   4.865 -0.0002 -0.4387  0.5297
 6171TIP3   OH239927   0.488   4.014   3.182 -0.3263  0.1915 -0.7801
 6171TIP3    H139928   0.437   4.073   3.236  0.4365  0.3078 -0.1727
 6171TIP3    H239929   0.435   3.934   3.177 -0.6770  0.3971 -0.3687
 6172TIP3   OH239930   6.003   3.081   4.366 -0.0747  0.1483 -0.0641
 6172TIP3    H139931   5.934   3.083   4.432 -1.0197  1.5643 -1.0217
 6172TIP3    H239932   5.999   2.993   4.329 -1.7049  0.3303 -0.3903
 6173TIP3   OH239933   3.427   0.292  16.260 -0.7064  0.0885 -0.2253
 6173TIP3    H139934   3.486   0.254  16.195  0.6521  1.7718 -0.0624
 6173TIP3    H239935   3.382   0.362  16.213  1.5525  2.5033  0.8966
 6174TIP3   OH239936   1.985   0.670   5.953  1.0427  0.3204 -0.0553
 6174TIP3    H139937   2.056   0.624   5.907 -0.1521  0.5657 -2.3110
 6174TIP3    H239938   1.984   0.757   5.913 -0.9387  0.0964 -0.5786
 6175TIP3   OH239939   6.312   4.607  16.079  0.2900 -0.7109 -0.3141
 6175TIP3    H139940   6.340   4.640  16.164 -0.8765  0.8639 -0.5215
 6175TIP3    H239941   6.374   4.645  16.017 -0.6222  0.5675 -0.4719
 6176TIP3   OH239942   6.310   0.957  11.010 -0.0491  0.4260  0.3502
 6176TIP3    H139943   6.360   1.022  10.959  0.4552 -0.6161 -0.5398
 6176TIP3    H239944   6.243   0.926  10.949  1.6669 -2.1432 -0.4153
 6177TIP3   OH239945   6.635   4.500  12.485  0.3236 -0.0322 -0.8129
 6177TIP3    H139946   6.641   4.433  12.553 -0.1439  2.1672  1.5431
 6177TIP3    H239947   6.543   4.501  12.461  0.2573  0.0307 -0.5616
 6178TIP3   OH239948   4.353   6.210   5.382 -0.0021  0.0156  0.1194
 6178TIP3    H139949   4.305   6.132   5.411  0.3639 -0.2273  0.0782
 6178TIP3    H239950   4.289   6.281   5.388 -0.4353 -0.3434 -0.1505
 6179TIP3   OH239951   1.095   6.343   2.765 -0.0193 -0.7636 -0.3540
 6179TIP3    H139952   1.016   6.379   2.806  0.1985 -1.9295  1.1507
 6179TIP3    H239953   1.166   6.364   2.826  0.5802 -1.1758 -0.8904
 6180TIP3   OH239954   4.866   3.242   6.572 -0.1367 -0.4306  0.0658
 6180TIP3    H139955   4.945   3.295   6.563  0.1020 -0.4427  1.8554
 6180TIP3    H239956   4.852   3.205   6.484 -0.3535  2.5937 -1.2859
 6181TIP3   OH239957   6.620   0.830   3.195 -0.0559  0.7427  0.2910
 6181TIP3    H139958   6.636   0.803   3.285 -1.4799 -1.1194  0.0433
 6181TIP3    H239959   6.545   0.889   3.200 -1.1113 -0.5389  0.2332
 6182TIP3   OH239960   5.278   2.129  14.203  0.3314  0.0636  0.2529
 6182TIP3    H139961   5.206   2.127  14.265  0.8803  1.0235  0.9455
 6182TIP3    H239962   5.281   2.041  14.166 -1.2077  0.0190  0.1728
 6183TIP3   OH239963   3.056   2.367   3.742 -0.2732 -0.0944  0.5437
 6183TIP3    H139964   3.012   2.405   3.818  0.5898  1.8706  0.1525
 6183TIP3    H239965   3.104   2.292   3.777 -0.7675  0.1139  1.7216
 6184TIP3   OH239966   4.625   4.302  16.155  0.2839  0.0532  0.3091
 6184TIP3    H139967   4.616   4.386  16.110 -0.1372 -0.7730 -1.2234
 6184TIP3    H239968   4.592   4.319  16.243  1.6920  1.8872  0.5500
 6185TIP3   OH239969   3.477   0.878  12.632  0.1398  0.7932  0.4779
 6185TIP3    H139970   3.570   0.901  12.633  0.3038  0.5291 -2.0096
 6185TIP3    H239971   3.473   0.797  12.582 -1.3851  0.4198  1.1535
 6186TIP3   OH239972   6.624   0.622   3.896  0.0757  0.3200  0.7106
 6186TIP3    H139973   6.701   0.655   3.943  0.8073  0.5070 -0.5709
 6186TIP3    H239974   6.635   0.654   3.807 -0.6015 -1.1525  0.0736
 6187TIP3   OH239975   1.885   3.120  13.206 -0.0253 -0.3007  0.3299
 6187TIP3    H139976   1.909   3.199  13.158  0.2169  0.6400  1.9342
 6187TIP3    H239977   1.878   3.052  13.138  1.2164  0.7423 -0.9054
 6188TIP3   OH239978   5.602   0.423   0.868  0.0110  0.7932 -0.1728
 6188TIP3    H139979   5.621   0.360   0.799  1.1525  1.5307 -0.5542
 6188TIP3    H239980   5.569   0.370   0.941  1.5843 -0.3362 -0.2417
 6189TIP3   OH239981   5.680   3.356  14.322  0.5210  0.0412  0.4115
 6189TIP3    H139982   5.711   3.425  14.264  1.8269  0.9651  2.1286
 6189TIP3    H239983   5.740   3.283  14.307 -0.4567 -0.5425 -0.9136
 6190TIP3   OH239984   4.394   4.256   1.337 -0.2357  0.7989  0.7615
 6190TIP3    H139985   4.405   4.343   1.376 -1.0450  0.3848  1.9367
 6190TIP3    H239986   4.359   4.202   1.407 -1.5762 -0.0150 -0.4912
 6191TIP3   OH239987   3.616   0.621   6.379 -0.4501  0.1754 -0.0806
 6191TIP3    H139988   3.603   0.536   6.337  1.2042 -0.5501  0.7742
 6191TIP3    H239989   3.690   0.659   6.332 -0.0579  0.3552  0.6709
 6192TIP3   OH239990   2.362   4.833   0.950  0.5064 -0.2819  0.4635
 6192TIP3    H139991   2.289   4.873   0.903 -0.7484 -1.9977  0.8212
 6192TIP3    H239992   2.361   4.875   1.036  0.3366  0.1555  0.2484
 6193TIP3   OH239993   2.830   0.041  14.185 -0.2132  0.1686  0.1994
 6193TIP3    H139994   2.900  -0.007  14.229 -0.4293  0.3285  0.7206
 6193TIP3    H239995   2.758  -0.022  14.180 -0.7547  0.6633  1.5507
 6194TIP3   OH239996   0.611   6.380  13.151  0.0469  0.0333  0.0343
 6194TIP3    H139997   0.523   6.418  13.150  0.2289  0.4498 -0.8817
 6194TIP3    H239998   0.646   6.402  13.237  0.2560  2.2018 -0.5462
 6195TIP3   OH239999   1.892   4.974  13.798 -0.9368  0.4220  0.2186
 6195TIP3    H140000   1.818   4.914  13.789  0.2353 -1.3712  1.6574
 6195TIP3    H240001   1.885   5.007  13.888 -0.4870  0.9197  0.0761
 6196TIP3   OH240002   3.584   2.815   2.900 -0.6755  0.3112  0.4409
 6196TIP3    H140003   3.495   2.780   2.905 -1.0708  1.2425  0.1307
 6196TIP3    H240004   3.590   2.853   2.812 -0.1404  0.6836  0.6324
 6197TIP3   OH240005   5.232   0.689  12.052  0.1907  0.6702 -0.0756
 6197TIP3    H140006   5.238   0.719  12.143 -1.8277  0.6797  0.1082
 6197TIP3    H240007   5.186   0.760  12.007  0.8199  0.4895 -1.0268
 6198TIP3   OH240008   0.254   3.937   2.262 -0.4213  0.2598 -0.2496
 6198TIP3    H140009   0.274   3.855   2.308 -0.4251 -0.0840 -0.8504
 6198TIP3    H240010   0.163   3.955   2.284 -0.3782  0.1828 -0.0010
 6199TIP3   OH240011   2.688   3.521  15.225  0.0240  0.4602  0.6262
 6199TIP3    H140012   2.750   3.462  15.181 -0.0638 -0.3631  1.5633
 6199TIP3    H240013   2.620   3.537  15.159  0.1677 -0.3149  0.2736
 6200TIP3   OH240014   4.881   3.521   4.023  0.3816 -0.0140 -0.3892
 6200TIP3    H140015   4.866   3.578   3.947 -0.8649  0.1500 -0.0372
 6200TIP3    H240016   4.922   3.578   4.088 -2.0314  0.8867  0.4414
 6201TIP3   OH240017   2.606   4.476   3.374  0.2808  0.1913 -0.1113
 6201TIP3    H140018   2.533   4.478   3.437  0.3225 -0.1343 -0.0510
 6201TIP3    H240019   2.671   4.418   3.414 -0.8278 -2.3062 -1.6696
 6202TIP3   OH240020   4.867   5.788  17.212  0.8147 -0.4425  0.3090
 6202TIP3    H140021   4.939   5.845  17.237  0.6532 -0.5620  1.0769
 6202TIP3    H240022   4.797   5.807  17.275 -0.4773  0.8938 -1.4219
 6203TIP3   OH240023   0.673   0.911  12.339  0.1384  0.0344 -0.0903
 6203TIP3    H140024   0.726   0.954  12.272  1.3578 -1.1050  0.1043
 6203TIP3    H240025   0.653   0.825  12.303  0.2739 -0.3570  0.7402
 6204TIP3   OH240026   4.318   3.633   3.033  0.2920  0.1337 -0.4127
 6204TIP3    H140027   4.376   3.700   2.998 -1.1223  1.5994 -0.0650
 6204TIP3    H240028   4.277   3.673   3.109 -0.6421 -1.1089 -0.2255
 6205TIP3   OH240029   4.825   2.191   5.643  0.1506  0.2460  0.0774
 6205TIP3    H140030   4.823   2.107   5.598 -0.3953  0.1013  0.3673
 6205TIP3    H240031   4.845   2.169   5.734 -0.1122  0.4175  0.1791
 6206TIP3   OH240032   1.217   0.460   0.554 -0.0843  0.4750  0.6826
 6206TIP3    H140033   1.134   0.505   0.543  0.0956  0.3864 -1.5610
 6206TIP3    H240034   1.277   0.507   0.496  0.4461 -1.7628 -0.6876
 6207TIP3   OH240035   3.553   3.565   1.856  0.0313 -0.1440 -0.4446
 6207TIP3    H140036   3.462   3.562   1.885  0.1981  0.6883  0.1810
 6207TIP3    H240037   3.601   3.514   1.922  0.1237  0.0141 -0.3904
 6208TIP3   OH240038   4.609   6.014   4.951  0.0703 -0.2887  0.2262
 6208TIP3    H140039   4.638   6.090   5.001  0.2369 -0.0681 -0.1956
 6208TIP3    H240040   4.515   6.008   4.967  0.0676 -0.0243  0.3011
 6209TIP3   OH240041   5.594   4.099   2.726  0.1395  0.1309 -0.2479
 6209TIP3    H140042   5.615   4.007   2.743  1.2892  0.2751 -0.7691
 6209TIP3    H240043   5.678   4.138   2.699 -0.0585  1.6387  1.2069
 6210TIP3   OH240044   2.225   3.119  14.124 -0.4887 -0.3565  0.4936
 6210TIP3    H140045   2.228   3.213  14.137  2.0665 -0.4371  0.9487
 6210TIP3    H240046   2.219   3.082  14.212  2.8352 -0.6091  0.7539
 6211TIP3   OH240047   1.303   0.405   6.066  0.3486  0.3385 -0.2288
 6211TIP3    H140048   1.234   0.428   6.129  2.0984 -0.8867  2.3339
 6211TIP3    H240049   1.379   0.456   6.095  1.2421 -0.3596 -1.2824
 6212TIP3   OH240050   5.910   1.053   3.253  0.0465 -0.1615  0.3502
 6212TIP3    H140051   5.886   1.097   3.172  0.2392 -0.7921 -0.0545
 6212TIP3    H240052   5.833   1.002   3.277  0.6128 -1.4129 -0.4241
 6213TIP3   OH240053   4.397   4.919   2.210  0.6367 -0.1373  0.2977
 6213TIP3    H140054   4.428   4.970   2.285  0.1189  1.4540 -0.5239
 6213TIP3    H240055   4.446   4.954   2.135 -0.6659  0.0680 -0.4917
 6214TIP3   OH240056   0.878   0.435  15.135 -0.4841 -0.2217  1.1309
 6214TIP3    H140057   0.930   0.416  15.213 -0.9212 -0.9994  1.2463
 6214TIP3    H240058   0.903   0.524  15.111  0.2210 -0.2497  1.7114
 6215TIP3   OH240059   2.919   1.181   5.611 -0.3904  0.0457 -0.0918
 6215TIP3    H140060   2.844   1.137   5.651 -0.2678 -0.8139 -0.7516
 6215TIP3    H240061   2.885   1.214   5.528 -0.7407  2.1299  0.8244
 6216TIP3   OH240062   5.994   2.475  12.339 -0.9889  0.3889  0.5164
 6216TIP3    H140063   6.017   2.449  12.429 -2.1094  2.2873  1.4108
 6216TIP3    H240064   5.902   2.502  12.344 -0.7980  1.4645 -0.9692
 6217TIP3   OH240065   5.382   4.745  15.533 -0.7154  0.7144  0.4574
 6217TIP3    H140066   5.428   4.820  15.571 -0.4227  0.0973  1.3309
 6217TIP3    H240067   5.437   4.718  15.460 -0.0476  0.4260  1.0596
 6218TIP3   OH240068   6.591   4.461   1.117 -0.1445  0.3903 -0.0068
 6218TIP3    H140069   6.537   4.391   1.082 -0.3790 -0.5738  2.1030
 6218TIP3    H240070   6.639   4.421   1.190  0.1446  2.2623  0.9098
 6219TIP3   OH240071   3.517   4.878   1.311  0.3922 -0.2077  0.1769
 6219TIP3    H140072   3.448   4.813   1.297  0.5074 -0.2606 -0.1580
 6219TIP3    H240073   3.513   4.897   1.405 -0.4662  0.2336  0.0570
 6220TIP3   OH240074   2.611   5.914   5.428 -0.2218 -0.8078 -0.0551
 6220TIP3    H140075   2.668   5.899   5.352 -0.7857 -2.5855 -0.1753
 6220TIP3    H240076   2.671   5.941   5.497  0.1409  2.6645 -1.4785
 6221TIP3   OH240077   0.949   5.593  13.081  0.0621 -0.6807 -0.2222
 6221TIP3    H140078   1.015   5.530  13.051  0.2452 -1.2045  1.2344
 6221TIP3    H240079   0.997   5.656  13.134 -0.4178 -0.3501 -0.1660
 6222TIP3   OH240080   5.477   1.569  14.282  0.1046 -0.0418  0.0342
 6222TIP3    H140081   5.472   1.545  14.190  0.5323  0.4852 -0.1359
 6222TIP3    H240082   5.397   1.534  14.321 -0.9544  1.2260 -0.8943
 6223TIP3   OH240083   2.691   3.445  12.808  0.0493  0.4479  0.3554
 6223TIP3    H140084   2.639   3.491  12.743  0.0107  0.9796  0.7522
 6223TIP3    H240085   2.626   3.407  12.868  0.0689 -0.3837 -0.1284
 6224TIP3   OH240086   6.700   0.814  16.579 -0.0150 -0.4594 -0.0188
 6224TIP3    H140087   6.743   0.862  16.649 -1.3530 -1.3058  1.4581
 6224TIP3    H240088   6.635   0.875  16.544 -0.6208 -0.6353  0.7723
 6225TIP3   OH240089   6.334   0.318   6.116 -0.5492 -0.6973  0.7272
 6225TIP3    H140090   6.250   0.309   6.072  0.4780 -1.5027 -1.2079
 6225TIP3    H240091   6.392   0.257   6.070  1.5504  1.1278  0.7806
 6226TIP3   OH240092   1.487   4.247  17.211  0.1239  0.1602  0.4454
 6226TIP3    H140093   1.533   4.217  17.132 -0.9393 -1.3659  0.3626
 6226TIP3    H240094   1.554   4.246  17.280  1.1207  1.6995 -0.4251
 6227TIP3   OH240095   6.409   3.242  16.852 -0.2507 -0.6110  0.5390
 6227TIP3    H140096   6.491   3.192  16.850  0.6776  0.7928  1.5389
 6227TIP3    H240097   6.411   3.289  16.935 -1.2685  0.7748 -0.1610
 6228TIP3   OH240098   0.141   1.895  17.347 -0.5820 -0.5162 -0.2089
 6228TIP3    H140099   0.235   1.879  17.335 -0.1385  0.7409  1.2927
 6228TIP3    H240100   0.114   1.941  17.268  0.6037  1.1537  0.3037
 6229TIP3   OH240101   1.365   1.628  13.844 -0.3675  0.0037  0.0957
 6229TIP3    H140102   1.407   1.555  13.889 -0.2989  0.0514  0.1100
 6229TIP3    H240103   1.407   1.631  13.758  1.1248  1.3101  0.8111
 6230TIP3   OH240104   3.724   3.217  14.534 -0.0585 -0.2335  0.1989
 6230TIP3    H140105   3.772   3.250  14.458 -2.4274  0.4063 -1.1142
 6230TIP3    H240106   3.727   3.122  14.524 -0.1257 -0.1645 -0.5682
 6231TIP3   OH240107   3.872   3.656   0.949 -0.1189 -0.5062  0.0466
 6231TIP3    H140108   3.896   3.749   0.947 -1.3043 -0.1150  1.6959
 6231TIP3    H240109   3.945   3.612   0.905  1.0984  1.0870  0.3468
 6232TIP3   OH240110   4.710   2.519   2.644 -0.1047  0.4312 -0.2225
 6232TIP3    H140111   4.669   2.479   2.567 -0.6262 -0.4819  0.5131
 6232TIP3    H240112   4.700   2.613   2.630 -1.8553  0.2467 -0.4065
 6233TIP3   OH240113   0.348   2.447  12.979  0.5350  0.0565  0.1358
 6233TIP3    H140114   0.300   2.416  13.056 -0.2585  0.1573 -0.2995
 6233TIP3    H240115   0.329   2.541  12.976  1.1969  0.1982  0.2494
 6234TIP3   OH240116   5.649   3.442   0.705 -0.2573  0.6407  0.1441
 6234TIP3    H140117   5.685   3.496   0.776 -1.8484  0.4455  1.1481
 6234TIP3    H240118   5.617   3.505   0.640  1.3831  0.8207 -0.5372
 6235TIP3   OH240119   3.192   1.027   6.681 -0.3585  0.3680 -0.0821
 6235TIP3    H140120   3.280   1.061   6.689 -0.1888  0.0807 -0.6709
 6235TIP3    H240121   3.135   1.103   6.694  0.0260  1.1430 -2.5067
 6236TIP3   OH240122   3.590   3.550   5.559  0.5651 -0.1786  0.7204
 6236TIP3    H140123   3.636   3.467   5.547  0.1127 -0.4678  0.9323
 6236TIP3    H240124   3.498   3.524   5.568  0.2233  0.4471 -0.6531
 6237TIP3   OH240125   5.605   4.985  14.316 -0.6220 -0.3849 -0.2497
 6237TIP3    H140126   5.572   4.955  14.232 -0.5656 -0.0747 -0.3835
 6237TIP3    H240127   5.629   4.905  14.363  2.7545 -0.4996 -1.8888
 6238TIP3   OH240128   5.326   0.506  16.817 -0.1601  0.3053 -0.5025
 6238TIP3    H140129   5.329   0.591  16.773  0.4665 -0.7834 -2.6733
 6238TIP3    H240130   5.249   0.463  16.780  0.3548 -0.6252 -0.5117
 6239TIP3   OH240131   6.689   4.334   1.844  0.3181  0.2143 -0.0878
 6239TIP3    H140132   6.631   4.283   1.899  1.1096  0.5116  1.0526
 6239TIP3    H240133   6.692   4.286   1.761  1.5569 -1.9786  1.1435
 6240TIP3   OH240134   2.638   6.746  17.112 -0.3240 -0.2539 -0.2020
 6240TIP3    H140135   2.660   6.806  17.184 -0.7219 -0.7231  0.3220
 6240TIP3    H240136   2.573   6.687  17.150 -0.7547 -0.3270 -1.0420
 6241TIP3   OH240137   3.256   5.235   4.814 -0.3337 -0.3238 -0.3305
 6241TIP3    H140138   3.290   5.149   4.838  1.9518  0.4806 -0.4049
 6241TIP3    H240139   3.307   5.296   4.868 -1.2726  1.0386 -0.9306
 6242TIP3   OH240140   4.655   5.928   1.255  0.5364  0.0230  0.0382
 6242TIP3    H140141   4.626   5.839   1.273 -1.4357 -0.0636 -2.9666
 6242TIP3    H240142   4.574   5.976   1.237  1.4474  2.7273  2.3351
 6243TIP3   OH240143   6.593   0.890  13.725  0.5887  0.5525  0.2721
 6243TIP3    H140144   6.675   0.911  13.680  0.6137  0.6803  0.3769
 6243TIP3    H240145   6.614   0.897  13.818  1.4058 -2.8144  0.4511
 6244TIP3   OH240146   0.858   1.120   2.114 -0.3304  0.2362  0.3152
 6244TIP3    H140147   0.915   1.180   2.066 -0.5615  1.4618  1.5148
 6244TIP3    H240148   0.909   1.040   2.122  0.7090  0.8713  0.2228
 6245TIP3   OH240149   1.788   5.129  17.097 -0.1117 -0.5639  0.0140
 6245TIP3    H140150   1.872   5.088  17.076 -0.3581 -1.3527  0.5636
 6245TIP3    H240151   1.725   5.057  17.099 -0.7328 -0.0331  0.0160
 6246TIP3   OH240152   5.730   4.431  14.011  0.3508  0.0261 -0.0731
 6246TIP3    H140153   5.709   4.385  14.092 -2.2179  1.1157 -0.0075
 6246TIP3    H240154   5.825   4.442  14.013  0.4590 -0.8144  2.3220
 6247TIP3   OH240155   0.693   3.869  12.496  0.1855 -0.2066 -0.5213
 6247TIP3    H140156   0.622   3.893  12.555  1.7666 -0.9464  1.8497
 6247TIP3    H240157   0.699   3.774  12.502  1.1159 -0.1905 -0.9678
 6248TIP3   OH240158   4.314   1.208   2.800  0.2055  0.5636 -0.7234
 6248TIP3    H140159   4.234   1.255   2.822 -0.0665 -0.9447  1.8887
 6248TIP3    H240160   4.290   1.116   2.802  1.7671  0.1114 -0.9992
 6249TIP3   OH240161   5.913   2.892  15.343 -0.0265  0.2024  0.4078
 6249TIP3    H140162   6.003   2.921  15.359  1.1048 -1.1031 -2.8563
 6249TIP3    H240163   5.890   2.932  15.259 -1.9730 -0.7071  0.4681
 6250TIP3   OH240164   6.200   1.859  14.221  0.4337 -0.1145  0.0168
 6250TIP3    H140165   6.145   1.780  14.222  1.7591 -1.1306 -1.6145
 6250TIP3    H240166   6.258   1.848  14.296 -0.1328 -0.1084  0.4671
 6251TIP3   OH240167   1.192   3.573  13.812  0.6543  0.1293 -0.3264
 6251TIP3    H140168   1.122   3.586  13.749 -0.4862 -0.2301  0.8143
 6251TIP3    H240169   1.217   3.481  13.801 -0.7515 -0.4379  0.8825
 6252TIP3   OH240170   2.278   3.793   3.585 -0.4024  0.6293 -0.0505
 6252TIP3    H140171   2.211   3.733   3.618  1.7496 -3.7553 -2.7076
 6252TIP3    H240172   2.348   3.788   3.649  0.5130 -1.3463 -1.1363
 6253TIP3   OH240173   3.764   5.690   3.721  0.3652 -0.4451  0.0301
 6253TIP3    H140174   3.769   5.625   3.792  1.5440 -1.3817 -0.8639
 6253TIP3    H240175   3.788   5.642   3.642 -2.7796  0.0953 -1.4107
 6254TIP3   OH240176   2.826   5.546   2.095  0.3331 -0.2128  0.3105
 6254TIP3    H140177   2.816   5.455   2.123  1.3871 -0.2252  0.6716
 6254TIP3    H240178   2.794   5.546   2.004 -2.6046 -0.2765  1.2349
 6255TIP3   OH240179   5.295   6.617   2.452 -0.3677  0.1812  0.6308
 6255TIP3    H140180   5.227   6.646   2.393  0.0868 -1.5975 -0.8599
 6255TIP3    H240181   5.249   6.565   2.518 -0.6506  0.5096  0.6935
 6256TIP3   OH240182   6.469   3.078   5.581 -0.3208  0.1093  0.0133
 6256TIP3    H140183   6.422   3.013   5.530 -0.8990  0.2028  0.4166
 6256TIP3    H240184   6.408   3.151   5.590  0.1615  0.5368 -0.0648
 6257TIP3   OH240185   0.048   4.518   4.137 -0.2251  0.0994  0.6113
 6257TIP3    H140186   0.047   4.517   4.233  0.4082  1.6836  0.6836
 6257TIP3    H240187  -0.033   4.476   4.111 -1.0382  0.7985  1.8886
 6258TIP3   OH240188   5.381   3.919   5.957 -0.4064  0.4623  0.3276
 6258TIP3    H140189   5.396   3.954   6.046  1.1544  2.5589 -0.6597
 6258TIP3    H240190   5.296   3.953   5.932 -0.7550  0.0488  0.9323
 6259TIP3   OH240191   1.874   3.454  14.101 -0.0237  0.3099  0.1277
 6259TIP3    H140192   1.874   3.423  14.010  0.9563  1.1104 -0.1746
 6259TIP3    H240193   1.811   3.526  14.102  0.7517  1.0156 -0.2072
 6260TIP3   OH240194   6.212   0.841  14.872 -0.0339  0.0082  0.0821
 6260TIP3    H140195   6.210   0.921  14.821  1.0276 -0.8555 -1.4211
 6260TIP3    H240196   6.305   0.829  14.894 -0.5539  1.0774  3.5533
 6261TIP3   OH240197   0.140   4.743  16.511  0.4467  0.4393  0.5247
 6261TIP3    H140198   0.196   4.671  16.482 -0.4383  0.3293 -0.9852
 6261TIP3    H240199   0.197   4.797  16.567  1.6915 -0.3180  0.0201
 6262TIP3   OH240200   3.706   6.390  15.457  0.2324  0.7418 -0.2884
 6262TIP3    H140201   3.705   6.300  15.423  0.1273  0.8215 -0.4930
 6262TIP3    H240202   3.718   6.445  15.380 -1.0470  0.9810 -0.3330
 6263TIP3   OH240203   3.620   1.772   5.848 -0.2437 -0.2346 -0.0182
 6263TIP3    H140204   3.581   1.691   5.815  0.3149 -0.4521 -0.1690
 6263TIP3    H240205   3.558   1.804   5.913  0.8017 -2.3234  2.1708
 6264TIP3   OH240206   6.532   3.786  15.059  0.4864  0.9669 -0.0591
 6264TIP3    H140207   6.552   3.710  15.115 -0.0294  0.5126 -0.4813
 6264TIP3    H240208   6.608   3.844  15.070  1.1965  0.0996 -0.2363
 6265TIP3   OH240209   4.127   6.690  12.955  0.8154  0.5198 -0.0095
 6265TIP3    H140210   4.214   6.653  12.964  1.1347  0.7731 -1.7937
 6265TIP3    H240211   4.105   6.680  12.863 -2.2059 -2.0462  0.8171
 6266TIP3   OH240212   5.264   4.866  16.295 -0.4505 -0.0347  0.7639
 6266TIP3    H140213   5.329   4.871  16.366  1.0169 -0.1372 -0.5158
 6266TIP3    H240214   5.250   4.957  16.268  0.7395 -0.1384 -0.2942
 6267TIP3   OH240215   2.808   5.322   3.007 -0.1233 -0.2748  0.1976
 6267TIP3    H140216   2.811   5.228   3.025 -0.4343 -0.2965  0.1271
 6267TIP3    H240217   2.781   5.329   2.916 -1.5394 -0.0863  0.6116
 6268TIP3   OH240218   5.738   5.697  12.724  0.3088  0.4955  0.2577
 6268TIP3    H140219   5.757   5.791  12.730 -1.3227  0.8020  1.5158
 6268TIP3    H240220   5.753   5.675  12.632 -0.3819  2.2652 -0.3193
 6269TIP3   OH240221   5.165   4.026   0.312 -0.4333 -0.4089  0.2590
 6269TIP3    H140222   5.131   4.038   0.223 -1.9094  1.0935  0.9867
 6269TIP3    H240223   5.111   3.956   0.348  0.0809 -0.9277  0.0541
 6270TIP3   OH240224   0.595   3.151   6.252  0.5362 -0.2179 -0.1503
 6270TIP3    H140225   0.506   3.147   6.288  0.0816 -0.4155 -1.2824
 6270TIP3    H240226   0.639   3.217   6.306 -0.6497  0.7519 -0.3232
 6271TIP3   OH240227   0.177   0.977  15.355 -0.0371 -0.0201 -0.1180
 6271TIP3    H140228   0.115   1.037  15.397 -0.8821 -1.2432  0.4404
 6271TIP3    H240229   0.142   0.963  15.267 -0.1586 -0.1331 -0.0528
 6272TIP3   OH240230   1.653   2.394  16.289  0.2379  0.0190  0.6847
 6272TIP3    H140231   1.703   2.335  16.233 -0.9724 -0.7143  0.3416
 6272TIP3    H240232   1.607   2.337  16.351  0.9362  0.7696  1.9363
 6273TIP3   OH240233   4.848   0.172  11.186  0.4117 -0.0684  0.8059
 6273TIP3    H140234   4.818   0.106  11.123  1.7220 -0.0104  0.0820
 6273TIP3    H240235   4.918   0.128  11.234  1.2741  0.7768  0.3373
 6274TIP3   OH240236   4.287   3.559   2.380  0.1612  0.2728 -0.2518
 6274TIP3    H140237   4.214   3.580   2.322 -1.1306  0.4433  1.3541
 6274TIP3    H240238   4.273   3.468   2.405 -0.1158  0.5960  0.8573
 6275TIP3   OH240239   3.191   4.351   2.118  0.4137  0.1440 -0.1925
 6275TIP3    H140240   3.170   4.414   2.187 -1.5136  1.4799 -1.8971
 6275TIP3    H240241   3.270   4.385   2.077 -0.0305  0.8911 -0.4329
 6276TIP3   OH240242   3.522   4.136   1.590 -0.2285 -0.0481 -0.0688
 6276TIP3    H140243   3.509   4.055   1.640 -0.7579  0.6797  0.9972
 6276TIP3    H240244   3.614   4.133   1.564  0.9785  0.9288  3.5374
 6277TIP3   OH240245   3.435   6.637  11.301  0.7585 -0.3384 -0.0481
 6277TIP3    H140246   3.369   6.658  11.368 -0.1507  0.1926 -1.0867
 6277TIP3    H240247   3.517   6.668  11.339  0.3721 -0.6955  1.1212
 6278TIP3   OH240248   1.775   5.054  15.467  0.2780 -0.4673 -0.0375
 6278TIP3    H140249   1.707   4.987  15.470  0.0688 -0.2186  1.2505
 6278TIP3    H240250   1.754   5.114  15.538  2.0114 -0.5678  0.6250
 6279TIP3   OH240251   0.750   5.253   0.065  0.5946  0.1482 -0.7344
 6279TIP3    H140252   0.690   5.195   0.112 -1.0537  1.5039 -1.0436
 6279TIP3    H240253   0.781   5.202  -0.010  0.2328 -0.7482 -0.2820
 6280TIP3   OH240254   3.995   5.621  13.157 -0.4108 -0.4583  0.2548
 6280TIP3    H140255   4.061   5.660  13.214  1.7748 -3.4381  0.0175
 6280TIP3    H240256   3.960   5.548  13.208  0.0818 -1.8912 -1.3638
 6281TIP3   OH240257   2.012   3.490   1.723 -0.2581  0.2948  0.1688
 6281TIP3    H140258   1.936   3.478   1.667  0.5289  1.7485 -1.2834
 6281TIP3    H240259   1.981   3.548   1.793 -0.3835  1.3439 -0.7236
 6282TIP3   OH240260   4.781   3.472   2.519 -0.2784 -1.5686  0.2011
 6282TIP3    H140261   4.875   3.455   2.533  0.2043 -0.7175 -1.6450
 6282TIP3    H240262   4.757   3.531   2.591  0.5006 -2.1112  0.9312
 6283TIP3   OH240263   2.057   5.352   5.713  0.2213  0.2268 -0.0117
 6283TIP3    H140264   2.105   5.387   5.789 -0.8418  0.8802  0.3806
 6283TIP3    H240265   1.965   5.355   5.739 -0.1143 -0.1636 -1.0926
 6284TIP3   OH240266   3.339   1.844  14.741  0.3772 -0.6996  0.1394
 6284TIP3    H140267   3.360   1.870  14.652 -1.0343 -0.9775 -0.3016
 6284TIP3    H240268   3.330   1.926  14.789 -1.9778 -0.3482 -0.7561
 6285TIP3   OH240269   0.767   3.674   6.149  0.1087  0.1047 -0.5803
 6285TIP3    H140270   0.801   3.619   6.078 -0.2621 -0.9128  0.0211
 6285TIP3    H240271   0.754   3.760   6.108 -2.7401 -1.1045 -2.5558
 6286TIP3   OH240272   1.213   4.874   0.067 -0.3409 -0.4188 -0.0106
 6286TIP3    H140273   1.231   4.886   0.160 -1.3196 -1.0804  0.2721
 6286TIP3    H240274   1.128   4.915   0.053  0.5262  1.1290 -0.9712
 6287TIP3   OH240275   1.959   0.028  16.197  0.2755 -0.4713 -0.1382
 6287TIP3    H140276   2.053   0.010  16.199  0.4533  0.4594  0.9525
 6287TIP3    H240277   1.947   0.081  16.118  1.4667  3.0665  1.7963
 6288TIP3   OH240278   2.641   2.336   0.264 -0.4305  0.2834  0.0612
 6288TIP3    H140279   2.651   2.282   0.185 -0.1372 -0.0364  0.3124
 6288TIP3    H240280   2.550   2.325   0.289 -0.4057  0.0064  0.0351
 6289TIP3   OH240281   2.444   0.393  15.323 -0.6083 -0.1959  0.8413
 6289TIP3    H140282   2.396   0.374  15.403 -0.0357 -0.5385  1.1044
 6289TIP3    H240283   2.531   0.355  15.336 -0.7622 -0.9969 -0.2669
 6290TIP3   OH240284   4.876   0.051   0.885 -1.0118  0.1099  0.2147
 6290TIP3    H140285   4.827   0.079   0.807 -0.3342  0.9744  0.0854
 6290TIP3    H240286   4.883   0.131   0.938 -1.6374 -0.5079  1.2668
 6291TIP3   OH240287   5.203   0.944  14.075 -0.0694 -0.0756 -0.2457
 6291TIP3    H140288   5.175   1.027  14.038 -0.3081 -0.3040 -0.5878
 6291TIP3    H240289   5.296   0.957  14.096 -0.5694  0.9056  1.5159
 6292TIP3   OH240290   2.508   4.040   5.002  0.7316  0.2306 -0.5689
 6292TIP3    H140291   2.429   3.991   5.024 -0.5671  2.2946 -0.3157
 6292TIP3    H240292   2.526   4.093   5.080  1.4377  0.9389 -1.1955
 6293TIP3   OH240293   3.647   3.827   5.767 -0.4178  0.6347  0.1680
 6293TIP3    H140294   3.687   3.877   5.695 -0.6845 -0.4623 -0.7770
 6293TIP3    H240295   3.553   3.838   5.754 -0.4630  1.2523  0.9648
 6294TIP3   OH240296   6.332   3.944   2.471 -0.5069  0.8148  0.0090
 6294TIP3    H140297   6.354   3.875   2.409  0.7317  0.9225  0.3025
 6294TIP3    H240298   6.322   3.898   2.555 -1.7138  0.7309 -0.1685
 6295TIP3   OH240299   1.388   2.876   5.655 -0.1857 -0.0484  0.3241
 6295TIP3    H140300   1.292   2.873   5.651 -0.1851  0.0793  0.1817
 6295TIP3    H240301   1.408   2.885   5.748 -0.3768  2.0156  0.2088
 6296TIP3   OH240302   3.368   6.076  10.676 -0.1045 -0.1729 -0.9477
 6296TIP3    H140303   3.355   6.018  10.601 -1.7421 -2.4496  0.9472
 6296TIP3    H240304   3.463   6.077  10.689  0.0443 -1.5071 -1.7385
 6297TIP3   OH240305   2.945   6.240   3.013  0.0825 -0.6669 -0.4226
 6297TIP3    H140306   2.989   6.179   3.073  0.3472 -1.5239 -1.4653
 6297TIP3    H240307   3.004   6.314   3.007  0.4130 -0.9105 -0.2072
 6298TIP3   OH240308   3.732   6.652   6.129 -0.3908  0.5842 -0.4327
 6298TIP3    H140309   3.736   6.609   6.215  0.8639 -0.3383 -0.9276
 6298TIP3    H240310   3.802   6.716   6.131 -1.2116  1.5006 -0.3058
 6299TIP3   OH240311   1.862   3.886  15.365 -0.2564 -0.1141 -0.2053
 6299TIP3    H140312   1.832   3.874  15.275 -2.2807  0.8499  0.2893
 6299TIP3    H240313   1.863   3.981  15.378  2.8606 -0.0752 -0.0711
 6300TIP3   OH240314   5.212   1.505  12.697  0.0842 -0.1253  0.2906
 6300TIP3    H140315   5.169   1.587  12.673  1.1711  0.1891 -0.6918
 6300TIP3    H240316   5.164   1.474  12.773  0.4278  2.0793  1.5015
 6301TIP3   OH240317   3.742   2.912   6.281  0.1361  0.3656 -0.1939
 6301TIP3    H140318   3.701   2.914   6.195  0.7652 -0.1451 -0.5226
 6301TIP3    H240319   3.775   2.822   6.290  1.1311  0.7386  0.0625
 6302TIP3   OH240320   1.304   3.053  12.599 -0.2529  0.2489 -0.0708
 6302TIP3    H140321   1.347   2.985  12.548 -0.4398  0.7703 -0.9548
 6302TIP3    H240322   1.375   3.093  12.651  0.1542  0.4539 -0.7740
 6303TIP3   OH240323   3.304   4.052  12.846 -0.3737  0.3615 -0.2050
 6303TIP3    H140324   3.346   4.116  12.903  0.5183 -2.5338  2.6855
 6303TIP3    H240325   3.212   4.052  12.873 -0.1606 -0.2785  0.5463
 6304TIP3   OH240326   0.068   3.013   4.577 -0.3230 -0.3008 -0.2340
 6304TIP3    H140327   0.109   3.068   4.644  1.5410 -1.3498 -0.4378
 6304TIP3    H240328   0.023   2.945   4.626 -2.3794  1.1492  0.0114
 6305TIP3   OH240329   0.427   2.509   2.954  0.2638 -0.0450  0.5971
 6305TIP3    H140330   0.347   2.497   3.005 -0.0763 -1.3724 -0.1920
 6305TIP3    H240331   0.397   2.517   2.864  0.8866  1.8296  0.5111
 6306TIP3   OH240332   4.686   3.529  15.148 -0.5961  0.2398 -0.0809
 6306TIP3    H140333   4.754   3.500  15.087  0.7460  2.5768  0.1833
 6306TIP3    H240334   4.607   3.482  15.121  0.6207 -0.9330 -1.7772
 6307TIP3   OH240335   1.449   3.330  12.268  0.1352  0.5820  1.2326
 6307TIP3    H140336   1.513   3.314  12.337  0.2071  2.9593  1.7858
 6307TIP3    H240337   1.497   3.379  12.201 -0.4668  0.0800  0.4069
 6308TIP3   OH240338   4.378   6.473  13.429 -0.2360  0.4163  0.3691
 6308TIP3    H140339   4.446   6.541  13.425 -0.6167  0.7648 -0.5448
 6308TIP3    H240340   4.332   6.489  13.511  0.5593  0.3938  0.8291
 6309TIP3   OH240341   5.780   5.155  13.751 -0.3343  0.2431  0.5024
 6309TIP3    H140342   5.866   5.142  13.711  0.2999  1.6443  1.3380
 6309TIP3    H240343   5.722   5.176  13.677  0.4823  1.2085  0.1115
 6310TIP3   OH240344   0.728   6.212   2.856  0.2612 -0.1000 -0.2416
 6310TIP3    H140345   0.697   6.193   2.767 -0.2001  0.4426 -0.2060
 6310TIP3    H240346   0.774   6.295   2.847  1.0848 -0.5448 -0.1555
 6311TIP3   OH240347   6.574   0.721  13.436  0.4462 -0.4662  0.5596
 6311TIP3    H140348   6.551   0.809  13.466  1.3233 -0.9168  2.7561
 6311TIP3    H240349   6.665   0.729  13.409 -0.0657 -0.2853 -1.2529
 6312TIP3   OH240350   3.744   3.142   1.147  0.1084 -0.6590 -0.4581
 6312TIP3    H140351   3.749   3.231   1.112 -2.1603 -0.9183 -1.6316
 6312TIP3    H240352   3.744   3.153   1.242 -0.9024  0.6475 -0.5877
 6313TIP3   OH240353   1.541   3.469  14.218 -0.4496  0.0051 -0.2192
 6313TIP3    H140354   1.587   3.388  14.240 -0.2327  0.6864  2.1118
 6313TIP3    H240355   1.476   3.480  14.288 -0.2361  2.0050 -0.2629
 6314TIP3   OH240356   2.648   5.736  13.291  0.6309 -0.1579 -0.0619
 6314TIP3    H140357   2.558   5.746  13.322  1.0618  1.6825  0.6968
 6314TIP3    H240358   2.670   5.646  13.313 -0.1196  0.1565  2.2924
 6315TIP3   OH240359   1.610   1.820   3.533 -0.1826  0.6398  0.4665
 6315TIP3    H140360   1.597   1.914   3.544 -0.5766  0.7577 -0.8720
 6315TIP3    H240361   1.626   1.808   3.440 -1.2598 -0.7524  0.4227
 6316TIP3   OH240362   2.563   4.136   5.235 -0.2456 -1.2193 -0.0584
 6316TIP3    H140363   2.539   4.111   5.324  1.8644  1.4726  1.4112
 6316TIP3    H240364   2.656   4.114   5.228  0.1314  0.4454 -0.8100
 6317TIP3   OH240365   5.162   4.527  14.798 -0.1656  0.1299 -0.0029
 6317TIP3    H140366   5.215   4.525  14.718 -1.1146 -1.7028 -0.6533
 6317TIP3    H240367   5.219   4.566  14.864  1.3840 -0.2064 -1.0900
 6318TIP3   OH240368   3.453   1.405   0.183 -0.4744  0.2503  0.1311
 6318TIP3    H140369   3.472   1.385   0.091 -2.1587  2.3160 -0.7554
 6318TIP3    H240370   3.362   1.377   0.195 -0.7586  1.3693  0.6956
 6319TIP3   OH240371   2.277   1.735   0.945 -0.2089 -0.0848  0.3923
 6319TIP3    H140372   2.221   1.805   0.979  1.5108  1.8435 -0.5179
 6319TIP3    H240373   2.224   1.656   0.951 -2.1113  1.2271  1.8107
 6320TIP3   OH240374   2.857   2.027   3.140 -0.3647 -0.2003  0.1925
 6320TIP3    H140375   2.804   2.043   3.218  1.0954  1.6188  0.8927
 6320TIP3    H240376   2.828   2.093   3.077  0.7548  0.5769  0.4525
 6321TIP3   OH240377   6.736   4.135  15.153 -0.1619 -0.3245 -0.1870
 6321TIP3    H140378   6.649   4.113  15.187  0.0910 -1.3136 -0.1321
 6321TIP3    H240379   6.791   4.141  15.231  0.3792 -2.4101 -0.3368
 6322TIP3   OH240380   1.832   3.150  15.531  0.3833  0.0850  0.2112
 6322TIP3    H140381   1.784   3.212  15.585 -0.4498  0.6678 -1.1318
 6322TIP3    H240382   1.912   3.196  15.505  0.4503  0.0643  0.3833
 6323TIP3   OH240383   1.396   2.900  14.940 -0.3563 -0.1404  0.2787
 6323TIP3    H140384   1.312   2.924  14.980 -0.7778  0.6318 -0.9970
 6323TIP3    H240385   1.375   2.882  14.849  0.6923 -1.1285  0.2085
 6324TIP3   OH240386   0.434   4.797   1.105  0.5672 -0.1061  0.3493
 6324TIP3    H140387   0.384   4.776   1.026  1.2983 -2.2015  0.3827
 6324TIP3    H240388   0.385   4.756   1.176  0.1388  1.4135  0.9769
 6325TIP3   OH240389   4.281   0.022   5.811  0.3387 -0.3433  0.1065
 6325TIP3    H140390   4.296   0.034   5.905 -1.0385 -1.3162  0.4848
 6325TIP3    H240391   4.285  -0.072   5.798  0.6541 -0.2065 -0.8483
 6326TIP3   OH240392   3.597   3.390   5.859  0.6410  0.0399 -0.2081
 6326TIP3    H140393   3.523   3.442   5.889  1.0220 -0.3493  1.4799
 6326TIP3    H240394   3.613   3.420   5.769 -1.4035  0.2689 -0.5285
 6327TIP3   OH240395   6.183   0.162   0.089  0.3830  0.1315 -0.0002
 6327TIP3    H140396   6.216   0.145   0.001 -0.9612  0.4309 -0.5983
 6327TIP3    H240397   6.152   0.077   0.120  1.5550 -0.1260  0.5134
 6328TIP3   OH240398   1.740   1.169   6.640 -0.0794 -0.1518  0.3000
 6328TIP3    H140399   1.772   1.180   6.729  0.4650 -1.5288  0.2998
 6328TIP3    H240400   1.819   1.173   6.586 -0.1647 -1.2062  0.0740
 6329TIP3   OH240401   2.778   4.828   3.706 -0.5159  0.1145  0.1903
 6329TIP3    H140402   2.687   4.799   3.708 -0.8527  0.8756  4.0223
 6329TIP3    H240403   2.818   4.784   3.781  1.9600  0.7251 -0.7000
 6330TIP3   OH240404   4.698   3.411   4.308 -0.3529  0.0389 -0.3563
 6330TIP3    H140405   4.739   3.423   4.222 -2.9339 -1.3454 -1.9135
 6330TIP3    H240406   4.703   3.317   4.325 -2.0041 -0.0556 -0.2071
 6331TIP3   OH240407   1.633   2.976   0.383 -0.1400  0.3329 -0.2865
 6331TIP3    H140408   1.690   3.010   0.452  2.2826 -2.6221 -0.5842
 6331TIP3    H240409   1.548   2.965   0.425  0.2823  1.9933  1.1242
 6332TIP3   OH240410   5.080   6.676   0.759 -0.4265 -0.3144 -0.0793
 6332TIP3    H140411   5.069   6.581   0.765 -0.6258 -0.2436  0.7599
 6332TIP3    H240412   4.998   6.712   0.793 -0.0571  0.1663  0.3033
 6333TIP3   OH240413   6.281   4.381   1.520 -0.1250  0.1447  0.1864
 6333TIP3    H140414   6.294   4.405   1.611  0.9789  0.1686  0.0335
 6333TIP3    H240415   6.343   4.310   1.504 -2.3523 -1.9516  0.2398
 6334TIP3   OH240416   6.425   0.101   1.056 -0.0774 -1.0228 -0.3487
 6334TIP3    H140417   6.508   0.145   1.072 -1.4347  1.4086  0.5473
 6334TIP3    H240418   6.426   0.081   0.962  0.7352  0.7578 -0.7697
 6335TIP3   OH240419   0.878   0.561  13.205 -0.0222  0.1171 -0.0126
 6335TIP3    H140420   0.818   0.498  13.167 -1.9899  1.4238  0.7630
 6335TIP3    H240421   0.927   0.596  13.131  0.3770 -1.5144 -0.5657
 6336TIP3   OH240422   2.664   1.847   5.256  0.2692  0.0492  0.2167
 6336TIP3    H140423   2.586   1.793   5.243 -0.0832  0.9142 -1.4176
 6336TIP3    H240424   2.734   1.797   5.214  0.6965 -0.8488  1.9007
 6337TIP3   OH240425   2.669   0.211   3.286 -0.6793  0.9159 -0.9006
 6337TIP3    H140426   2.692   0.148   3.354 -0.1817  0.7793 -1.1898
 6337TIP3    H240427   2.590   0.174   3.246 -0.5891  0.6523 -0.8401
 6338TIP3   OH240428   5.918   6.346   2.717  0.7358 -0.4789  0.3266
 6338TIP3    H140429   5.878   6.397   2.647  0.2736  0.5636  1.3031
 6338TIP3    H240430   5.844   6.311   2.767  1.0006  0.2864  1.3111
 6339TIP3   OH240431   6.705   3.735  17.069 -0.1114  0.0772  0.0309
 6339TIP3    H140432   6.795   3.754  17.098 -0.0392 -0.2695  0.0419
 6339TIP3    H240433   6.652   3.745  17.148  0.0245 -0.4470  0.1892
 6340TIP3   OH240434   4.971   0.938   5.116  0.2468 -0.3216 -0.2032
 6340TIP3    H140435   4.931   0.918   5.201 -1.2386  0.5049 -0.6690
 6340TIP3    H240436   4.978   0.853   5.072 -0.8804 -0.5263 -0.0259
 6341TIP3   OH240437   6.148   1.629   0.185 -0.2504 -0.2449 -0.4082
 6341TIP3    H140438   6.097   1.631   0.266 -0.6242 -2.0897 -0.5453
 6341TIP3    H240439   6.209   1.702   0.193 -1.2394  0.4799  0.8877
 6342TIP3   OH240440   6.383   4.906  12.935  0.1683 -0.5565 -0.3324
 6342TIP3    H140441   6.475   4.908  12.964  0.4515  0.2855 -1.2210
 6342TIP3    H240442   6.376   4.979  12.873 -1.5843  0.5793  1.0976
 6343TIP3   OH240443   1.843   2.107   1.031  0.2558 -0.5875 -0.2203
 6343TIP3    H140444   1.912   2.124   1.095  0.3244  0.8642 -0.6361
 6343TIP3    H240445   1.774   2.064   1.081  0.5564 -0.0245  0.7104
 6344TIP3   OH240446   5.169   1.744   4.884 -0.2245  0.3759  0.3180
 6344TIP3    H140447   5.165   1.836   4.910 -0.5830  0.4655 -0.0321
 6344TIP3    H240448   5.240   1.741   4.819 -0.0193  0.3504  0.5446
 6345TIP3   OH240449   2.785   1.272   5.385 -0.2466  0.2672 -0.2817
 6345TIP3    H140450   2.740   1.354   5.406 -0.7190  0.1025 -0.6293
 6345TIP3    H240451   2.729   1.229   5.321 -1.1916 -1.3879  1.5096
 6346TIP3   OH240452   2.433   0.400   5.107 -0.1235  0.6126  0.1442
 6346TIP3    H140453   2.421   0.306   5.125  3.5584 -0.2874 -1.1395
 6346TIP3    H240454   2.389   0.414   5.023  1.7344 -0.8160 -1.1585
 6347TIP3   OH240455   1.544   1.861  14.282 -0.4585 -0.0434  0.4706
 6347TIP3    H140456   1.533   1.852  14.187 -1.4081  0.7118  0.4935
 6347TIP3    H240457   1.473   1.808  14.319 -0.5178  0.2301  0.7468
 6348TIP3   OH240458   6.612   5.734  16.698  0.5583 -0.0168  0.8550
 6348TIP3    H140459   6.609   5.676  16.622  2.0310  1.0313 -0.0522
 6348TIP3    H240460   6.522   5.739  16.728 -0.0168 -0.6685 -0.6758
 6349TIP3   OH240461   1.330   6.044   2.814  0.4265 -0.8196 -0.6110
 6349TIP3    H140462   1.340   6.031   2.720  0.3442  1.6568 -1.0313
 6349TIP3    H240463   1.416   6.023   2.851  1.1924  0.4704 -1.5726
 6350TIP3   OH240464   2.227   4.097   1.164 -0.3572 -0.5127  0.5290
 6350TIP3    H140465   2.221   4.006   1.194 -0.2110 -0.3270  1.1348
 6350TIP3    H240466   2.178   4.147   1.230 -0.2874 -0.1333  0.2949
 6351TIP3   OH240467   3.447   1.804  12.531  0.3166 -0.1338  0.8093
 6351TIP3    H140468   3.481   1.856  12.604  0.2850 -1.1152  1.5494
 6351TIP3    H240469   3.520   1.749  12.504 -0.0408 -0.6985  0.9686
 6352TIP3   OH240470   6.132   0.613  12.563 -0.0093 -0.0076  0.6211
 6352TIP3    H140471   6.154   0.522  12.586  1.7306  0.0932 -0.4706
 6352TIP3    H240472   6.037   0.612  12.552 -0.1120 -1.5317  1.3404
 6353TIP3   OH240473   5.989   2.292  15.879  0.7038 -0.0410  0.2307
 6353TIP3    H140474   5.943   2.353  15.822  0.7888 -2.0045 -2.1236
 6353TIP3    H240475   6.067   2.340  15.909 -0.2247  1.5987  0.1076
 6354TIP3   OH240476   5.437   4.640  10.953  0.7275  0.3149  0.1920
 6354TIP3    H140477   5.343   4.647  10.937  0.6796 -1.1416 -0.2702
 6354TIP3    H240478   5.448   4.556  10.997  1.8879  0.1269 -0.4109
 6355TIP3   OH240479   5.791   2.822  14.359  0.7757  0.0958 -0.0927
 6355TIP3    H140480   5.858   2.813  14.291  1.2210 -1.7791  0.5303
 6355TIP3    H240481   5.806   2.909  14.395  3.1133 -0.3701  0.2348
 6356TIP3   OH240482   6.347   0.569   5.468 -0.3401  0.0978  0.1639
 6356TIP3    H140483   6.427   0.517   5.472 -1.0292 -1.1768 -1.5642
 6356TIP3    H240484   6.366   0.639   5.406 -0.6258 -0.3253 -0.4035
 6357TIP3   OH240485   2.649   3.825  10.594  0.1472 -0.0962  0.5259
 6357TIP3    H140486   2.612   3.738  10.610  0.5470 -0.3215  0.2427
 6357TIP3    H240487   2.640   3.871  10.677  0.0077 -0.4350  0.6977
 6358TIP3   OH240488   3.746   3.011  16.878  0.2055 -0.6895 -0.4503
 6358TIP3    H140489   3.702   3.095  16.868  1.9059  0.5438  1.7430
 6358TIP3    H240490   3.791   2.998  16.794 -0.0536  0.5878 -0.8073
 6359TIP3   OH240491   0.020   0.712   2.605  0.6903 -0.0066 -0.3965
 6359TIP3    H140492   0.031   0.633   2.551 -1.1571  0.0287 -0.9097
 6359TIP3    H240493   0.032   0.785   2.544 -0.8919  0.0390 -0.6929
 6360TIP3   OH240494   6.713   6.714   2.383  0.2425  0.0472  0.0858
 6360TIP3    H140495   6.734   6.808   2.383 -0.0950  0.1268 -0.5298
 6360TIP3    H240496   6.788   6.673   2.341  0.1023  0.1146 -0.2358
 6361TIP3   OH240497   5.465   2.833  16.576 -0.2025 -0.3476  0.2047
 6361TIP3    H140498   5.524   2.893  16.530  0.0904 -0.3919  0.5228
 6361TIP3    H240499   5.391   2.887  16.602  0.4692  0.0869  1.2785
 6362TIP3   OH240500   2.296   6.362  11.512 -0.0463  0.2183 -0.3768
 6362TIP3    H140501   2.257   6.404  11.589  0.1969  0.4923 -0.4014
 6362TIP3    H240502   2.243   6.283  11.499  0.0929  0.0131  0.2488
 6363TIP3   OH240503   1.838   3.993  14.918 -0.0373 -0.2384  0.1667
 6363TIP3    H140504   1.894   4.068  14.937  1.1638 -1.0069 -0.2206
 6363TIP3    H240505   1.849   3.979  14.824  2.4704 -2.9239  0.6996
 6364TIP3   OH240506   4.387   3.920  12.636 -0.3189  0.1462 -0.0271
 6364TIP3    H140507   4.419   3.847  12.583 -0.1932  0.5127 -0.4582
 6364TIP3    H240508   4.441   3.918  12.715  2.2019  1.9635 -1.5673
 6365TIP3   OH240509   5.847   1.393   4.993  0.6881  0.0645 -0.5948
 6365TIP3    H140510   5.805   1.468   4.952  1.2543  0.2880 -0.7689
 6365TIP3    H240511   5.901   1.430   5.063  0.2289 -0.2628 -0.0573
 6366TIP3   OH240512   0.301   1.731  13.778  0.0102 -0.2589  0.1544
 6366TIP3    H140513   0.268   1.723  13.868  0.3912  0.0574  0.3275
 6366TIP3    H240514   0.247   1.670  13.727 -0.8313  0.2396  0.4223
 6367TIP3   OH240515   1.436   3.659   4.348 -0.3911 -0.3406  0.1723
 6367TIP3    H140516   1.464   3.638   4.258  0.4730  0.9841  0.1066
 6367TIP3    H240517   1.501   3.617   4.404  0.4705  0.8314  0.0851
 6368TIP3   OH240518   5.451   0.645   2.137 -0.1002 -0.3623  0.0441
 6368TIP3    H140519   5.377   0.608   2.185 -0.6166 -1.9908 -1.8304
 6368TIP3    H240520   5.454   0.594   2.056  2.5452  0.2452 -0.3379
 6369TIP3   OH240521   5.972   5.862   4.984 -0.2622 -0.2761  0.0675
 6369TIP3    H140522   5.878   5.864   4.966 -0.0012  1.0367 -1.3058
 6369TIP3    H240523   6.005   5.943   4.948  1.1583  0.1289  2.1197
 6370TIP3   OH240524   6.186   3.351   4.514  0.2073 -0.4690 -0.1788
 6370TIP3    H140525   6.113   3.350   4.452 -0.1710  1.6138  0.1641
 6370TIP3    H240526   6.254   3.299   4.471 -0.8259 -0.9241 -1.3343
 6371TIP3   OH240527   1.235   5.202  16.712  0.1686 -0.4649 -0.1628
 6371TIP3    H140528   1.221   5.137  16.643  0.2748  0.1055 -0.7324
 6371TIP3    H240529   1.157   5.257  16.708  1.2676  1.0691 -1.5046
 6372TIP3   OH240530   4.262   6.718   3.035 -0.1836  0.2333 -0.3437
 6372TIP3    H140531   4.171   6.730   3.011 -0.3667 -0.7511 -0.2093
 6372TIP3    H240532   4.275   6.772   3.112 -0.8506 -0.1567  0.0496
 6373TIP3   OH240533   4.224   5.427   5.210 -0.2433  0.0775 -0.0909
 6373TIP3    H140534   4.205   5.445   5.302  0.6947  0.3775  0.0465
 6373TIP3    H240535   4.149   5.375   5.181 -0.4092 -0.2775  0.9174
 6374TIP3   OH240536   1.243   5.261  16.129  0.6518 -0.2877  0.3895
 6374TIP3    H140537   1.270   5.208  16.053 -1.2550  0.1687 -0.6732
 6374TIP3    H240538   1.237   5.350  16.095 -1.1663 -0.2214  0.8024
 6375TIP3   OH240539   0.346   5.808  13.373  0.1471  0.6997  0.4701
 6375TIP3    H140540   0.304   5.873  13.316  1.2600 -0.8937 -2.3629
 6375TIP3    H240541   0.329   5.724  13.331  1.9446 -0.4783  1.9488
 6376TIP3   OH240542   0.986   4.911   4.986  0.1960 -0.2469 -0.0905
 6376TIP3    H140543   1.039   4.892   5.064  0.7885 -1.0099 -0.6642
 6376TIP3    H240544   0.990   5.006   4.978 -2.8353  0.3073  2.8572
 6377TIP3   OH240545   3.463   6.477  13.531 -0.2524  0.3456 -0.2406
 6377TIP3    H140546   3.509   6.558  13.552 -1.3760  1.0675 -0.4645
 6377TIP3    H240547   3.410   6.499  13.455 -1.6050 -0.2056  0.5106
 6378TIP3   OH240548   5.232   4.190   5.827  0.9793 -0.1222 -0.0960
 6378TIP3    H140549   5.162   4.182   5.892  0.7238 -0.1967 -0.3823
 6378TIP3    H240550   5.261   4.281   5.835 -0.0452  0.2931 -0.8961
 6379TIP3   OH240551   3.898   4.597  16.735 -0.0032 -0.0132 -0.4762
 6379TIP3    H140552   3.935   4.661  16.796  0.8247 -1.3335  0.4753
 6379TIP3    H240553   3.921   4.630  16.649  1.4168  0.3974  0.0339
 6380TIP3   OH240554   2.098   5.761  13.904 -0.1770 -0.1508 -0.7857
 6380TIP3    H140555   2.130   5.672  13.915  0.2273  0.1285  0.3230
 6380TIP3    H240556   2.006   5.757  13.930 -0.6823 -0.6189 -2.5038
 6381TIP3   OH240557   5.295   4.033   2.006 -0.2328 -0.1349 -0.7282
 6381TIP3    H140558   5.250   4.116   2.018 -1.3962 -0.8774  0.2167
 6381TIP3    H240559   5.324   4.008   2.094 -0.3496 -0.9722 -0.9221
 6382TIP3   OH240560   5.340   2.758  14.330  0.7022  0.1652 -0.4025
 6382TIP3    H140561   5.247   2.743  14.348  0.4793  1.7980  0.0375
 6382TIP3    H240562   5.342   2.791  14.240  0.9273 -0.4276 -0.6169
 6383TIP3   OH240563   4.795   3.658   3.811 -0.3860  0.7376  0.4469
 6383TIP3    H140564   4.737   3.725   3.775 -1.5129 -0.9695 -1.1045
 6383TIP3    H240565   4.807   3.595   3.739  2.4539  0.3976  1.1024
 6384TIP3   OH240566   5.204   5.519  11.484  0.1348  0.3627  0.1927
 6384TIP3    H140567   5.260   5.442  11.473  1.7640  1.3503  1.1563
 6384TIP3    H240568   5.262   5.593  11.464 -1.1182  1.3902  0.2892
 6385TIP3   OH240569   6.484   2.949   5.922 -0.3792 -0.2862 -0.1865
 6385TIP3    H140570   6.454   2.908   5.841  1.4499  0.4030 -1.2778
 6385TIP3    H240571   6.413   2.935   5.984 -1.3813 -1.7814 -1.5952
 6386TIP3   OH240572   5.696   1.405   6.159  1.0110  1.1392  0.3973
 6386TIP3    H140573   5.789   1.387   6.175  0.7566  0.7265  1.5435
 6386TIP3    H240574   5.667   1.450   6.238  0.1796  1.0336  0.1579
 6387TIP3   OH240575   0.415   2.578   1.831  0.6583  0.1608 -0.0312
 6387TIP3    H140576   0.408   2.673   1.841  0.2074  0.0715  0.6517
 6387TIP3    H240577   0.492   2.554   1.882 -1.5032 -0.2653  3.4053
 6388TIP3   OH240578   4.518   0.136   6.955  0.1299  0.3100  0.1056
 6388TIP3    H140579   4.593   0.124   6.898 -0.2847 -2.3427  0.0127
 6388TIP3    H240580   4.443   0.106   6.903 -0.5289 -0.2321  1.3258
 6389TIP3   OH240581   4.550   6.303   0.509 -0.0638  0.3725  0.4697
 6389TIP3    H140582   4.643   6.313   0.531  0.3737 -2.1421  0.0146
 6389TIP3    H240583   4.539   6.210   0.493 -3.2187  0.1656  2.8963
 6390TIP3   OH240584   1.608   6.178  11.506  0.0634  0.2629 -0.1618
 6390TIP3    H140585   1.658   6.235  11.448 -1.2244  1.3065 -0.2625
 6390TIP3    H240586   1.552   6.127  11.448  1.4270 -1.4121 -0.1070
 6391TIP3   OH240587   4.799   3.021  13.877 -0.2291 -0.5807 -0.2071
 6391TIP3    H140588   4.801   3.035  13.782  1.6385 -2.2994 -0.4742
 6391TIP3    H240589   4.891   3.017  13.903 -0.6754  1.1120  1.9404
 6392TIP3   OH240590   6.439   0.352  17.279  0.2483  0.5940 -0.1019
 6392TIP3    H140591   6.528   0.364  17.313  1.2086  0.7060 -2.4999
 6392TIP3    H240592   6.441   0.267  17.235 -0.3044  1.3648 -1.6816
 6393TIP3   OH240593   1.840   3.222  14.860 -0.6393  0.5270  0.2207
 6393TIP3    H140594   1.800   3.287  14.802 -2.9104 -3.1575 -2.8707
 6393TIP3    H240595   1.773   3.203  14.926 -0.0042  1.2444  1.0869
 6394TIP3   OH240596   1.098   1.976   4.730  0.4090  0.2819 -0.4246
 6394TIP3    H140597   1.028   1.976   4.796  0.3129  0.2838 -0.5263
 6394TIP3    H240598   1.148   2.056   4.748 -0.3290  0.9176 -1.1083
 6395TIP3   OH240599   3.472   1.660   2.377 -0.6453  0.2335  0.2517
 6395TIP3    H140600   3.464   1.579   2.429 -0.5610  0.5417  0.7559
 6395TIP3    H240601   3.445   1.729   2.437 -0.1232  0.6466  0.0233
 6396TIP3   OH240602   5.340   2.520  11.418 -0.1020 -0.1803  0.0186
 6396TIP3    H140603   5.252   2.527  11.457  0.5893 -0.4629  1.7279
 6396TIP3    H240604   5.330   2.455  11.348 -1.1057 -0.8127  0.7103
 6397TIP3   OH240605   3.557   0.791   1.514 -0.1802 -0.5888  0.0339
 6397TIP3    H140606   3.509   0.788   1.597  0.5056  2.4313  0.6557
 6397TIP3    H240607   3.648   0.775   1.538  0.1944  1.3903  0.1321
 6398TIP3   OH240608   5.002   4.056  16.563  0.6039 -0.0699 -0.7673
 6398TIP3    H140609   5.065   4.126  16.581 -1.1009  0.9557  1.7202
 6398TIP3    H240610   4.941   4.095  16.500  0.6488  0.0390 -0.7455
 6399TIP3   OH240611   4.530   4.282  11.865 -0.3155 -0.5588 -0.1622
 6399TIP3    H140612   4.558   4.260  11.954 -1.3574  0.4167  0.4182
 6399TIP3    H240613   4.608   4.322  11.825  0.2460 -1.2698  0.1997
 6400TIP3   OH240614   4.459   3.350   1.150 -0.0734 -0.0820  0.5213
 6400TIP3    H140615   4.377   3.366   1.104  0.1552  0.8701  0.4289
 6400TIP3    H240616   4.515   3.306   1.086 -0.3133 -0.2343  0.4128
 6401TIP3   OH240617   1.927   3.176  11.043  0.2353  0.7046  0.1704
 6401TIP3    H140618   1.930   3.268  11.016  1.4298  0.9052  0.8980
 6401TIP3    H240619   2.011   3.162  11.086 -0.4193 -0.4062  1.1277
 6402TIP3   OH240620   0.089   5.632  15.693  0.0525 -0.8887  0.2580
 6402TIP3    H140621   0.044   5.552  15.719 -0.2261 -0.5865  0.7168
 6402TIP3    H240622   0.093   5.627  15.597 -1.7605 -0.5038  0.1266
 6403TIP3   OH240623   2.378   0.080   3.363  0.1727 -0.5515  0.3277
 6403TIP3    H140624   2.403   0.049   3.276  1.0148  0.2520  0.2700
 6403TIP3    H240625   2.460   0.083   3.412 -0.0779  0.2964  0.7215
 6404TIP3   OH240626   6.417   6.737  11.799  0.5615  0.2913  0.3359
 6404TIP3    H140627   6.470   6.700  11.870  0.5761  0.1675  0.2619
 6404TIP3    H240628   6.356   6.796  11.842  0.1933 -0.2074  0.5137
 6405TIP3   OH240629   5.837   3.249   2.270  0.5280  0.1227 -0.2285
 6405TIP3    H140630   5.879   3.334   2.280 -1.6751  1.1214  1.4889
 6405TIP3    H240631   5.904   3.186   2.297  2.0311  1.3092 -1.0196
 6406TIP3   OH240632   1.093   2.881  17.210  0.0393 -0.1748 -0.1974
 6406TIP3    H140633   1.166   2.894  17.149  0.8755  2.2818  1.1754
 6406TIP3    H240634   1.061   2.970  17.228 -0.6495 -0.8476  2.3097
 6407TIP3   OH240635   4.384   4.544   0.888 -0.1691 -0.3554  0.2863
 6407TIP3    H140636   4.403   4.625   0.936 -0.2263  0.3606 -0.8579
 6407TIP3    H240637   4.304   4.510   0.929 -1.5676  1.4851 -0.7445
 6408TIP3   OH240638   4.065   5.958   2.507  0.4294 -0.7738 -0.8306
 6408TIP3    H140639   4.129   6.027   2.489 -0.3767 -0.2468 -1.8194
 6408TIP3    H240640   4.011   5.993   2.578 -0.3544 -0.1014 -1.7327
 6409TIP3   OH240641   6.400   1.435  13.030 -0.1000 -0.1144 -0.3330
 6409TIP3    H140642   6.445   1.465  13.108  0.4747 -0.8636 -0.3664
 6409TIP3    H240643   6.401   1.510  12.971 -0.2983  0.3692  0.2689
 6410TIP3   OH240644   2.262   2.759   2.687  0.1431  0.1347 -0.1130
 6410TIP3    H140645   2.332   2.772   2.751  0.9659  0.6732 -1.0947
 6410TIP3    H240646   2.296   2.691   2.629 -0.5289 -0.2357 -0.0730
 6411TIP3   OH240647   1.899   6.286   0.957 -0.4407 -0.2609 -0.2214
 6411TIP3    H140648   1.804   6.271   0.950 -0.7875  0.7419  1.6403
 6411TIP3    H240649   1.931   6.214   1.011 -0.6968  0.9911  1.6862
 6412TIP3   OH240650   6.640   0.100   5.727  0.6257  0.7941  0.3909
 6412TIP3    H140651   6.663   0.079   5.817  1.2687 -0.7150 -0.0961
 6412TIP3    H240652   6.722   0.131   5.688  0.5599  0.5903  0.0893
 6413TIP3   OH240653   3.009   5.145  12.227  0.4193  0.2945 -0.0423
 6413TIP3    H140654   3.047   5.230  12.204  3.5831 -1.5560 -2.5479
 6413TIP3    H240655   3.076   5.103  12.281 -0.7553 -0.9463  0.5191
 6414TIP3   OH240656   4.693   3.144   2.579 -0.0777 -0.1868  0.2195
 6414TIP3    H140657   4.675   3.120   2.670 -1.0731  1.2166  0.4298
 6414TIP3    H240658   4.778   3.187   2.581  0.5632 -1.4083  0.2303
 6415TIP3   OH240659   6.385   1.742  15.118  0.2744 -0.0119  0.0512
 6415TIP3    H140660   6.319   1.771  15.054  0.4544 -2.2713 -1.2416
 6415TIP3    H240661   6.341   1.753  15.202 -1.1136  0.1998 -0.6545
 6416TIP3   OH240662   4.023   1.300  14.502 -0.3375 -0.0631  0.0437
 6416TIP3    H140663   4.098   1.293  14.562 -0.2738  0.6262  0.0549
 6416TIP3    H240664   3.974   1.376  14.534  1.9509  3.1092 -3.2105
 6417TIP3   OH240665   0.456   3.458  15.468  0.5309 -0.3794 -0.0262
 6417TIP3    H140666   0.383   3.519  15.458  0.4557 -0.4886 -0.1450
 6417TIP3    H240667   0.428   3.379  15.421 -0.1271 -1.1519  1.5891
 6418TIP3   OH240668   3.907   5.363   6.524  0.1774  0.2209 -0.6102
 6418TIP3    H140669   3.907   5.448   6.479  1.2285  0.3008 -0.4835
 6418TIP3    H240670   3.845   5.310   6.474 -0.1251  0.9070 -0.9851
 6419TIP3   OH240671   6.665   5.929   5.800 -0.6424 -0.2677  0.8733
 6419TIP3    H140672   6.719   6.006   5.819  1.1995 -1.5468  1.1493
 6419TIP3    H240673   6.607   5.957   5.729  1.8561  0.6419 -0.9680
 6420TIP3   OH240674   4.780   1.037   5.454 -0.1821 -0.3777 -0.7393
 6420TIP3    H140675   4.695   1.038   5.410  0.0215  0.5504 -1.1152
 6420TIP3    H240676   4.762   1.070   5.542 -0.3654 -1.0350 -0.5274
 6421TIP3   OH240677   0.099   0.049   5.474  0.3346 -0.4655  0.1300
 6421TIP3    H140678   0.128   0.094   5.553  2.6996  0.3291 -1.0768
 6421TIP3    H240679   0.051   0.114   5.424  0.9967 -0.1933 -0.1713
 6422TIP3   OH240680   4.405   5.453   4.423  0.0859  0.2469  0.1631
 6422TIP3    H140681   4.465   5.405   4.367  0.6029  0.6492  0.3599
 6422TIP3    H240682   4.378   5.390   4.490 -0.8306 -0.3462 -0.7403
 6423TIP3   OH240683   3.458   6.506  14.255  0.3807 -0.1050  0.4248
 6423TIP3    H140684   3.439   6.557  14.177  1.2086  0.1324  0.3732
 6423TIP3    H240685   3.372   6.489  14.294  0.0265  0.4833 -0.0882
 6424TIP3   OH240686   2.340   5.942  12.763 -0.4894 -0.3479  0.5273
 6424TIP3    H140687   2.378   5.864  12.724  0.5009  0.0143  0.7586
 6424TIP3    H240688   2.256   5.953  12.718 -0.9093 -1.8575  0.8803
 6425TIP3   OH240689   0.704   4.580   5.254  0.7507 -0.4582 -0.3346
 6425TIP3    H140690   0.662   4.506   5.210 -0.2115 -0.6981  0.9355
 6425TIP3    H240691   0.661   4.657   5.216 -0.4966 -0.6821  0.5622
 6426TIP3   OH240692   2.405   2.056  16.473 -0.0976 -0.2099  0.8156
 6426TIP3    H140693   2.458   2.059  16.552  0.7055  2.3870  0.2637
 6426TIP3    H240694   2.467   2.037  16.403 -0.6075 -1.2208  0.6117
 6427TIP3   OH240695   1.309   6.205  13.283 -0.2200  0.0369  0.7758
 6427TIP3    H140696   1.218   6.217  13.312 -0.6710 -1.0094 -0.1554
 6427TIP3    H240697   1.361   6.237  13.357 -1.3367 -1.1227  2.1408
 6428TIP3   OH240698   0.525   1.370  10.812 -0.1643  0.2067  0.0967
 6428TIP3    H140699   0.613   1.353  10.779  0.4172 -0.5694  1.8829
 6428TIP3    H240700   0.478   1.288  10.800 -0.9587  0.8747 -1.6460
 6429TIP3   OH240701   5.788   0.880  13.451  0.3882  0.0031  0.0091
 6429TIP3    H140702   5.858   0.917  13.505 -1.1798  0.2975  2.0191
 6429TIP3    H240703   5.714   0.874  13.512 -0.5006 -3.0217 -1.2365
 6430TIP3   OH240704   1.304   1.632  16.351 -0.3527  0.0286  0.3312
 6430TIP3    H140705   1.338   1.591  16.431  0.4019  0.2427  0.1287
 6430TIP3    H240706   1.260   1.560  16.305 -2.1664  0.2288  1.6524
 6431TIP3   OH240707   1.540   3.241  11.958  0.5265 -0.0597  0.2237
 6431TIP3    H140708   1.574   3.177  11.894 -1.8004  0.5360 -1.7582
 6431TIP3    H240709   1.467   3.196  12.000  0.4559  0.4334  0.6270
 6432TIP3   OH240710   6.288   3.574   0.638  0.6663  0.1450  0.3165
 6432TIP3    H140711   6.356   3.522   0.680 -0.3363  0.0181  1.8895
 6432TIP3    H240712   6.207   3.527   0.658 -0.1717  1.8066  1.0194
 6433TIP3   OH240713   2.851   0.143  12.639 -0.3125  0.1014  0.1388
 6433TIP3    H140714   2.823   0.173  12.552  0.6553 -1.2680 -0.6844
 6433TIP3    H240715   2.770   0.115  12.682 -0.5656 -1.4586 -1.2616
 6434TIP3   OH240716   6.345   3.690   0.182  0.0654  0.8689  0.1733
 6434TIP3    H140717   6.329   3.763   0.122  2.5085  1.7234  0.4641
 6434TIP3    H240718   6.280   3.703   0.252 -1.0513  1.3993 -0.9100
 6435TIP3   OH240719   1.964   2.085  13.693  0.1014 -0.5137  0.5962
 6435TIP3    H140720   2.008   2.007  13.660 -2.4850 -1.6279 -0.4713
 6435TIP3    H240721   1.872   2.071  13.674 -0.4210  3.3153 -0.6397
 6436TIP3   OH240722   2.771   6.545  12.688 -0.0757 -0.1354 -0.4948
 6436TIP3    H140723   2.770   6.452  12.665 -1.3809  0.0519 -1.2639
 6436TIP3    H240724   2.700   6.556  12.751  2.1005 -0.2268  2.1933
 6437TIP3   OH240725   5.494   2.909  13.136 -0.0130  0.0092 -0.0205
 6437TIP3    H140726   5.517   2.966  13.062  1.7273 -0.6056  0.0040
 6437TIP3    H240727   5.508   2.820  13.103  0.3897 -0.2899  0.9136
 6438TIP3   OH240728   0.701   2.805   0.847  0.6182 -0.3329 -0.0246
 6438TIP3    H140729   0.733   2.730   0.798 -1.4437 -0.1782 -1.7675
 6438TIP3    H240730   0.655   2.767   0.922 -0.3364 -0.8624 -0.8472
 6439TIP3   OH240731   6.231   6.746  15.740 -0.0125  0.0219 -0.1436
 6439TIP3    H140732   6.193   6.694  15.669  0.5286  0.2905 -0.6341
 6439TIP3    H240733   6.298   6.689  15.778  0.6414  0.3904 -0.7393
 6440TIP3   OH240734   2.469   1.798  12.498  0.1649  0.2314 -0.3254
 6440TIP3    H140735   2.420   1.750  12.565 -0.2223 -0.4050 -1.0390
 6440TIP3    H240736   2.401   1.834  12.440  0.5007  0.3385 -0.6593
 6441TIP3   OH240737   1.235   2.395   6.446 -0.7380 -0.2576 -0.6385
 6441TIP3    H140738   1.174   2.451   6.398  0.7159  1.5725 -0.4900
 6441TIP3    H240739   1.268   2.333   6.381  0.0349  1.1831 -1.6663
 6442TIP3   OH240740   4.641   4.208   4.202 -0.6912 -0.2297  0.2032
 6442TIP3    H140741   4.729   4.206   4.164  0.1445 -1.7547  2.0604
 6442TIP3    H240742   4.610   4.297   4.186  0.4628 -0.1645 -2.0279
 6443TIP3   OH240743   0.157   0.589  12.994 -0.3492 -0.2682 -0.1054
 6443TIP3    H140744   0.174   0.672  12.949 -0.1148 -0.7941 -1.0014
 6443TIP3    H240745   0.064   0.594  13.018  0.1146  1.0656  1.5847
 6444TIP3   OH240746   4.843   2.200  17.278  0.3472 -0.0281  0.3135
 6444TIP3    H140747   4.826   2.253  17.201 -1.0492 -1.4276 -0.3901
 6444TIP3    H240748   4.802   2.247  17.350  1.5267  1.2077  0.2199
 6445TIP3   OH240749   1.702   1.564   4.247 -0.0994  0.0945  0.4087
 6445TIP3    H140750   1.715   1.557   4.153 -1.4615 -1.5123  0.2977
 6445TIP3    H240751   1.757   1.495   4.284  2.2297  2.1165  1.0683
 6446TIP3   OH240752   5.695   5.514  16.828 -0.1263 -0.2741 -0.3188
 6446TIP3    H140753   5.693   5.424  16.861 -1.1629 -0.5812 -1.1662
 6446TIP3    H240754   5.754   5.511  16.752  1.5071  0.2343  0.8728
 6447TIP3   OH240755   2.032   0.657  13.790  0.0818  0.4284 -0.2103
 6447TIP3    H140756   2.032   0.669  13.885  1.0634  0.3239 -0.1864
 6447TIP3    H240757   2.078   0.734  13.757  1.9918 -0.7072 -0.3977
 6448TIP3   OH240758   2.148   3.831   1.657  0.5544  0.1636  0.8536
 6448TIP3    H140759   2.103   3.879   1.727 -0.9501 -0.4709  0.3776
 6448TIP3    H240760   2.241   3.838   1.679  0.2486  1.5917  1.8637
 6449TIP3   OH240761   2.786   4.699  12.881 -0.0781 -0.4293 -0.3313
 6449TIP3    H140762   2.774   4.631  12.947  0.3607 -0.9327 -0.7568
 6449TIP3    H240763   2.713   4.688  12.820 -0.7006  0.2833  0.2679
 6450TIP3   OH240764   2.635   6.142  12.671  0.0479 -0.5897 -0.2428
 6450TIP3    H140765   2.596   6.182  12.749  1.1653 -1.8329  0.9993
 6450TIP3    H240766   2.562   6.136  12.609 -0.8032  0.7106  0.5743
 6451TIP3   OH240767   0.359   3.714  15.406 -0.3615  0.2459  0.4717
 6451TIP3    H140768   0.312   3.753  15.480  0.6939 -1.0020  1.8533
 6451TIP3    H240769   0.440   3.764  15.400 -0.4311  0.3235  0.1889
 6452TIP3   OH240770   4.326   0.537  16.790 -0.0585  0.6127 -0.2086
 6452TIP3    H140771   4.380   0.558  16.713  1.0291  0.8264  0.5955
 6452TIP3    H240772   4.372   0.465  16.832 -0.4462  0.7478  0.4493
 6453TIP3   OH240773   2.729   2.013  13.248  0.4112 -0.0164  0.7822
 6453TIP3    H140774   2.819   2.030  13.220  0.0402 -0.5744 -0.8666
 6453TIP3    H240775   2.675   2.048  13.177 -0.5862 -1.7206  0.6591
 6454TIP3   OH240776   4.262   3.692   0.780  0.0198  0.4544 -0.0835
 6454TIP3    H140777   4.300   3.700   0.693  0.6446  2.2730  0.3160
 6454TIP3    H240778   4.331   3.723   0.839 -1.8033  3.4000  0.6970
 6455TIP3   OH240779   6.690   6.507   2.837 -0.1268  0.0035  0.1168
 6455TIP3    H140780   6.697   6.601   2.855  0.1426  0.0921 -0.4247
 6455TIP3    H240781   6.770   6.486   2.789 -0.1776 -0.5089  0.2521
 6456TIP3   OH240782   3.807   1.791  15.384  0.2286  0.4986  0.4223
 6456TIP3    H140783   3.778   1.795  15.293  1.2140  0.1547  0.0751
 6456TIP3    H240784   3.825   1.698  15.399 -0.8406  0.4139  1.2742
 6457TIP3   OH240785   3.129   2.195  14.610 -0.0573 -0.0346 -0.2095
 6457TIP3    H140786   3.051   2.251  14.610 -1.0215 -1.3250 -0.0310
 6457TIP3    H240787   3.201   2.254  14.589 -0.8973  1.4542  0.8733
 6458TIP3   OH240788   0.502   5.869   2.879 -0.4040  0.4746 -0.3240
 6458TIP3    H140789   0.538   5.880   2.791 -2.2889  3.0504 -0.8881
 6458TIP3    H240790   0.534   5.945   2.927 -1.1842  0.2771  0.5378
 6459TIP3   OH240791   1.037   2.859   2.915  0.4302 -0.2602  0.5199
 6459TIP3    H140792   0.968   2.889   2.856 -0.4284 -2.0872  0.5627
 6459TIP3    H240793   1.011   2.891   3.002  0.6999  0.7472  0.2521
 6460TIP3   OH240794   1.237   1.750   6.144 -0.2338 -0.0896 -0.0793
 6460TIP3    H140795   1.326   1.786   6.147  0.2932 -1.1185 -1.9384
 6460TIP3    H240796   1.180   1.826   6.140  0.8083  0.6853 -3.3413
 6461TIP3   OH240797   5.507   2.579   3.164 -0.2615  0.8781  0.5017
 6461TIP3    H140798   5.566   2.637   3.211  1.9498  0.8386 -2.0098
 6461TIP3    H240799   5.558   2.500   3.147 -1.2612  0.5269 -1.1020
 6462TIP3   OH240800   3.869   5.746   0.913 -0.4733  0.5632  0.0422
 6462TIP3    H140801   3.774   5.742   0.925 -0.6283 -1.6781 -1.3418
 6462TIP3    H240802   3.892   5.661   0.875  2.4917 -0.0988  2.8233
 6463TIP3   OH240803   2.159   2.652   2.033 -0.2622  0.2791  0.4316
 6463TIP3    H140804   2.210   2.729   2.056  0.4224  0.0893 -0.3977
 6463TIP3    H240805   2.125   2.619   2.117  2.5875 -0.7161  1.2964
 6464TIP3   OH240806   2.721   1.693   2.654  0.1278 -0.2746 -0.4608
 6464TIP3    H140807   2.631   1.670   2.677 -0.0074 -1.3316 -1.9451
 6464TIP3    H240808   2.775   1.643   2.716 -0.2779 -0.7390 -0.4776
 6465TIP3   OH240809   6.190   0.968  11.368 -0.5379 -0.3235  0.1120
 6465TIP3    H140810   6.147   0.916  11.301 -0.6422 -2.3299  1.6468
 6465TIP3    H240811   6.124   0.980  11.436 -0.1268  0.7932  0.3373
 6466TIP3   OH240812   0.952   4.129  16.425  0.5464 -0.0754  0.7813
 6466TIP3    H140813   0.916   4.044  16.403 -0.1477 -0.2267  2.3499
 6466TIP3    H240814   0.990   4.161  16.344  0.0280 -1.4839 -0.0484
 6467TIP3   OH240815   2.136   2.303  16.834 -0.5921  0.5552 -0.4806
 6467TIP3    H140816   2.178   2.388  16.845 -2.2247  1.7269 -2.6137
 6467TIP3    H240817   2.156   2.277  16.745  1.3907 -2.2599  0.6483
 6468TIP3   OH240818   1.831   2.811   5.520  0.4172 -0.3978 -0.1805
 6468TIP3    H140819   1.860   2.871   5.589 -0.2795  0.9202 -1.0047
 6468TIP3    H240820   1.899   2.818   5.453 -0.4461  0.7071 -0.9691
 6469TIP3   OH240821   5.197   1.057  15.129  0.5636 -0.3391  0.2298
 6469TIP3    H140822   5.165   1.141  15.163 -2.3814 -1.4132  0.3860
 6469TIP3    H240823   5.152   0.991  15.181 -0.3963 -2.0250 -2.5473
 6470TIP3   OH240824   4.088   1.060  12.504 -0.8889 -0.3042 -0.0956
 6470TIP3    H140825   4.150   1.012  12.449 -0.8171 -0.4086  0.0766
 6470TIP3    H240826   4.121   1.150  12.503  0.8018 -0.8156  2.1089
 6471TIP3   OH240827   1.425   5.267  13.291  0.3092  0.0789  0.2343
 6471TIP3    H140828   1.453   5.210  13.219  1.0811  1.0216 -0.2265
 6471TIP3    H240829   1.502   5.273  13.348 -0.4512 -1.1071  1.4823
 6472TIP3   OH240830   3.717   0.492   4.481  0.8317  0.5333  0.7147
 6472TIP3    H140831   3.771   0.475   4.558  0.0550 -0.7021  1.0148
 6472TIP3    H240832   3.774   0.469   4.407  1.7838  2.2771  0.8369
 6473TIP3   OH240833   2.357   1.968  12.046  0.2998 -0.2157 -0.2469
 6473TIP3    H140834   2.431   2.012  12.006 -0.7625  0.3805 -1.6254
 6473TIP3    H240835   2.287   1.974  11.981 -0.7939 -1.2561  0.7811
 6474TIP3   OH240836   2.904   4.964  11.503  0.7199  0.8446  0.3188
 6474TIP3    H140837   2.943   4.950  11.417  0.4313 -0.0433  0.3176
 6474TIP3    H240838   2.964   5.023  11.548  1.6019  0.2134  0.0025
 6475TIP3   OH240839   3.752   1.646  14.897 -0.2493 -0.0346 -0.4391
 6475TIP3    H140840   3.836   1.691  14.901 -0.3306  0.1087 -0.3597
 6475TIP3    H240841   3.774   1.553  14.906 -0.1126  0.0141 -0.2708
 6476TIP3   OH240842   5.087   5.219   5.428  0.3570  0.0159  0.3952
 6476TIP3    H140843   5.104   5.307   5.462  0.4966  0.1731 -0.0770
 6476TIP3    H240844   5.169   5.171   5.443  0.1088 -0.1956  1.1353
 6477TIP3   OH240845   0.374   4.157   2.487  0.1793 -0.0954 -0.5129
 6477TIP3    H140846   0.418   4.242   2.486  0.5601 -0.2257  1.2810
 6477TIP3    H240847   0.432   4.100   2.436  2.1516 -0.2276  1.7078
 6478TIP3   OH240848   0.549   1.176  14.481  0.5948  0.2055 -0.2054
 6478TIP3    H140849   0.601   1.238  14.430  0.6428 -1.4035 -2.2412
 6478TIP3    H240850   0.591   1.091  14.466 -1.8302 -0.9641 -0.9265
 6479TIP3   OH240851   6.156   3.904   5.631  0.2771 -0.0832 -0.2217
 6479TIP3    H140852   6.157   3.819   5.676  0.9069  1.6861  3.4180
 6479TIP3    H240853   6.246   3.934   5.633 -0.0298  0.9468 -0.9120
 6480TIP3   OH240854   6.469   4.054  15.253  0.2286  0.4250  0.4067
 6480TIP3    H140855   6.464   3.967  15.214 -0.5492  1.5646 -2.2598
 6480TIP3    H240856   6.458   4.039  15.347  0.2324 -2.3288  0.0472
 6481TIP3   OH240857   6.156   1.570  14.300  0.0060 -0.1066  0.1972
 6481TIP3    H140858   6.159   1.476  14.315  0.4416 -0.0625  0.3873
 6481TIP3    H240859   6.062   1.591  14.294 -0.0815 -0.6347 -0.3691
 6482TIP3   OH240860   0.142   4.348  14.473 -0.3487 -0.4715 -0.2834
 6482TIP3    H140861   0.175   4.273  14.522 -1.6970 -0.6522  0.4150
 6482TIP3    H240862   0.207   4.363  14.405  0.6910 -1.3323  0.4846
 6483TIP3   OH240863   4.356   0.836   4.304 -0.1941 -0.1675  0.2315
 6483TIP3    H140864   4.414   0.760   4.305 -0.8307 -0.7377  3.5038
 6483TIP3    H240865   4.399   0.899   4.246  2.6663 -1.3254  0.9632
 6484TIP3   OH240866   1.897   1.119  13.285  0.3266  0.1995 -0.3274
 6484TIP3    H140867   1.875   1.093  13.195  0.4207  0.6007 -0.4681
 6484TIP3    H240868   1.812   1.142  13.325  0.2396 -0.3264 -0.1959
 6485TIP3   OH240869   1.871   0.612  15.121  0.0962 -0.0941 -0.1726
 6485TIP3    H140870   1.902   0.533  15.077 -0.0781  0.0086 -0.4850
 6485TIP3    H240871   1.777   0.597  15.135 -0.1264  0.4208 -1.0411
 6486TIP3   OH240872   3.708   1.032  17.139 -0.8020 -0.1726  0.6505
 6486TIP3    H140873   3.758   0.979  17.077  0.5697 -0.5418  2.0193
 6486TIP3    H240874   3.635   0.976  17.165 -1.4153 -0.0010 -0.6233
 6487TIP3   OH240875   5.868   2.489   1.839 -0.0931 -0.1609  0.4278
 6487TIP3    H140876   5.892   2.580   1.856  1.1651 -0.7101  1.8152
 6487TIP3    H240877   5.909   2.469   1.754  0.6732  0.2179  0.7014
 6488TIP3   OH240878   4.283   1.311  16.483  0.3641 -0.2391 -0.0689
 6488TIP3    H140879   4.238   1.254  16.421  1.0639 -0.9698  0.0758
 6488TIP3    H240880   4.254   1.280  16.569  0.3771 -0.0622 -0.0014
 6489TIP3   OH240881   2.092   4.246   5.400  0.0236  0.3946 -0.2446
 6489TIP3    H140882   2.062   4.332   5.430  0.1305 -0.0400  1.1878
 6489TIP3    H240883   2.184   4.260   5.376 -0.1066  0.7832 -0.5423
 6490TIP3   OH240884   3.300   2.536  16.647  0.2882 -0.2868 -0.1055
 6490TIP3    H140885   3.339   2.459  16.689 -1.3251 -1.1762 -0.1821
 6490TIP3    H240886   3.337   2.537  16.559  0.2341 -1.0348 -0.1410
 6491TIP3   OH240887   1.519   1.574  16.019 -1.0412 -0.1224 -0.2632
 6491TIP3    H140888   1.499   1.656  16.064  1.4425  0.8262 -0.7405
 6491TIP3    H240889   1.540   1.512  16.089 -0.2966  0.4331  0.0127
 6492TIP3   OH240890   0.289   0.686   0.942 -0.1127 -0.1007 -0.2997
 6492TIP3    H140891   0.257   0.602   0.909  1.3703 -0.6345 -0.4645
 6492TIP3    H240892   0.298   0.673   1.036 -0.3730  0.0448 -0.2544
 6493TIP3   OH240893   5.655   1.816  13.139  0.3474  0.1700 -0.2663
 6493TIP3    H140894   5.691   1.815  13.051 -1.2218 -3.8635 -1.0763
 6493TIP3    H240895   5.717   1.765  13.191 -0.1985  0.0099  0.2395
 6494TIP3   OH240896   5.428   5.420  17.193 -0.4644  0.3443  0.2520
 6494TIP3    H140897   5.494   5.482  17.162 -0.4175  0.1274 -0.0811
 6494TIP3    H240898   5.463   5.388  17.277 -1.4838  2.3589  1.5258
 6495TIP3   OH240899   5.836   6.586   4.731 -0.0236 -0.0174  0.0159
 6495TIP3    H140900   5.820   6.497   4.764 -0.7114 -0.1155 -0.5420
 6495TIP3    H240901   5.829   6.577   4.636  0.4772  0.5294 -0.0719
 6496TIP3   OH240902   0.267   3.524  16.055 -0.3306  0.0243 -0.4277
 6496TIP3    H140903   0.238   3.592  16.115  0.6476  0.2958 -0.2441
 6496TIP3    H240904   0.257   3.562  15.968  0.2225  0.4216 -0.3256
 6497TIP3   OH240905   2.641   5.971  11.660  0.0131 -0.1456 -0.6202
 6497TIP3    H140906   2.601   5.913  11.725  1.1369 -0.1255  0.1275
 6497TIP3    H240907   2.588   5.959  11.581  0.0007 -1.9281 -0.3892
 6498TIP3   OH240908   5.888   1.202   2.534 -0.4205 -0.4746  0.0251
 6498TIP3    H140909   5.881   1.232   2.444 -0.0321  0.4014  0.2770
 6498TIP3    H240910   5.980   1.217   2.558 -0.7124  0.1224  0.8358
 6499TIP3   OH240911   0.424   0.872   3.660 -0.2722 -0.3816  0.0855
 6499TIP3    H140912   0.431   0.960   3.695  1.5246 -0.7264  0.7031
 6499TIP3    H240913   0.471   0.876   3.576 -1.0325 -0.5312 -0.3564
 6500TIP3   OH240914   5.694   4.295  10.995 -0.1736  0.2273  1.0471
 6500TIP3    H140915   5.666   4.204  11.004  0.2570  0.1949  2.2878
 6500TIP3    H240916   5.619   4.341  10.957  0.6741 -1.2089 -2.8329
 6501TIP3   OH240917   3.081   6.013   5.423  0.1053 -0.1655  0.0956
 6501TIP3    H140918   3.074   5.933   5.371  1.0704  0.1343 -0.5261
 6501TIP3    H240919   3.095   5.982   5.512 -1.5799 -0.6889  0.2229
 6502TIP3   OH240920   4.004   2.332   3.916 -0.1622 -0.0597  0.1596
 6502TIP3    H140921   4.033   2.242   3.903 -0.1809 -0.0317 -0.0720
 6502TIP3    H240922   3.958   2.354   3.835  0.3745  0.3708 -0.0300
 6503TIP3   OH240923   3.122   3.854   5.779 -0.2386 -0.1816 -0.2638
 6503TIP3    H140924   3.113   3.890   5.867 -0.5814 -1.4162  0.2182
 6503TIP3    H240925   3.162   3.768   5.792 -0.1438 -0.3135 -1.3295
 6504TIP3   OH240926   3.711   5.124   3.775  0.4506 -0.4241  0.7752
 6504TIP3    H140927   3.737   5.158   3.689  0.8393  0.7154  1.3190
 6504TIP3    H240928   3.640   5.063   3.756  1.1010 -0.8335 -0.4239
 6505TIP3   OH240929   3.427   2.681   1.991  0.1488  0.3333 -0.1677
 6505TIP3    H140930   3.382   2.631   1.923 -0.1035 -0.2786  0.4326
 6505TIP3    H240931   3.509   2.635   2.005  0.3982  0.7100 -0.3538
 6506TIP3   OH240932   5.779   5.603   2.455  0.0151  0.2829  0.1223
 6506TIP3    H140933   5.817   5.516   2.443 -2.2273 -0.9206  1.0358
 6506TIP3    H240934   5.831   5.643   2.524  0.4057 -0.7885  0.4597
 6507TIP3   OH240935   6.136   4.019   0.180 -0.4900 -0.2016  0.1058
 6507TIP3    H140936   6.209   4.036   0.240 -1.6194 -1.1325  1.8312
 6507TIP3    H240937   6.143   3.926   0.159 -2.1573 -0.7653  1.7656
 6508TIP3   OH240938   6.309   3.576   3.284 -0.1415  0.8127 -0.6881
 6508TIP3    H140939   6.284   3.485   3.299 -1.6080  1.4745  1.2364
 6508TIP3    H240940   6.229   3.627   3.300  1.2606  2.6482  1.0187
 6509TIP3   OH240941   3.474   2.951  10.686  0.1217  0.1889  0.1364
 6509TIP3    H140942   3.411   3.022  10.672 -0.3867 -0.3746 -0.5132
 6509TIP3    H240943   3.432   2.874  10.647  1.6162 -0.0149 -1.1516
 6510TIP3   OH240944   4.999   1.179   3.719 -0.1219  0.3559 -0.3667
 6510TIP3    H140945   5.027   1.145   3.804  2.3773  3.1996  0.0921
 6510TIP3    H240946   4.932   1.117   3.690 -1.1782 -0.7148  3.6645
 6511TIP3   OH240947   2.082   3.380  16.044  0.7805 -0.2220 -0.4646
 6511TIP3    H140948   2.029   3.312  16.004  0.9775 -0.3797 -0.4562
 6511TIP3    H240949   2.161   3.385  15.990  1.0860 -0.4946 -0.0495
 6512TIP3   OH240950   0.021   3.818  15.239  0.3259 -0.4132 -0.2094
 6512TIP3    H140951   0.054   3.728  15.230  2.2868  0.0112  1.8872
 6512TIP3    H240952   0.066   3.867  15.171  0.7965 -0.6395 -0.0642
 6513TIP3   OH240953   3.391   5.760   1.754  0.1187 -0.3389  0.5358
 6513TIP3    H140954   3.313   5.784   1.703  0.2243  1.9974  1.3290
 6513TIP3    H240955   3.360   5.696   1.817 -1.0498  0.1152  0.4560
 6514TIP3   OH240956   6.260   1.846   2.029 -0.1949 -0.2233  0.4284
 6514TIP3    H140957   6.313   1.837   2.108 -0.5567 -0.4203  0.6476
 6514TIP3    H240958   6.172   1.821   2.055 -0.1420 -1.1900 -0.2513
 6515TIP3   OH240959   6.231   5.314  13.302 -0.3204  0.3268  0.7105
 6515TIP3    H140960   6.188   5.234  13.271 -1.0114  1.1235 -0.4693
 6515TIP3    H240961   6.324   5.301  13.281 -0.7191  0.7133 -1.5638
 6516TIP3   OH240962   5.613   1.926   2.938  0.3565  0.2377 -0.8574
 6516TIP3    H140963   5.658   1.854   2.981 -1.4616 -0.9088 -0.7995
 6516TIP3    H240964   5.546   1.954   3.000 -0.8833 -0.0091 -2.0308
 6517TIP3   OH240965   6.247   2.792   1.948 -0.1167 -0.3307  0.5436
 6517TIP3    H140966   6.293   2.755   2.024 -0.9021  0.5847  1.4968
 6517TIP3    H240967   6.289   2.751   1.872  1.0489 -0.8680  1.4470
 6518TIP3   OH240968   0.804   0.179  15.032  0.8922  0.5507 -0.2912
 6518TIP3    H140969   0.817   0.161  15.125 -1.9169 -0.1903  0.0318
 6518TIP3    H240970   0.817   0.274  15.024  1.3884  0.5854  0.7877
 6519TIP3   OH240971   5.600   1.690  11.596 -0.2565 -0.3994  0.0481
 6519TIP3    H140972   5.688   1.723  11.577 -0.1500  0.6031  1.9477
 6519TIP3    H240973   5.542   1.761  11.570 -0.5258 -1.0770 -1.2412
 6520TIP3   OH240974   4.344   1.958   0.207 -0.2110 -0.4270  0.5602
 6520TIP3    H140975   4.383   1.973   0.293  2.3223 -0.9486 -0.4183
 6520TIP3    H240976   4.360   1.865   0.189  0.1061 -0.1174 -0.8475
 6521TIP3   OH240977   3.504   3.201  16.331  0.4518 -0.1638 -0.0021
 6521TIP3    H140978   3.591   3.227  16.360  0.1951  1.7549 -0.8124
 6521TIP3    H240979   3.444   3.265  16.370 -0.6281 -1.4822  0.5987
 6522TIP3   OH240980   5.071   3.877  11.874  0.4571  0.4653  0.2012
 6522TIP3    H140981   4.982   3.843  11.867  1.1440 -2.2616  2.6037
 6522TIP3    H240982   5.065   3.951  11.934  0.0069 -1.1365  2.2353
 6523TIP3   OH240983   0.853   3.135  13.447 -0.1441  0.7075 -0.0414
 6523TIP3    H140984   0.763   3.105  13.455 -0.6566  2.1965  0.2214
 6523TIP3    H240985   0.846   3.222  13.406  1.2523  0.3997 -1.0255
 6524TIP3   OH240986   0.980   0.322  14.757 -0.2220 -0.2669  0.4835
 6524TIP3    H140987   0.934   0.241  14.737 -0.3022 -0.4429  1.3470
 6524TIP3    H240988   1.065   0.295  14.790 -0.4694 -0.0346  1.3458
 6525TIP3   OH240989   2.929   0.462   3.475 -0.4135  0.1350  0.1294
 6525TIP3    H140990   2.861   0.529   3.471  0.6687  1.3812  1.2298
 6525TIP3    H240991   2.990   0.484   3.405 -0.9089 -0.7202 -0.5819
 6526TIP3   OH240992   3.911   0.701   0.462  0.0734 -0.0295 -0.4874
 6526TIP3    H140993   3.827   0.744   0.453 -0.4019 -0.9795 -0.7404
 6526TIP3    H240994   3.964   0.735   0.389 -0.6343 -0.6247 -1.2992
 6527TIP3   OH240995   2.748   5.055   0.282  0.2151 -0.4385  0.1167
 6527TIP3    H140996   2.835   5.090   0.262  0.2393  0.3623  1.5067
 6527TIP3    H240997   2.750   5.039   0.376 -0.2038 -3.1258 -0.2533
 6528TIP3   OH240998   2.925   0.312  11.858  0.1656  0.0699  0.2110
 6528TIP3    H140999   3.007   0.262  11.849 -0.8523 -1.9898  1.6251
 6528TIP3    H241000   2.953   0.400  11.881  2.0016 -0.3753 -0.1433
 6529TIP3   OH241001   6.234   6.749  16.953  0.3250  0.2863 -0.6616
 6529TIP3    H141002   6.161   6.750  16.891  1.4970  1.1954 -2.0880
 6529TIP3    H241003   6.249   6.841  16.975  0.4267  0.0375  0.4137
 6530TIP3   OH241004   2.201   6.281  15.769 -0.3906 -0.1436  0.1091
 6530TIP3    H141005   2.291   6.312  15.754  0.3623 -1.1536  2.0878
 6530TIP3    H241006   2.170   6.333  15.843 -0.5247 -1.4287  0.9849
 6531TIP3   OH241007   1.689   1.936   0.853  0.3424  0.3468 -0.0942
 6531TIP3    H141008   1.672   1.868   0.918 -0.5391  1.0390  0.4317
 6531TIP3    H241009   1.748   1.997   0.898 -0.9738  1.2985  0.4293
 6532TIP3   OH241010   1.696   3.379   3.643 -0.2514  0.1506 -0.1136
 6532TIP3    H141011   1.787   3.375   3.613  0.5733 -4.0361  2.0608
 6532TIP3    H241012   1.656   3.300   3.606 -3.0359  1.8007 -0.8611
 6533TIP3   OH241013   0.327   4.427   5.932 -0.3321  0.7067  0.4644
 6533TIP3    H141014   0.357   4.445   6.021 -1.6572 -0.3318  1.1579
 6533TIP3    H241015   0.361   4.339   5.912 -0.8101  0.5529  0.3113
 6534TIP3   OH241016   6.157   0.593   2.273 -0.5977 -0.1909  0.5302
 6534TIP3    H141017   6.139   0.671   2.326 -0.5989  0.2027 -0.0413
 6534TIP3    H241018   6.247   0.569   2.296  1.0252  2.4865 -2.3254
 6535TIP3   OH241019   3.247   6.052  13.918 -0.5193 -0.5258 -0.0999
 6535TIP3    H141020   3.297   6.112  13.863 -2.5227  0.2532 -1.1702
 6535TIP3    H241021   3.254   6.089  14.006 -1.2704  0.9884 -0.6517
 6536TIP3   OH241022   6.522   3.694  13.193  0.0635 -0.2542 -0.3227
 6536TIP3    H141023   6.502   3.780  13.231 -0.7052 -0.1976 -0.8422
 6536TIP3    H241024   6.462   3.634  13.235  0.4237 -0.5013 -0.1536
 6537TIP3   OH241025   4.932   5.350  12.587 -0.0131  0.3477 -0.2817
 6537TIP3    H141026   4.953   5.260  12.609 -0.0342  0.0540 -1.4002
 6537TIP3    H241027   4.840   5.347  12.561 -0.8886  1.2176  2.4111
 6538TIP3   OH241028   6.648   5.730   0.770  0.3462  0.0559  0.1474
 6538TIP3    H141029   6.610   5.645   0.793 -0.0387  0.3687  0.7110
 6538TIP3    H241030   6.722   5.709   0.713  0.8242 -0.7186  1.0095
 6539TIP3   OH241031   4.492   2.257  14.267 -0.0153 -0.3978 -0.1552
 6539TIP3    H141032   4.496   2.352  14.275  0.5863 -0.3839 -0.5917
 6539TIP3    H241033   4.399   2.237  14.261 -0.0955  0.2946 -1.6130
 6540TIP3   OH241034   1.155   3.889   1.688 -0.3028  0.0676  0.1155
 6540TIP3    H141035   1.122   3.816   1.739  0.7652 -0.9702 -0.6152
 6540TIP3    H241036   1.131   3.967   1.738 -1.6181 -0.7630  0.8223
 6541TIP3   OH241037   2.777   4.924  13.680  0.5547  0.2360 -0.0485
 6541TIP3    H141038   2.856   4.949  13.631  0.5820  2.2455  0.9300
 6541TIP3    H241039   2.787   4.830  13.695  2.4767  0.3341 -0.4627
 6542TIP3   OH241040   5.901   1.567  12.778 -0.6210 -0.0133  0.5317
 6542TIP3    H141041   5.836   1.527  12.835 -2.6382  1.7994 -0.3854
 6542TIP3    H241042   5.964   1.607  12.838 -0.0132 -2.1844  1.4303
 6543TIP3   OH241043   0.298   5.551  12.592  0.3462 -0.1131 -0.4712
 6543TIP3    H141044   0.219   5.509  12.559  0.3779  0.2809 -1.0678
 6543TIP3    H241045   0.306   5.630  12.539  0.0472  0.8759  0.9101
 6544TIP3   OH241046   4.161   3.813   2.488  0.1039  0.6791  0.0369
 6544TIP3    H141047   4.081   3.853   2.456 -0.5438  0.9415  1.8448
 6544TIP3    H241048   4.174   3.852   2.575  0.4031 -1.7024  1.1404
 6545TIP3   OH241049   4.340   1.334   1.301  0.0004  0.1900  0.1564
 6545TIP3    H141050   4.285   1.318   1.224 -2.4836  0.0205  1.8655
 6545TIP3    H241051   4.326   1.426   1.322 -1.6722 -0.4410  2.0514
 6546TIP3   OH241052   3.225   2.409   3.504 -0.7923 -1.0120  0.4452
 6546TIP3    H141053   3.299   2.363   3.542  0.0964  0.8604  1.1004
 6546TIP3    H241054   3.152   2.392   3.564 -0.6696 -2.0847  0.3060
 6547TIP3   OH241055   5.889   5.394  10.555  0.1008  1.2255 -0.2956
 6547TIP3    H141056   5.948   5.431  10.621  0.4524  1.6904 -0.8608
 6547TIP3    H241057   5.805   5.436  10.572 -0.2616  0.0375  0.9606
 6548TIP3   OH241058   3.401   2.332   1.870 -0.4773 -0.2003 -0.1748
 6548TIP3    H141059   3.330   2.309   1.812 -1.6599 -0.1019  1.1695
 6548TIP3    H241060   3.382   2.286   1.952 -0.0338  1.3036  0.8287
 6549TIP3   OH241061   5.323   3.761  13.820 -0.1438 -0.3950 -0.0125
 6549TIP3    H141062   5.326   3.680  13.770 -0.3476 -0.3387 -0.1166
 6549TIP3    H241063   5.241   3.756  13.870  0.5798 -0.9444  1.1544
 6550TIP3   OH241064   4.411   6.305   4.034  0.1928  0.1522 -0.1728
 6550TIP3    H141065   4.444   6.395   4.037 -4.5246  2.2107 -0.7847
 6550TIP3    H241066   4.415   6.282   3.941  0.7494 -0.0228 -0.1101
 6551TIP3   OH241067   2.528   3.098   0.557 -0.0756  0.2239 -0.0287
 6551TIP3    H141068   2.435   3.099   0.531 -0.7145 -1.2604  1.9566
 6551TIP3    H241069   2.529   3.050   0.640  2.5501 -0.1671 -0.2174
 6552TIP3   OH241070   0.735   5.824  11.917  0.3693  0.7962  0.2322
 6552TIP3    H141071   0.730   5.731  11.940 -0.0291  0.7806  0.0889
 6552TIP3    H241072   0.694   5.869  11.991 -2.2582  0.6567 -1.0189
 6553TIP3   OH241073   5.384   5.545   0.760 -0.6158 -0.3958 -0.0052
 6553TIP3    H141074   5.396   5.631   0.799 -0.8236 -0.0700 -0.6585
 6553TIP3    H241075   5.459   5.533   0.702  0.0969 -1.1968  1.0467
 6554TIP3   OH241076   5.242   0.149  12.406  0.2095 -0.2226 -0.2881
 6554TIP3    H141077   5.264   0.224  12.351 -0.9132  0.2694 -0.0819
 6554TIP3    H241078   5.250   0.181  12.495  1.8801 -0.9792 -0.1277
 6555TIP3   OH241079   5.128   0.191  14.155  0.1210 -0.4758  0.3514
 6555TIP3    H141080   5.193   0.169  14.088 -0.7155  1.6152 -1.2830
 6555TIP3    H241081   5.142   0.284  14.173 -1.1221 -0.4604  1.4414
 6556TIP3   OH241082   2.722   1.065   1.522  0.2292 -0.2753 -0.2380
 6556TIP3    H141083   2.710   1.159   1.509  1.8088 -0.0785 -0.4750
 6556TIP3    H241084   2.717   1.054   1.617  1.0514  0.2280 -0.1209
 6557TIP3   OH241085   3.438   0.215   5.551  0.0499  0.0160  0.6795
 6557TIP3    H141086   3.355   0.259   5.534  0.8128  1.1645 -0.1681
 6557TIP3    H241087   3.473   0.194   5.465  0.5632 -0.6280  1.0307
 6558TIP3   OH241088   1.199   4.438  11.272 -0.2316 -0.1476 -0.6646
 6558TIP3    H141089   1.238   4.463  11.188  1.7962  0.8806  0.5043
 6558TIP3    H241090   1.143   4.512  11.294 -0.0058  0.0288 -0.6716
 6559TIP3   OH241091   0.523   3.437   0.260 -0.4336 -0.4562  0.1396
 6559TIP3    H141092   0.588   3.389   0.312 -0.8391 -0.8111  0.3205
 6559TIP3    H241093   0.458   3.371   0.236  0.2336 -0.5127 -1.6313
 6560TIP3   OH241094   5.659   5.403  11.628 -0.6877 -0.7637  0.2624
 6560TIP3    H141095   5.710   5.459  11.687  0.3119  0.0492 -1.3246
 6560TIP3    H241096   5.621   5.464  11.565 -0.0548 -1.7966 -1.1628
 6561TIP3   OH241097   6.273   1.467  15.007 -0.1537  0.1364  0.4293
 6561TIP3    H141098   6.190   1.437  14.971 -0.3379  1.2177 -0.1053
 6561TIP3    H241099   6.277   1.560  14.984  0.9752  0.2237  0.8830
 6562TIP3   OH241100   4.486   5.174  11.505  0.1573  0.1564 -0.0447
 6562TIP3    H141101   4.549   5.237  11.537  0.8217 -0.0473 -0.9213
 6562TIP3    H241102   4.463   5.204  11.417 -1.6988  0.7589  0.5973
 6563TIP3   OH241103   1.978   5.585   5.270 -0.7010 -0.2009 -0.1523
 6563TIP3    H141104   1.896   5.572   5.223 -0.6310  0.7430 -0.5536
 6563TIP3    H241105   1.953   5.630   5.351 -0.4837  1.0736 -0.7673
 6564TIP3   OH241106   2.347   0.492  17.203 -0.2186 -0.5866 -0.1371
 6564TIP3    H141107   2.263   0.448  17.217 -0.9277 -0.0786 -2.4012
 6564TIP3    H241108   2.407   0.422  17.179 -0.7741 -0.6355 -1.4643
 6565TIP3   OH241109   5.911   2.103   6.364  0.0345 -0.6030 -0.2338
 6565TIP3    H141110   5.989   2.084   6.415  0.1813 -0.7663 -0.5148
 6565TIP3    H241111   5.884   2.018   6.329  0.8778 -0.2802 -1.7673
 6566TIP3   OH241112   5.487   2.586  15.489 -0.4397 -0.2627  0.2925
 6566TIP3    H141113   5.486   2.679  15.512 -0.1716 -0.4541  1.1187
 6566TIP3    H241114   5.565   2.576  15.434 -1.8521  0.4695 -1.9434
 6567TIP3   OH241115   6.301   3.601  10.711  0.0347  0.1067 -0.3252
 6567TIP3    H141116   6.391   3.590  10.680 -0.0347 -1.2060 -0.1332
 6567TIP3    H241117   6.302   3.684  10.759  0.7878  0.8343 -1.5284
 6568TIP3   OH241118   0.046   5.220   1.190 -0.1573  0.3581 -0.0482
 6568TIP3    H141119   0.121   5.278   1.177  0.6524 -0.2328  1.6196
 6568TIP3    H241120  -0.009   5.266   1.252  0.2884 -0.4328  0.9707
 6569TIP3   OH241121   3.058   2.789  14.543  0.5643 -0.3040  0.2848
 6569TIP3    H141122   3.138   2.741  14.520  0.8493  0.2730  0.0652
 6569TIP3    H241123   3.019   2.813  14.459  0.9792  0.7596  0.3868
 6570TIP3   OH241124   5.878   1.842  12.164 -0.2788  0.0740 -0.0728
 6570TIP3    H141125   5.840   1.800  12.087 -2.2044  1.8943 -0.1952
 6570TIP3    H241126   5.853   1.787  12.238  1.5667 -1.6771 -0.6827
 6571TIP3   OH241127   5.746   1.814  14.867 -0.2193  0.1148 -0.1047
 6571TIP3    H141128   5.665   1.844  14.826 -0.5893  0.7949  1.0747
 6571TIP3    H241129   5.724   1.729  14.905 -0.2072  0.0192 -0.3121
 6572TIP3   OH241130   4.230   5.717  16.905 -0.0408  0.0660 -0.5465
 6572TIP3    H141131   4.293   5.680  16.843  1.2974 -1.1646  1.4138
 6572TIP3    H241132   4.281   5.776  16.959 -0.7080 -0.3706  0.6018
 6573TIP3   OH241133   4.327   5.692  13.616 -0.3921 -0.2816  0.1285
 6573TIP3    H141134   4.337   5.610  13.666 -2.0744  1.8775  4.5997
 6573TIP3    H241135   4.238   5.687  13.580 -1.1017  0.0397  1.7054
 6574TIP3   OH241136   3.113   2.673  16.338 -0.6551  0.0454  0.8390
 6574TIP3    H141137   3.027   2.653  16.376  0.0463 -1.3640  1.7900
 6574TIP3    H241138   3.118   2.768  16.337 -2.6156  0.1728 -0.1536
 6575TIP3   OH241139   3.493   6.484   4.536  0.0249 -0.6780  0.2953
 6575TIP3    H141140   3.462   6.567   4.572  1.7563  0.2441 -0.1913
 6575TIP3    H241141   3.521   6.433   4.612  2.1747  0.6129  0.4316
 6576TIP3   OH241142   1.199   2.591   1.633  0.3161  0.1907  0.1476
 6576TIP3    H141143   1.258   2.618   1.704  1.4202  2.9884 -1.6604
 6576TIP3    H241144   1.120   2.644   1.647 -0.6760 -1.4317  0.9130
 6577TIP3   OH241145   4.874   1.703  10.846 -0.6043 -0.1592 -0.7575
 6577TIP3    H141146   4.880   1.611  10.821 -0.5803 -0.4856  0.3883
 6577TIP3    H241147   4.791   1.732  10.808  0.2137 -0.1396 -2.6369
 6578TIP3   OH241148   4.416   4.166   6.275  0.5011  0.0649 -0.1396
 6578TIP3    H141149   4.361   4.132   6.345  1.1009 -1.1266 -0.2154
 6578TIP3    H241150   4.472   4.092   6.251  0.4149  0.4943 -1.7759
 6579TIP3   OH241151   4.790   2.401   0.300  0.1331  0.5805 -0.1432
 6579TIP3    H141152   4.810   2.411   0.394 -1.5440 -2.0544  0.5899
 6579TIP3    H241153   4.734   2.324   0.296 -0.9481  1.4145 -3.2210
 6580TIP3   OH241154   4.424   0.643  13.266 -0.2746 -0.3865 -0.6354
 6580TIP3    H141155   4.395   0.706  13.199 -0.6022  0.2585  0.1016
 6580TIP3    H241156   4.359   0.651  13.336 -1.6818 -3.2222 -1.4629
 6581TIP3   OH241157   0.607   4.064   1.190 -0.3311 -0.0242  0.1160
 6581TIP3    H141158   0.627   4.132   1.254 -1.9908  0.5179  0.0961
 6581TIP3    H241159   0.692   4.039   1.154  0.2222  4.3020 -2.1993
 6582TIP3   OH241160   4.043   1.615  12.251 -0.6701  0.1669  0.0867
 6582TIP3    H141161   4.073   1.630  12.162  1.2982 -1.1295  0.4716
 6582TIP3    H241162   3.961   1.567  12.241 -1.4466  1.6235 -0.9914
 6583TIP3   OH241163   3.199   3.472  15.795  0.3844  0.4069 -0.0985
 6583TIP3    H141164   3.208   3.567  15.791 -0.7822  0.5044 -2.2221
 6583TIP3    H241165   3.104   3.457  15.794  0.5538 -0.7650 -0.1345
 6584TIP3   OH241166   6.082   6.724   5.353 -0.4037 -0.0779  0.1909
 6584TIP3    H141167   6.123   6.638   5.362  0.1842  0.1797  0.0535
 6584TIP3    H241168   6.001   6.708   5.306  0.3714 -0.3843 -1.0743
 6585TIP3   OH241169   4.668   2.839  11.518  0.0468 -0.1183  0.1076
 6585TIP3    H141170   4.680   2.748  11.488  3.1310 -0.4051  1.8443
 6585TIP3    H241171   4.646   2.830  11.611 -0.6592  0.9182  0.0470
 6586TIP3   OH241172   1.457   1.497   0.161 -0.3543 -0.2154  0.0467
 6586TIP3    H141173   1.526   1.444   0.200 -1.0921 -1.1121  0.1772
 6586TIP3    H241174   1.430   1.449   0.083 -0.7619  0.1667 -0.0543
 6587TIP3   OH241175   5.923   6.283  11.675 -0.1440  0.0951 -0.6426
 6587TIP3    H141176   5.865   6.229  11.728  2.3562 -0.4795  1.7426
 6587TIP3    H241177   5.983   6.220  11.635  0.1537  0.8190 -1.3524
 6588TIP3   OH241178   3.363   5.318   5.848 -0.1535 -1.1154  0.4949
 6588TIP3    H141179   3.405   5.244   5.892 -1.0694 -1.5018  0.7372
 6588TIP3    H241180   3.382   5.393   5.904  0.7784 -1.1532  0.2493
 6589TIP3   OH241181   1.439   2.724  14.220  0.0487 -0.0307  0.6306
 6589TIP3    H141182   1.525   2.705  14.257  0.3902 -0.7893 -0.4765
 6589TIP3    H241183   1.392   2.641  14.225  0.6196 -0.5948 -1.8723
 6590TIP3   OH241184   3.634   4.141   3.203 -0.6153 -0.3839 -0.3517
 6590TIP3    H141185   3.602   4.183   3.124 -1.1742  1.3223  0.7351
 6590TIP3    H241186   3.677   4.210   3.253 -0.4672 -1.3481  0.9453
 6591TIP3   OH241187   5.072   0.004  11.800  0.2238 -0.1483 -0.1959
 6591TIP3    H141188   5.074   0.065  11.874 -1.9927  0.1916 -0.3500
 6591TIP3    H241189   5.164  -0.017  11.785  0.9570  1.8798  0.9179
 6592TIP3   OH241190   2.651   4.212   0.661 -0.4227 -0.4901  0.3693
 6592TIP3    H141191   2.637   4.118   0.671  3.3681 -1.6845 -2.7481
 6592TIP3    H241192   2.715   4.234   0.729  1.0714 -1.0064 -0.8168
 6593TIP3   OH241193   3.880   1.891  16.631 -0.6489  0.2543  0.4021
 6593TIP3    H141194   3.829   1.811  16.626  1.2047 -1.0489  1.1216
 6593TIP3    H241195   3.891   1.918  16.540  0.7124 -1.7041 -0.0759
 6594TIP3   OH241196   6.204   4.193   0.715 -0.6079  0.0633 -0.4198
 6594TIP3    H141197   6.275   4.171   0.654  0.0834  0.7900  0.0832
 6594TIP3    H241198   6.156   4.263   0.671 -2.2153 -1.7083 -1.5967
 6595TIP3   OH241199   5.280   1.351  13.763 -0.1282  0.4469  0.3003
 6595TIP3    H141200   5.205   1.316  13.716  0.7333  0.2876 -1.0059
 6595TIP3    H241201   5.356   1.318  13.715  0.7575  1.3681  1.0258
 6596TIP3   OH241202   2.650   1.711  11.841  0.2661 -0.1277  0.0781
 6596TIP3    H141203   2.626   1.618  11.842  0.6573 -0.2327  0.2572
 6596TIP3    H241204   2.746   1.710  11.848  0.4291  0.2401 -1.5570
 6597TIP3   OH241205   0.377   3.631   2.686  0.2899 -0.4062 -0.2977
 6597TIP3    H141206   0.354   3.545   2.719 -0.3605  0.6096  2.1556
 6597TIP3    H241207   0.301   3.686   2.706  1.0823  0.9540 -0.8434
 6598TIP3   OH241208   3.578   0.397  13.876  0.3092 -0.6786  0.2523
 6598TIP3    H141209   3.633   0.392  13.798  1.7440 -1.9041  1.2692
 6598TIP3    H241210   3.588   0.486  13.907  0.3154 -0.3945 -0.5390
 6599TIP3   OH241211   5.257   1.822   4.286 -0.1066 -0.0357  0.7552
 6599TIP3    H141212   5.207   1.863   4.357 -0.3187 -0.2379  0.7250
 6599TIP3    H241213   5.335   1.786   4.328  0.3825  0.9129  0.6911
 6600TIP3   OH241214   6.744   2.932   6.026 -0.0382 -0.4940  0.1342
 6600TIP3    H141215   6.649   2.930   6.031 -0.0764 -1.7391 -0.7380
 6600TIP3    H241216   6.766   2.866   5.960  1.4677 -0.7512  0.8575
 6601TIP3   OH241217   2.181   3.648  16.821  0.3561  0.5204 -0.1419
 6601TIP3    H141218   2.158   3.693  16.902  1.7202  1.0176 -0.0002
 6601TIP3    H241219   2.110   3.668  16.760 -0.7737  0.0011  0.9618
 6602TIP3   OH241220   3.645   0.039   1.338 -0.1537 -0.4770  0.0464
 6602TIP3    H141221   3.651   0.071   1.248  0.5535 -1.8591 -0.4306
 6602TIP3    H241222   3.687   0.107   1.390  2.8445 -1.2420 -1.1199
 6603TIP3   OH241223   2.459   4.372  15.300  0.1860 -0.5218  0.5955
 6603TIP3    H141224   2.375   4.330  15.319 -1.4102  1.0729 -2.3132
 6603TIP3    H241225   2.515   4.300  15.270 -1.0615 -1.2314 -0.1100
 6604TIP3   OH241226   3.185   2.368   1.211  0.3060  0.6180  0.3465
 6604TIP3    H141227   3.134   2.401   1.285  1.5230  1.3693  0.8821
 6604TIP3    H241228   3.274   2.359   1.245  0.3295 -1.9086 -0.2045
 6605TIP3   OH241229   5.218   6.512   2.923  0.2816  0.2773 -0.5252
 6605TIP3    H141230   5.149   6.445   2.921  1.1418 -0.8527  2.2649
 6605TIP3    H241231   5.175   6.590   2.956 -0.1504  0.3113 -1.1482
 6606TIP3   OH241232   4.594   2.225   0.265  0.3936 -0.2497  0.0467
 6606TIP3    H141233   4.556   2.170   0.196 -1.3580  1.0179 -0.0743
 6606TIP3    H241234   4.541   2.204   0.342 -0.7358  1.6775 -0.1539
 6607TIP3   OH241235   1.906   2.450   2.314 -0.5468 -0.0076  0.1954
 6607TIP3    H141236   1.997   2.469   2.339 -0.8769  1.4938  0.3375
 6607TIP3    H241237   1.869   2.535   2.291 -1.2443 -0.8795 -2.2094
 6608TIP3   OH241238   0.904   4.019  12.849  0.1985 -0.1925 -0.3388
 6608TIP3    H141239   0.824   3.991  12.895  0.0201 -0.2558 -0.6907
 6608TIP3    H241240   0.948   3.938  12.827  0.2983 -0.1600 -0.2624
 6609TIP3   OH241241   3.682   5.695   5.527  0.0099 -0.1895 -0.5372
 6609TIP3    H141242   3.752   5.657   5.474 -0.5527 -1.0395 -0.6900
 6609TIP3    H241243   3.646   5.621   5.576  0.0592  0.4653  0.5158
 6610TIP3   OH241244   0.532   1.060   3.265  0.7559  0.0480 -0.0512
 6610TIP3    H141245   0.501   1.052   3.175  0.7982 -1.0192  0.0202
 6610TIP3    H241246   0.591   1.135   3.263  1.3629 -0.4297 -1.0898
 6611TIP3   OH241247   5.435   2.793   3.002 -0.0275  0.2878  0.7486
 6611TIP3    H141248   5.515   2.769   2.955 -0.6917  0.2499 -0.4027
 6611TIP3    H241249   5.421   2.720   3.062  0.4166 -0.0558  0.4506
 6612TIP3   OH241250   0.766   2.009  16.649 -0.8246  0.2486  0.8854
 6612TIP3    H141251   0.844   1.975  16.692 -1.1773  0.2270  1.5221
 6612TIP3    H241252   0.770   1.974  16.560  1.0838  2.1164  0.1593
 6613TIP3   OH241253   3.694   5.119   2.851  0.5641  0.0317  0.8583
 6613TIP3    H141254   3.669   5.183   2.784 -1.0425 -0.7472  0.6956
 6613TIP3    H241255   3.721   5.042   2.802  0.3905 -0.1762  1.0887
 6614TIP3   OH241256   2.345   6.463  15.340  0.1360  0.3999 -0.7449
 6614TIP3    H141257   2.423   6.409  15.349  0.0589  0.1180 -1.6757
 6614TIP3    H241258   2.378   6.553  15.343  0.7743  0.3044 -2.9331
 6615TIP3   OH241259   2.204   3.066   6.800  0.0488 -0.6058  0.2512
 6615TIP3    H141260   2.218   3.138   6.862 -0.4523 -3.0395  3.4631
 6615TIP3    H241261   2.111   3.071   6.778 -0.0636 -0.4607  0.7458
 6616TIP3   OH241262   2.156   1.191  13.289 -0.1434 -0.3896 -0.1593
 6616TIP3    H141263   2.063   1.169  13.278  0.1990 -1.7090 -0.5792
 6616TIP3    H241264   2.178   1.241  13.210 -0.5324  0.0955  0.0326
 6617TIP3   OH241265   5.192   1.786   0.174  0.5743  0.3687 -0.5385
 6617TIP3    H141266   5.182   1.739   0.091 -1.7404  1.6451 -1.0611
 6617TIP3    H241267   5.282   1.768   0.201  0.2999 -3.0661 -1.4419
 6618TIP3   OH241268   4.764   0.618  16.126 -0.6232  0.3823  0.1869
 6618TIP3    H141269   4.734   0.528  16.135 -0.0178 -0.1802 -2.5393
 6618TIP3    H241270   4.685   0.671  16.134 -1.1984 -0.4867  0.3893
 6619TIP3   OH241271   3.150   4.182   5.805 -0.1274 -0.0768  0.1173
 6619TIP3    H141272   3.148   4.238   5.883  1.3795 -0.8509  0.7584
 6619TIP3    H241273   3.075   4.124   5.815 -0.5807  0.5462  0.4235
 6620TIP3   OH241274   3.631   6.506  14.511 -0.2918  0.6942 -0.3597
 6620TIP3    H141275   3.665   6.585  14.470  1.6205 -0.7440 -1.6993
 6620TIP3    H241276   3.586   6.459  14.441  1.5876 -1.0031 -0.5129
 6621TIP3   OH241277   1.166   0.649   4.840  0.1738  0.3064 -0.6438
 6621TIP3    H141278   1.101   0.585   4.868  0.5257  0.1343 -0.1995
 6621TIP3    H241279   1.140   0.673   4.751 -0.6196  0.4003 -0.4033
 6622TIP3   OH241280   1.468   0.029  13.372 -0.1499 -0.0009  0.2975
 6622TIP3    H141281   1.480   0.066  13.285  1.5743 -0.6508  0.2286
 6622TIP3    H241282   1.398  -0.036  13.361  0.5976 -0.6642 -0.8138
 6623TIP3   OH241283   0.449   0.758  12.498  0.2006 -0.0526 -0.2097
 6623TIP3    H141284   0.355   0.739  12.507  0.0077  0.6851 -0.5326
 6623TIP3    H241285   0.487   0.734  12.582  0.0920 -2.3801 -0.7795
 6624TIP3   OH241286   5.978   3.227   3.303  0.0904 -0.0884  0.3226
 6624TIP3    H141287   5.939   3.297   3.356 -0.9003  0.1338 -0.6625
 6624TIP3    H241288   5.924   3.224   3.224  1.1672 -0.8228 -0.4114
 6625TIP3   OH241289   6.298   1.317  12.586 -0.3154  0.5075 -0.2771
 6625TIP3    H141290   6.371   1.366  12.548 -0.8622  1.8886  0.4031
 6625TIP3    H241291   6.280   1.248  12.521  1.4880  0.1986 -0.5140
 6626TIP3   OH241292   4.759   0.093  10.872  0.1850 -0.0831  0.0533
 6626TIP3    H141293   4.847   0.076  10.906 -0.0466 -0.8432  0.2825
 6626TIP3    H241294   4.763   0.184  10.842  0.4425  0.5753  1.9659
 6627TIP3   OH241295   2.106   5.403   4.045  0.0038 -0.6875 -0.5049
 6627TIP3    H141296   2.159   5.433   3.971 -0.2420 -0.9410 -0.7882
 6627TIP3    H241297   2.168   5.357   4.102  0.3957  0.3963 -0.0398
 6628TIP3   OH241298   3.426   2.211  15.272 -0.2697 -0.1148  0.1752
 6628TIP3    H141299   3.500   2.163  15.310  0.1599 -0.0158 -0.5072
 6628TIP3    H241300   3.356   2.145  15.265 -0.3467 -0.1395  1.0849
 6629TIP3   OH241301   5.477   0.387   3.434 -0.3221 -0.0904  0.3213
 6629TIP3    H141302   5.477   0.353   3.523  2.2498 -1.5201 -0.1045
 6629TIP3    H241303   5.458   0.480   3.443 -0.5499 -0.2946  2.3194
 6630TIP3   OH241304   3.147   1.791   3.122 -0.4397 -0.0229  0.0066
 6630TIP3    H141305   3.206   1.791   3.198  0.2473 -0.2591 -0.5215
 6630TIP3    H241306   3.191   1.845   3.057 -0.8412 -0.1434 -0.3695
 6631TIP3   OH241307   2.102   2.180   5.433  0.6153  0.3604  0.4592
 6631TIP3    H141308   2.043   2.136   5.371 -0.7365  0.8039  1.3840
 6631TIP3    H241309   2.182   2.195   5.383  0.4998 -1.5945 -0.3880
 6632TIP3   OH241310   3.916   0.002  15.462  0.4240  0.2018  0.2416
 6632TIP3    H141311   3.967  -0.067  15.421  0.5644  0.5471 -0.1695
 6632TIP3    H241312   3.828  -0.008  15.426  0.6748  0.8529 -0.5941
 6633TIP3   OH241313   6.699   0.540   3.413 -0.5907 -0.4438 -0.2937
 6633TIP3    H141314   6.612   0.530   3.372 -1.1491 -0.8840  0.9576
 6633TIP3    H241315   6.680   0.557   3.505  0.6293  1.1616 -0.3049
 6634TIP3   OH241316   6.663   2.591  15.511 -0.7702  0.1556  0.2866
 6634TIP3    H141317   6.679   2.525  15.579 -0.6124 -0.2231 -0.1087
 6634TIP3    H241318   6.710   2.558  15.435  0.2837  1.3224  0.4152
 6635TIP3   OH241319   6.281   2.585  16.566  0.1188 -0.1379 -0.0649
 6635TIP3    H141320   6.303   2.623  16.651  1.6300 -1.4051  0.1728
 6635TIP3    H241321   6.198   2.540  16.581 -1.1441  2.0878 -0.0798
 6636TIP3   OH241322   2.209   2.763  17.247  0.5807 -0.1819 -0.7218
 6636TIP3    H141323   2.136   2.710  17.216 -0.0705  0.8057 -0.9079
 6636TIP3    H241324   2.285   2.732  17.197  0.1143 -0.5929 -1.1777
 6637TIP3   OH241325   5.023   2.458   2.487 -0.1985 -0.1932 -0.3391
 6637TIP3    H141326   5.003   2.371   2.522  2.7550 -0.9888 -0.3214
 6637TIP3    H241327   4.991   2.456   2.397  1.3918 -2.0186 -0.9212
 6638TIP3   OH241328   4.218   6.219  14.714 -0.3453  0.2720 -0.0987
 6638TIP3    H141329   4.281   6.231  14.643 -1.3130  1.4003 -0.8001
 6638TIP3    H241330   4.271   6.188  14.788  1.1457  1.8776 -0.4388
 6639TIP3   OH241331   4.142   1.517   5.991  0.9305 -0.0296  0.1161
 6639TIP3    H141332   4.232   1.538   5.968  0.2605  1.9450 -0.9116
 6639TIP3    H241333   4.119   1.581   6.058  0.3076 -0.5950  0.4576
 6640TIP3   OH241334   0.174   4.965   3.675 -0.2770 -0.0977  0.4073
 6640TIP3    H141335   0.248   4.904   3.681 -0.2090 -0.0994 -0.3859
 6640TIP3    H241336   0.117   4.927   3.609  0.2130  1.1700 -0.7839
 6641TIP3   OH241337   3.800   5.003  15.796 -0.5030 -0.3603  0.0620
 6641TIP3    H141338   3.784   5.002  15.702 -2.6469  0.6910  0.3690
 6641TIP3    H241339   3.725   4.958  15.834  1.5093 -3.0624  1.2090
 6642TIP3   OH241340   5.932   6.533  11.760  0.4147 -0.0284 -0.2245
 6642TIP3    H141341   5.929   6.452  11.709  2.5229  0.8673 -1.9484
 6642TIP3    H241342   6.018   6.571  11.739  0.5843  1.3805  2.5688
 6643TIP3   OH241343   1.753   0.908   4.588  0.0771  0.3831 -0.0117
 6643TIP3    H141344   1.761   0.934   4.496  0.2027 -0.7506 -0.3352
 6643TIP3    H241345   1.819   0.962   4.633  2.2512 -1.2224 -1.0609
 6644TIP3   OH241346   3.626   4.743   4.728  0.2686 -0.0277 -0.1978
 6644TIP3    H141347   3.570   4.819   4.710 -0.1070 -0.2038  0.1953
 6644TIP3    H241348   3.585   4.702   4.804  0.4150 -0.6790 -0.4705
 6645TIP3   OH241349   3.963   2.258   2.638 -0.8451 -0.0988  0.1170
 6645TIP3    H141350   3.997   2.195   2.575  0.1568  0.5205  0.0261
 6645TIP3    H241351   3.871   2.232   2.650 -0.8402 -0.7044 -0.9931
 6646TIP3   OH241352   6.263   2.505  15.029 -0.2662 -0.1661 -0.6140
 6646TIP3    H141353   6.237   2.575  14.970 -1.9537 -0.0080  0.2507
 6646TIP3    H241354   6.359   2.509  15.032 -0.1771  0.1932 -2.8195
 6647TIP3   OH241355   2.273   3.572   3.084 -0.3331 -0.3708 -0.3951
 6647TIP3    H141356   2.200   3.558   3.144 -0.5719 -0.6635 -0.7490
 6647TIP3    H241357   2.328   3.638   3.128 -1.1624  0.3712 -0.4456
 6648TIP3   OH241358   4.859   1.640  11.219 -0.1647 -0.0656 -0.1565
 6648TIP3    H141359   4.850   1.586  11.141 -1.9861  0.6136 -0.4656
 6648TIP3    H241360   4.785   1.615  11.274  0.8550 -0.2362  1.1907
 6649TIP3   OH241361   5.846   2.656   1.231  0.6893  0.2080  0.9733
 6649TIP3    H141362   5.852   2.751   1.240  2.2838  0.6825 -2.8590
 6649TIP3    H241363   5.934   2.624   1.251  0.1064 -0.5664  2.4732
 6650TIP3   OH241364   6.077   2.721   0.406  0.1281  0.1726  0.0811
 6650TIP3    H141365   6.158   2.722   0.456 -0.3865 -0.0051  0.9337
 6650TIP3    H241366   6.089   2.790   0.341  1.6982 -1.0747 -1.0366
 6651TIP3   OH241367   2.423   3.929   0.109 -0.4631  0.1508  0.2972
 6651TIP3    H141368   2.413   3.834   0.111 -1.7279  0.1544 -2.0130
 6651TIP3    H241369   2.400   3.958   0.197  0.7384 -1.7055  1.2693
 6652TIP3   OH241370   2.330   2.243   5.089 -0.0356  0.2444 -0.4915
 6652TIP3    H141371   2.273   2.185   5.138  1.6575 -1.9248 -0.9392
 6652TIP3    H241372   2.418   2.209   5.105  0.8687  1.6243 -2.2078
 6653TIP3   OH241373   5.020   0.230   2.000 -0.0728  0.0842 -0.1859
 6653TIP3    H141374   5.016   0.228   2.095 -1.3755 -2.0684 -0.2324
 6653TIP3    H241375   4.963   0.159   1.971  0.4922  0.4943 -2.5771
 6654TIP3   OH241376   5.015   0.678   0.920  0.4359 -0.1986  0.0267
 6654TIP3    H141377   5.045   0.766   0.942 -0.7609  0.8577 -2.1975
 6654TIP3    H241378   5.059   0.658   0.837 -2.6861  0.2750 -1.9124
 6655TIP3   OH241379   3.605   0.464   3.811  0.0954 -0.1670 -0.6322
 6655TIP3    H141380   3.608   0.387   3.868 -0.5341  1.3323  1.5635
 6655TIP3    H241381   3.537   0.444   3.746 -1.0707 -0.9432  0.7667
 6656TIP3   OH241382   5.076   2.941   5.504  0.3047  0.6962 -0.0899
 6656TIP3    H141383   5.079   2.854   5.543  0.1113  0.5304 -0.4395
 6656TIP3    H241384   5.106   2.928   5.414  1.4930  1.2041  0.2162
 6657TIP3   OH241385   2.039   1.786  12.263 -0.0734  0.1438  0.3107
 6657TIP3    H141386   1.971   1.777  12.196 -0.6784 -1.5072  1.1140
 6657TIP3    H241387   2.056   1.697  12.293  2.7366  0.4374 -0.1054
 6658TIP3   OH241388   2.823   3.463   2.543 -0.1537 -0.6197  0.2470
 6658TIP3    H141389   2.894   3.404   2.569  0.3164 -0.3399 -0.3893
 6658TIP3    H241390   2.769   3.410   2.484  0.3145 -0.3967 -0.3908
 6659TIP3   OH241391   6.537   5.487   0.791  0.2088 -0.3223  0.3419
 6659TIP3    H141392   6.450   5.527   0.793  0.1655 -0.4341  0.8170
 6659TIP3    H241393   6.524   5.404   0.745 -0.0266 -0.5559  0.8320
 6660TIP3   OH241394   5.272   4.338  17.192 -0.0153  0.2001  0.1791
 6660TIP3    H141395   5.341   4.399  17.166 -0.7965  1.1176  0.2019
 6660TIP3    H241396   5.308   4.292  17.268  0.7993  0.2333 -0.1822
 6661TIP3   OH241397   4.311   0.969  11.795 -0.5934  0.1465  0.1174
 6661TIP3    H141398   4.363   0.986  11.716 -2.5662  0.4049 -1.1868
 6661TIP3    H241399   4.356   1.019  11.864  0.4544  0.9747 -1.1166
 6662TIP3   OH241400   5.866   3.122   3.961  0.1395 -0.7431  0.3890
 6662TIP3    H141401   5.881   3.215   3.946  0.7617 -0.9785 -0.6067
 6662TIP3    H241402   5.784   3.103   3.914 -0.4666 -0.5231  1.3472
 6663TIP3   OH241403   6.534   0.645  14.391 -0.2101 -0.3053  0.7382
 6663TIP3    H141404   6.501   0.656  14.302  2.8472 -1.0313 -0.6092
 6663TIP3    H241405   6.501   0.721  14.438 -2.1040 -0.0198 -0.8954
 6664TIP3   OH241406   3.149   5.392  13.054  0.0356 -0.2514  0.4935
 6664TIP3    H141407   3.244   5.391  13.067  0.0568 -0.1149  0.3438
 6664TIP3    H241408   3.129   5.308  13.013  0.0297 -0.4842  0.9593
 6665TIP3   OH241409   3.798   2.463   2.982 -0.7120  0.3145 -0.1725
 6665TIP3    H141410   3.826   2.388   3.035  1.3598  1.1266 -0.0238
 6665TIP3    H241411   3.838   2.448   2.896  1.1159  1.9755  0.3160
 6666TIP3   OH241412   2.162   6.603   6.325  0.2800 -0.0773  0.3485
 6666TIP3    H141413   2.194   6.531   6.270 -0.0987  0.6805 -0.8979
 6666TIP3    H241414   2.238   6.629   6.377  0.7665 -0.5397 -0.1178
 6667TIP3   OH241415   2.159   0.757   5.115 -0.0427 -0.2570 -0.0332
 6667TIP3    H141416   2.129   0.834   5.163  0.2793  0.6129 -1.1627
 6667TIP3    H241417   2.239   0.729   5.161 -0.4361 -0.2197  0.6736
 6668TIP3   OH241418   4.159   1.668   2.632  0.8712 -0.1638  0.2667
 6668TIP3    H141419   4.209   1.748   2.616  0.3130 -0.0223 -0.9330
 6668TIP3    H241420   4.089   1.670   2.566  1.2383 -1.9597 -0.2503
 6669TIP3   OH241421   3.541   3.249   3.814  0.2632  0.2698 -0.5706
 6669TIP3    H141422   3.615   3.287   3.767 -0.0686  1.3381 -0.2568
 6669TIP3    H241423   3.477   3.227   3.746  0.9650 -0.9119 -0.8686
 6670TIP3   OH241424   2.008   1.674  11.814  0.6760 -0.4350 -0.1597
 6670TIP3    H141425   1.998   1.580  11.830  0.2470 -0.2178  0.9442
 6670TIP3    H241426   1.942   1.695  11.749  0.8922 -0.9315 -0.5377
 6671TIP3   OH241427   4.114   1.340  13.730  0.4334  0.7036 -0.3479
 6671TIP3    H141428   4.179   1.398  13.692 -0.0113 -0.1131 -2.4992
 6671TIP3    H241429   4.032   1.390  13.727  0.4855  0.8096 -0.0162
 6672TIP3   OH241430   4.739   1.220  17.094  0.1239 -0.5940 -0.5528
 6672TIP3    H141431   4.654   1.262  17.083 -0.6354 -0.8559  3.0827
 6672TIP3    H241432   4.730   1.134  17.052 -0.1217  0.6686 -3.2599
 6673TIP3   OH241433   1.627   5.293   2.111 -0.2292 -0.2304  0.2130
 6673TIP3    H141434   1.545   5.282   2.159 -1.4384  0.6201 -1.5601
 6673TIP3    H241435   1.627   5.385   2.083  1.4654 -0.1365  0.3598
 6674TIP3   OH241436   2.560   1.156   5.254 -0.0740 -0.4227  0.5763
 6674TIP3    H141437   2.534   1.204   5.175 -0.0660 -2.4270 -0.7241
 6674TIP3    H241438   2.517   1.203   5.326  1.4893  2.6244 -0.3219
 6675TIP3   OH241439   2.129   0.070   2.165 -0.2461 -0.6582  0.6960
 6675TIP3    H141440   2.069   0.103   2.233 -0.3982  0.0875  0.2184
 6675TIP3    H241441   2.080   0.081   2.083  1.4521  2.4871 -0.0635
 6676TIP3   OH241442   5.756   0.815  12.807 -0.0827 -0.3714  0.0371
 6676TIP3    H141443   5.818   0.888  12.813  0.3100 -0.6569 -0.5173
 6676TIP3    H241444   5.700   0.837  12.733 -1.4902  0.5102  1.2946
 6677TIP3   OH241445   2.289   0.255   1.939 -0.3676 -0.5980 -0.3660
 6677TIP3    H141446   2.381   0.265   1.966 -0.7290  0.5032  0.5681
 6677TIP3    H241447   2.240   0.304   2.005 -1.5932 -0.7585 -1.1314
 6678TIP3   OH241448   3.005   4.163   2.699 -0.1244 -0.6700  0.0387
 6678TIP3    H141449   2.998   4.104   2.624  0.9415  0.2759 -0.8451
 6678TIP3    H241450   2.915   4.185   2.721 -0.4676  0.7773 -2.4152
 6679TIP3   OH241451   1.250   1.478   3.773 -0.2032  0.4208  0.1636
 6679TIP3    H141452   1.292   1.560   3.746 -1.4864  1.6942  1.8050
 6679TIP3    H241453   1.233   1.490   3.866 -1.2070 -1.3875  0.2538
 6680TIP3   OH241454   1.329   6.404  11.665  0.4775 -0.1170 -0.2706
 6680TIP3    H141455   1.417   6.407  11.628 -0.0236  0.6902 -1.4884
 6680TIP3    H241456   1.271   6.411  11.589 -0.6468 -0.7463  0.4949
 6681TIP3   OH241457   1.236   5.863   4.743  0.3010 -0.4827 -0.1100
 6681TIP3    H141458   1.252   5.834   4.833 -1.2729 -0.1715  0.2910
 6681TIP3    H241459   1.142   5.881   4.739  0.2807 -0.7777 -1.9150
 6682TIP3   OH241460   5.689   0.228   5.616 -0.4159 -0.4606  0.8130
 6682TIP3    H141461   5.687   0.276   5.699 -2.9297  1.1441 -0.0441
 6682TIP3    H241462   5.597   0.223   5.589  0.3114 -0.8394 -1.9164
 6683TIP3   OH241463   4.931   5.358   0.882 -0.7112  0.1024 -0.4589
 6683TIP3    H141464   4.914   5.332   0.791 -0.8765 -0.8761 -0.1620
 6683TIP3    H241465   5.019   5.394   0.881  0.0321 -1.6310 -0.6826
 6684TIP3   OH241466   0.769   0.211   3.407 -0.1671  0.0879  0.7641
 6684TIP3    H141467   0.858   0.210   3.442 -0.3742  0.1766  1.2922
 6684TIP3    H241468   0.782   0.210   3.312  0.4038  0.5425  0.8258
 6685TIP3   OH241469   4.825   6.694   0.020  0.3093 -0.0232  0.2600
 6685TIP3    H141470   4.869   6.628   0.074 -0.1618 -0.1351  0.5139
 6685TIP3    H241471   4.788   6.644  -0.053 -0.3864 -0.1017  0.6619
 6686TIP3   OH241472   1.734   3.134   1.823  0.5140 -0.5830 -0.0618
 6686TIP3    H141473   1.674   3.184   1.768  1.8686 -0.3402 -1.3691
 6686TIP3    H241474   1.691   3.049   1.835 -2.1804  0.9734  2.7821
 6687TIP3   OH241475   3.823   6.551  14.154  0.2330 -0.1974  0.3324
 6687TIP3    H141476   3.788   6.577  14.068  0.4729 -0.3048  0.2005
 6687TIP3    H241477   3.759   6.489  14.188 -0.7444  1.1207  0.9933
 6688TIP3   OH241478   4.931   1.359  16.908 -0.3957  0.5072 -0.1875
 6688TIP3    H141479   4.871   1.295  16.947 -1.3098  0.4949 -1.5616
 6688TIP3    H241480   4.975   1.399  16.983 -0.1726 -1.3603  0.7318
 6689TIP3   OH241481   2.946   3.914  12.278 -0.7596 -0.2038 -0.3625
 6689TIP3    H141482   2.944   3.984  12.213 -0.5199 -0.5339 -0.7259
 6689TIP3    H241483   3.036   3.912  12.309 -0.2596 -1.6255 -1.7639
 6690TIP3   OH241484   3.072   1.702  14.546  0.5900 -0.4597 -0.5086
 6690TIP3    H141485   2.981   1.728  14.564  1.2372  0.9301  0.9855
 6690TIP3    H241486   3.110   1.777  14.501  0.8999 -1.2359 -1.5937
 6691TIP3   OH241487   4.922   4.263  10.473  0.3925 -0.1066 -0.2757
 6691TIP3    H141488   5.015   4.277  10.492  0.1159  0.2068  0.9424
 6691TIP3    H241489   4.889   4.218  10.550 -0.8400  1.3293  0.0768
 6692TIP3   OH241490   3.727   2.205  14.331  0.0976  0.8744 -0.3088
 6692TIP3    H141491   3.731   2.298  14.309  0.2007  1.0381  0.3780
 6692TIP3    H241492   3.784   2.162  14.267  1.5393  1.5004  0.5175
 6693TIP3   OH241493   5.263   5.937   2.069 -0.9832 -0.4331 -0.3200
 6693TIP3    H141494   5.189   5.997   2.056 -1.7918 -1.3081  0.1155
 6693TIP3    H241495   5.254   5.908   2.160 -0.5553 -1.1310 -0.4926
 6694TIP3   OH241496   0.738   3.658   4.206  0.0363 -0.2314 -0.0111
 6694TIP3    H141497   0.708   3.694   4.289 -1.0128 -0.0297 -0.4640
 6694TIP3    H241498   0.662   3.609   4.173 -0.0326  0.8321 -1.5029
 6695TIP3   OH241499   4.209   3.410   1.049 -0.4926  0.1999  0.3631
 6695TIP3    H141500   4.145   3.347   1.082 -1.9483  1.3187 -0.2287
 6695TIP3    H241501   4.173   3.440   0.965  1.6017 -0.3036 -0.7948
 6696TIP3   OH241502   3.546   1.575   5.177 -0.2453 -0.3630 -0.1871
 6696TIP3    H141503   3.608   1.551   5.247  0.4258 -0.6144 -0.8570
 6696TIP3    H241504   3.563   1.668   5.162 -0.1948 -0.3755 -0.2077
 6697TIP3   OH241505   4.075   6.362  16.027  0.0863  0.0849 -0.0012
 6697TIP3    H141506   4.052   6.289  15.969  0.7580 -0.3513  0.2644
 6697TIP3    H241507   4.027   6.437  15.991  0.8579 -0.0622 -1.4337
 6698TIP3   OH241508   6.443   2.168  15.314 -0.3186 -1.0294  0.4020
 6698TIP3    H141509   6.514   2.174  15.250 -1.4137 -1.6785 -0.9296
 6698TIP3    H241510   6.454   2.082  15.354 -0.6561 -1.3502 -0.1865
 6699TIP3   OH241511   2.237   4.267   4.009 -0.6898 -0.3495 -0.3382
 6699TIP3    H141512   2.255   4.251   4.102  0.6646 -2.5210 -0.8917
 6699TIP3    H241513   2.149   4.303   4.008 -0.8044 -0.4164  1.7816
 6700TIP3   OH241514   0.776   3.096   1.226 -0.5765 -0.2139 -0.0460
 6700TIP3    H141515   0.744   3.083   1.136  0.5610 -0.8014 -0.3864
 6700TIP3    H241516   0.872   3.093   1.218 -0.4640 -0.9665  1.2763
 6701TIP3   OH241517   6.092   4.303   4.009  0.0031  0.7887  0.0234
 6701TIP3    H141518   6.157   4.234   3.995 -1.1768 -0.3076 -0.2780
 6701TIP3    H241519   6.091   4.353   3.927  0.5177  0.8663  0.0636
 6702TIP3   OH241520   4.519   4.366  13.440  0.6482  0.1178 -0.0294
 6702TIP3    H141521   4.526   4.380  13.345  0.6008 -0.8628 -0.1873
 6702TIP3    H241522   4.539   4.452  13.478 -1.8985  1.2380 -0.9968
 6703TIP3   OH241523   4.206   6.211  12.070 -0.1866 -0.1174  0.1201
 6703TIP3    H141524   4.271   6.235  12.135  0.5137  2.0228 -1.2725
 6703TIP3    H241525   4.122   6.219  12.117  0.2831  1.5052  0.7626
 6704TIP3   OH241526   2.014   4.156  13.267  0.7169  0.2286 -0.0423
 6704TIP3    H141527   2.085   4.180  13.326  0.7855 -1.1431  0.4783
 6704TIP3    H241528   2.053   4.157  13.180  0.8878  1.2647  0.0431
 6705TIP3   OH241529   4.615   0.467   2.644 -0.3181 -0.0821 -0.2712
 6705TIP3    H141530   4.620   0.425   2.729  0.3354 -3.3775 -1.7781
 6705TIP3    H241531   4.526   0.502   2.639 -0.1318  0.8842  1.9641
 6706TIP3   OH241532   3.373   5.366  13.418 -0.4735 -0.2777 -0.0586
 6706TIP3    H141533   3.456   5.330  13.388 -0.6375 -0.6382 -0.0769
 6706TIP3    H241534   3.307   5.325  13.362 -0.6691 -0.0218 -0.0199
 6707TIP3   OH241535   2.092   2.395  15.885 -0.4696 -0.4853  0.3214
 6707TIP3    H141536   2.092   2.462  15.953 -0.2874  0.0842 -0.2372
 6707TIP3    H241537   2.008   2.350  15.897 -1.6132  1.2640 -0.6749
 6708TIP3   OH241538   0.773   2.574   4.814 -0.0180  0.0682 -0.5104
 6708TIP3    H141539   0.785   2.562   4.908  0.5987 -0.4763 -0.6482
 6708TIP3    H241540   0.727   2.657   4.806 -0.4658 -0.0915  0.2900
 6709TIP3   OH241541   4.474   1.042  11.568  0.9052  0.2425 -0.7792
 6709TIP3    H141542   4.524   1.007  11.494 -0.6742 -0.8060 -1.3823
 6709TIP3    H241543   4.444   1.128  11.538 -2.6284 -1.5133 -2.8306
 6710TIP3   OH241544   5.182   1.657  16.506  0.0910 -0.1170 -0.3037
 6710TIP3    H141545   5.246   1.696  16.566 -0.7279  0.6148  0.1130
 6710TIP3    H241546   5.114   1.622  16.564 -0.6346  0.4675 -0.7888
 6711TIP3   OH241547   5.830   3.580  15.453  0.0606 -0.8623 -0.1902
 6711TIP3    H141548   5.849   3.625  15.536  1.0934  0.4842 -1.1124
 6711TIP3    H241549   5.765   3.636  15.410  1.8460  0.2051 -1.6444
 6712TIP3   OH241550   6.055   4.470   3.784  0.4288 -0.2956  0.4653
 6712TIP3    H141551   6.084   4.560   3.771 -0.3235  0.0959  1.3796
 6712TIP3    H241552   6.018   4.444   3.699  0.6715  0.2443  0.1909
 6713TIP3   OH241553   2.721   0.157  12.033  0.1688  0.9373 -1.0208
 6713TIP3    H141554   2.679   0.168  11.948  1.4687  0.7283 -1.7223
 6713TIP3    H241555   2.668   0.091  12.078 -0.3019  0.7535 -1.8261
 6714TIP3   OH241556   5.467   6.293   3.157 -0.7233  0.5953  0.8306
 6714TIP3    H141557   5.505   6.280   3.244  0.8500  2.0701  0.4248
 6714TIP3    H241558   5.515   6.232   3.101  1.4169  2.6072  0.2771
 6715TIP3   OH241559   1.575   3.266   1.636  0.1682  0.0059  0.1243
 6715TIP3    H141560   1.498   3.215   1.610  0.3587 -1.0330  1.4901
 6715TIP3    H241561   1.544   3.356   1.641 -1.2275 -0.5174  1.6034
 6716TIP3   OH241562   0.253   6.003  15.600  0.3748 -0.5102  0.5359
 6716TIP3    H141563   0.275   6.095  15.586 -0.9375 -0.0076  1.5367
 6716TIP3    H241564   0.251   5.965  15.512  0.6276  0.4801  0.0881
 6717TIP3   OH241565   0.943   0.339  15.407  0.3634  0.3917  0.4453
 6717TIP3    H141566   0.980   0.268  15.458  1.0769  1.0134  0.8139
 6717TIP3    H241567   1.017   0.396  15.387 -0.0662  0.6397 -0.5006
 6718TIP3   OH241568   0.630   2.280   4.915 -0.7723  0.1045 -0.0570
 6718TIP3    H141569   0.555   2.304   4.969 -0.6220 -1.1354  0.7646
 6718TIP3    H241570   0.697   2.255   4.978 -0.8714 -2.2248 -0.7735
 6719TIP3   OH241571   3.779   4.189  16.707  0.3432 -0.1315  0.3332
 6719TIP3    H141572   3.713   4.143  16.759  0.4275  0.5432  1.0659
 6719TIP3    H241573   3.799   4.268  16.758  0.2658  0.6776 -0.8347
 6720TIP3   OH241574   0.135   5.368  16.179 -0.5769  0.4219 -0.0537
 6720TIP3    H141575   0.080   5.373  16.101 -1.6861  1.0934  0.7294
 6720TIP3    H241576   0.181   5.452  16.182  1.0087 -0.3591 -1.0261
 6721TIP3   OH241577   5.121   4.861  17.059  0.4488  0.1690 -0.3563
 6721TIP3    H141578   5.029   4.841  17.077  0.2332  1.1760 -0.2498
 6721TIP3    H241579   5.118   4.947  17.017  1.5533  1.5964  2.3043
 6722TIP3   OH241580   1.073   4.001   6.099 -0.2414 -0.0398 -0.2907
 6722TIP3    H141581   1.102   4.057   6.027  0.8953  0.5094  0.5638
 6722TIP3    H241582   1.154   3.967   6.137 -0.8426 -0.7251  0.4230
 6723TIP3   OH241583   3.409   1.486   1.558 -0.2126  0.4382 -0.2350
 6723TIP3    H141584   3.411   1.536   1.639 -1.9487 -0.5020  0.4430
 6723TIP3    H241585   3.471   1.531   1.501 -0.3189  2.2266  0.9629
 6724TIP3   OH241586   4.462   1.977  16.251  0.5904 -0.3348  0.3437
 6724TIP3    H141587   4.453   1.967  16.156  0.9344 -0.8649  0.3639
 6724TIP3    H241588   4.425   1.897  16.287  0.1984 -0.0085  0.6743
 6725TIP3   OH241589   5.050   1.792   6.264 -0.2826  0.0606 -0.4998
 6725TIP3    H141590   5.066   1.879   6.299 -1.4068 -0.0220  0.2779
 6725TIP3    H241591   5.054   1.734   6.341 -1.0659 -0.3514 -0.7560
 6726TIP3   OH241592   6.069   1.570   4.748 -0.5882  0.1203 -0.1779
 6726TIP3    H141593   6.071   1.555   4.842 -2.3464  0.7490 -0.0189
 6726TIP3    H241594   6.046   1.485   4.710  2.1762 -0.6977 -0.2602
 6727TIP3   OH241595   4.672   2.815   3.402 -0.5143  0.4678 -0.1096
 6727TIP3    H141596   4.622   2.896   3.396 -1.6396 -0.2542 -1.0469
 6727TIP3    H241597   4.634   2.768   3.476 -2.2112 -0.6567 -1.5961
 6728TIP3   OH241598   4.248   5.596   6.673  0.7812  0.0704  0.2608
 6728TIP3    H141599   4.306   5.640   6.735  0.9338  0.6397 -0.2712
 6728TIP3    H241600   4.206   5.667   6.625  0.2610 -0.3533  0.0741
 6729TIP3   OH241601   0.850   4.222  14.960  0.1458 -0.4132  0.8461
 6729TIP3    H141602   0.845   4.136  14.917  1.6690 -0.1682  0.1148
 6729TIP3    H241603   0.769   4.228  15.010 -0.6889 -1.6420 -0.2800
 6730TIP3   OH241604   6.064   5.138   1.903  0.1128  0.2250  0.0035
 6730TIP3    H141605   6.121   5.144   1.980  0.5431 -1.7238 -0.1102
 6730TIP3    H241606   6.119   5.167   1.831  0.0780  0.9463  0.2566
 6731TIP3   OH241607   6.509   2.073   2.341 -0.1235 -0.2421 -0.0361
 6731TIP3    H141608   6.421   2.067   2.303 -1.1552 -1.4884  2.3454
 6731TIP3    H241609   6.497   2.124   2.421  1.2515 -0.7180  0.4903
 6732TIP3   OH241610   1.332   2.035  16.407 -0.0247  0.7080  0.1282
 6732TIP3    H141611   1.275   2.025  16.330  0.1450 -1.0629  0.1722
 6732TIP3    H241612   1.274   2.026  16.482  0.1860 -0.4192  0.1746
 6733TIP3   OH241613   2.861   2.567   0.194  0.5582 -0.3052 -0.3582
 6733TIP3    H141614   2.783   2.515   0.215  0.6017  0.0540  0.7490
 6733TIP3    H241615   2.935   2.508   0.213  0.6498  0.4464  1.9646
 6734TIP3   OH241616   6.275   2.780  16.380  0.2564  0.2193  0.1744
 6734TIP3    H141617   6.272   2.701  16.434  1.5864  0.2310  0.2896
 6734TIP3    H241618   6.254   2.851  16.440  1.8904  0.2496  0.7356
 6735TIP3   OH241619   6.115   6.261  13.533  0.2449  0.2444  0.6238
 6735TIP3    H141620   6.063   6.276  13.612 -2.4641  0.1678 -1.0217
 6735TIP3    H241621   6.083   6.177  13.499  2.4764 -0.5187  0.2281
 6736TIP3   OH241622   6.100   5.896   5.820 -0.2257  0.2690  0.1175
 6736TIP3    H141623   6.132   5.806   5.811  0.0056  0.4547 -1.0024
 6736TIP3    H241624   6.177   5.947   5.846  0.4944  0.7269 -2.6367
 6737TIP3   OH241625   5.228   0.484   2.165 -0.7992  0.1710  0.1119
 6737TIP3    H141626   5.189   0.404   2.200  1.0192 -1.6624 -1.7886
 6737TIP3    H241627   5.191   0.492   2.077  1.0530 -0.1477 -0.7279
 6738TIP3   OH241628   6.091   4.310   2.640 -0.0743  0.3824  0.4916
 6738TIP3    H141629   6.114   4.218   2.654 -0.2462  0.2460 -0.0888
 6738TIP3    H241630   6.005   4.320   2.681 -0.3502  0.1138 -0.0073
 6739TIP3   OH241631   1.566   4.068  11.712 -0.3561  0.7469 -0.2926
 6739TIP3    H141632   1.621   4.075  11.790 -0.5978 -0.0720 -0.0331
 6739TIP3    H241633   1.501   4.137  11.722  0.8938  2.0699 -0.8565
 6740TIP3   OH241634   4.472   4.951   3.620  0.5729 -0.4784  0.4629
 6740TIP3    H141635   4.500   4.931   3.709  0.6127  1.7443  1.0152
 6740TIP3    H241636   4.545   4.999   3.582 -0.2408  0.4077 -0.0399
 6741TIP3   OH241637   1.482   4.031   2.676  0.0684 -0.1060 -0.1808
 6741TIP3    H141638   1.472   3.944   2.715  0.4838  0.0141  0.1942
 6741TIP3    H241639   1.465   4.016   2.583 -2.0220 -0.1897  0.1692
 6742TIP3   OH241640   6.530   2.186  17.342  0.6937  0.1259  0.1410
 6742TIP3    H141641   6.471   2.258  17.366  0.3100 -0.5466  1.2927
 6742TIP3    H241642   6.473   2.122  17.300  0.9948  0.3743 -0.6669
 6743TIP3   OH241643   3.337   6.255  10.909 -0.9566  0.8815  0.5372
 6743TIP3    H141644   3.246   6.279  10.924 -1.3759  0.1227 -0.6722
 6743TIP3    H241645   3.335   6.199  10.832  0.0144 -2.5850  2.8047
 6744TIP3   OH241646   3.148   4.604  14.436  0.3060  0.0831 -0.1955
 6744TIP3    H141647   3.062   4.623  14.398  1.3545  1.5170 -1.9968
 6744TIP3    H241648   3.133   4.605  14.531 -1.3408  1.9791 -0.4253
 6745TIP3   OH241649   4.564   6.746  15.052  0.3337 -0.7451  0.0975
 6745TIP3    H141650   4.517   6.663  15.039  0.3162 -0.5160 -1.4742
 6745TIP3    H241651   4.532   6.802  14.982 -0.1835  0.8511  1.5623
 6746TIP3   OH241652   0.843   3.680  14.912 -0.1209 -0.2958 -0.0956
 6746TIP3    H141653   0.756   3.663  14.945  0.1764 -0.3315  0.6907
 6746TIP3    H241654   0.843   3.643  14.824 -0.4637 -1.5583  0.4051
 6747TIP3   OH241655   2.379   5.950   5.193  0.2419 -0.4409  0.5442
 6747TIP3    H141656   2.287   5.925   5.196 -0.1378  0.5767 -1.2368
 6747TIP3    H241657   2.387   6.020   5.258  0.0770 -1.3849  1.6112
 6748TIP3   OH241658   1.124   3.517   2.551  0.0999  0.0243  0.5037
 6748TIP3    H141659   1.030   3.502   2.560 -0.2432  2.7578  3.0597
 6748TIP3    H241660   1.164   3.469   2.623  0.5635 -0.1623  0.1307
 6749TIP3   OH241661   5.676   2.278  11.628 -0.1077  0.2445  0.0852
 6749TIP3    H141662   5.585   2.300  11.610 -0.2154 -0.0914  0.2001
 6749TIP3    H241663   5.675   2.183  11.641  0.0508  0.3991  1.3166
 6750TIP3   OH241664   5.959   4.618   0.404  0.0519 -0.0195 -0.3299
 6750TIP3    H141665   6.012   4.686   0.446 -1.9247  1.0796  0.4917
 6750TIP3    H241666   6.016   4.583   0.336  2.0271  0.7151  0.8508
 6751TIP3   OH241667   5.337   4.900  14.232 -0.3137 -0.1564 -0.0017
 6751TIP3    H141668   5.249   4.925  14.262 -0.3609 -0.2089 -0.0967
 6751TIP3    H241669   5.354   4.816  14.277  0.4866  0.7994  1.5695
 6752TIP3   OH241670   2.400   3.537  13.261 -0.6196  0.0688 -0.2162
 6752TIP3    H141671   2.357   3.594  13.198 -2.6619  0.2670  1.2464
 6752TIP3    H241672   2.470   3.590  13.299 -0.2331  0.3782 -1.3498
 6753TIP3   OH241673   4.019   2.723   2.757 -0.5396 -0.7975 -0.8729
 6753TIP3    H141674   4.005   2.803   2.707  1.9601  0.2726 -0.0417
 6753TIP3    H241675   3.971   2.656   2.709 -1.7001  0.9624 -2.2909
 6754TIP3   OH241676   4.635   3.091  12.282  0.0051 -0.2780 -0.8540
 6754TIP3    H141677   4.600   3.179  12.296 -2.1508 -1.0228 -1.2651
 6754TIP3    H241678   4.625   3.048  12.367 -0.1535 -0.5195 -0.9949
 6755TIP3   OH241679   1.583   4.059   5.088  0.0716 -0.1676  0.0866
 6755TIP3    H141680   1.547   3.980   5.127 -0.7466 -0.9413 -2.0644
 6755TIP3    H241681   1.627   4.028   5.009 -0.7022  1.5563 -1.0757
 6756TIP3   OH241682   6.142   2.436   1.837 -0.3840  0.0324 -0.4612
 6756TIP3    H141683   6.166   2.522   1.872 -0.1679 -0.2540  0.1217
 6756TIP3    H241684   6.062   2.412   1.885 -0.3303 -0.1772 -0.4756
 6757TIP3   OH241685   0.405   5.626   2.352  0.0198 -0.2505  0.7505
 6757TIP3    H141686   0.421   5.595   2.263  0.1431 -4.0077  1.9133
 6757TIP3    H241687   0.473   5.692   2.367  1.2274 -0.9299 -1.3105
 6758TIP3   OH241688   5.948   2.742   1.890 -0.1894 -0.3302  0.2427
 6758TIP3    H141689   5.873   2.795   1.915 -1.8961 -2.4920  0.0800
 6758TIP3    H241690   6.023   2.784   1.932 -1.4443  1.9872  0.3016
 6759TIP3   OH241691   5.370   2.089  11.705  0.5058 -0.0072 -0.6637
 6759TIP3    H141692   5.300   2.100  11.770 -0.7962 -0.1832 -1.9635
 6759TIP3    H241693   5.389   2.179  11.676  0.1014 -0.0247 -1.0017
 6760TIP3   OH241694   2.747   1.747   4.710  0.3449  0.2751 -0.0892
 6760TIP3    H141695   2.745   1.670   4.653 -2.2555  0.2659 -0.0998
 6760TIP3    H241696   2.742   1.711   4.799 -1.4457  0.4001 -0.1138
 6761TIP3   OH241697   1.964   6.692  15.780 -0.4758  0.0171  0.4420
 6761TIP3    H141698   2.059   6.693  15.776 -0.4338 -2.0768 -0.4246
 6761TIP3    H241699   1.936   6.737  15.700 -0.1597 -0.6666 -0.0687
 6762TIP3   OH241700   3.630   6.729   5.580  0.4606 -0.0580  0.5375
 6762TIP3    H141701   3.575   6.674   5.524 -1.1732  0.0317  1.9633
 6762TIP3    H241702   3.613   6.698   5.668  3.1981 -0.3895  1.0397
 6763TIP3   OH241703   4.398   2.204   3.456  0.1391 -0.1076  0.5191
 6763TIP3    H141704   4.466   2.162   3.404  0.9543  1.4629  0.2515
 6763TIP3    H241705   4.321   2.203   3.399 -0.0767 -1.8238  0.7940
 6764TIP3   OH241706   0.746   4.813  16.035  0.1273 -0.4806 -0.2441
 6764TIP3    H141707   0.824   4.770  16.071 -0.3814 -1.8465 -0.7132
 6764TIP3    H241708   0.679   4.800  16.101 -0.2896 -1.3114 -0.8020
 6765TIP3   OH241709   0.516   3.400   6.864 -0.1001  0.5770  0.1369
 6765TIP3    H141710   0.430   3.359   6.850  0.4307 -0.4234 -0.3092
 6765TIP3    H241711   0.503   3.492   6.841 -0.5518  0.0177 -2.0609
 6766TIP3   OH241712   6.197   3.798   5.263  0.1275 -0.2613  0.3114
 6766TIP3    H141713   6.127   3.737   5.242  0.7872 -2.0607  2.8725
 6766TIP3    H241714   6.153   3.872   5.304 -0.4304 -0.3280 -0.1518
 6767TIP3   OH241715   4.907   1.826  14.365 -0.2912  0.1934  0.2242
 6767TIP3    H141716   4.997   1.799  14.349  0.2237  0.6412  2.0520
 6767TIP3    H241717   4.897   1.908  14.317  0.1148 -0.0851 -0.3474
 6768TIP3   OH241718   2.200   2.067   0.582  0.1533 -0.1862 -0.2336
 6768TIP3    H141719   2.204   1.993   0.521 -0.5892 -0.9734  0.6459
 6768TIP3    H241720   2.177   2.027   0.666 -2.2106  1.2293 -0.1310
 6769TIP3   OH241721   4.429   3.373   6.346  0.6274  0.0554  0.6214
 6769TIP3    H141722   4.507   3.426   6.363  1.3977 -0.7474 -0.2723
 6769TIP3    H241723   4.463   3.289   6.315 -0.5759  0.5074 -2.2796
 6770TIP3   OH241724   1.327   4.757  12.725 -0.2854 -0.1356 -0.0205
 6770TIP3    H141725   1.316   4.717  12.639  1.7542 -1.1905  0.1450
 6770TIP3    H241726   1.238   4.772  12.757 -1.0799 -0.3123 -2.0227
 6771TIP3   OH241727   2.780   5.197  11.423  0.4093 -0.5793  0.2822
 6771TIP3    H141728   2.847   5.141  11.462  1.9054  1.7789  1.3502
 6771TIP3    H241729   2.819   5.228  11.342 -0.6029 -1.4095 -0.5499
 6772TIP3   OH241730   5.788   2.594   0.943 -0.3673  0.3428  0.6486
 6772TIP3    H141731   5.799   2.549   1.027 -0.0980  0.8239  0.8764
 6772TIP3    H241732   5.788   2.687   0.966 -1.6169  0.4573  0.2677
 6773TIP3   OH241733   2.521   3.355   1.357  0.0479  0.2662 -0.2411
 6773TIP3    H141734   2.604   3.336   1.312  0.4634  0.3511  0.4687
 6773TIP3    H241735   2.464   3.389   1.288  0.0485 -1.3312 -1.0758
 6774TIP3   OH241736   1.202   6.278  15.955 -0.4939  0.2840  0.0924
 6774TIP3    H141737   1.218   6.286  16.049  1.1202 -0.5966 -0.0777
 6774TIP3    H241738   1.281   6.313  15.914 -0.1984 -1.4178 -0.8712
 6775TIP3   OH241739   1.183   0.389  10.603  0.3352 -0.4934  0.7878
 6775TIP3    H141740   1.241   0.459  10.635 -2.7689  1.4706  2.7102
 6775TIP3    H241741   1.165   0.413  10.512  0.3783  0.4973  1.0211
 6776TIP3   OH241742   5.302   4.368   4.788 -0.1413  0.5100 -0.1297
 6776TIP3    H141743   5.328   4.376   4.880 -0.2666  0.0905 -0.0541
 6776TIP3    H241744   5.277   4.457   4.762  0.5840  0.7645  0.0292
 6777TIP3   OH241745   1.120   6.569  12.954  0.6713  0.2924 -0.4859
 6777TIP3    H141746   1.211   6.539  12.960  0.3940 -0.3190  0.9534
 6777TIP3    H241747   1.101   6.569  12.860  1.9243 -0.2718 -0.7598
 6778TIP3   OH241748   3.979   2.764   2.334  0.4209 -0.4287  0.1533
 6778TIP3    H141749   3.953   2.675   2.355 -0.4567 -0.4587 -0.9527
 6778TIP3    H241750   3.902   2.803   2.291  0.6463  0.9903  0.9637
 6779TIP3   OH241751   0.911   4.518  13.208 -0.1151 -0.4298  0.0112
 6779TIP3    H141752   0.831   4.567  13.228  0.5019  0.1173  1.2077
 6779TIP3    H241753   0.896   4.484  13.120 -1.8059 -0.6113  0.3235
 6780TIP3   OH241754   1.408   4.330  12.354  0.2021  0.4000 -0.3643
 6780TIP3    H141755   1.316   4.326  12.331  0.0314  0.3914  0.3122
 6780TIP3    H241756   1.430   4.240  12.380  0.8087  0.0271 -2.0316
 6781TIP3   OH241757   1.472   0.043  13.776 -0.6782  0.4743  0.0540
 6781TIP3    H141758   1.473   0.122  13.723 -1.7869 -0.6483 -1.7771
 6781TIP3    H241759   1.553  -0.002  13.753 -1.1565 -0.0099 -0.7551
 6782TIP3   OH241760   5.489   5.845   3.075  0.6819  0.2097  0.4062
 6782TIP3    H141761   5.455   5.759   3.051  0.3537  0.3235  0.4635
 6782TIP3    H241762   5.430   5.907   3.033  0.2294  0.4111  1.3121
 6783TIP3   OH241763   0.558   2.186  11.577  0.1815 -0.0524  0.4977
 6783TIP3    H141764   0.592   2.100  11.555  2.9872  0.5859  1.8519
 6783TIP3    H241765   0.494   2.169  11.647 -0.6774 -1.1435 -0.5235
 6784TIP3   OH241766   1.525   6.607  13.055 -0.3190  0.2230 -0.4808
 6784TIP3    H141767   1.524   6.518  13.022 -0.5236  0.0157  0.0809
 6784TIP3    H241768   1.538   6.662  12.977 -1.0172 -0.2403 -0.9233
 6785TIP3   OH241769   3.305   6.374   0.328 -0.1964 -0.3301 -0.3618
 6785TIP3    H141770   3.263   6.303   0.280 -1.2875  0.6476 -0.9076
 6785TIP3    H241771   3.397   6.348   0.334 -0.4484 -1.4688 -1.1209
 6786TIP3   OH241772   5.854   1.296  13.874  0.1353 -0.3025  0.0767
 6786TIP3    H141773   5.806   1.234  13.820  0.0758  0.4273 -0.7338
 6786TIP3    H241774   5.925   1.245  13.913 -0.1282 -0.9504 -0.2893
 6787TIP3   OH241775   3.469   4.382   3.412  0.3260 -0.4105  0.1907
 6787TIP3    H141776   3.407   4.312   3.432 -0.5379 -0.1395 -1.3340
 6787TIP3    H241777   3.461   4.394   3.317  3.2714 -0.8702 -0.2101
 6788TIP3   OH241778   1.307   1.030  12.373  0.1160 -0.1067 -0.5195
 6788TIP3    H141779   1.345   1.118  12.376  2.0584 -0.8978  0.2237
 6788TIP3    H241780   1.375   0.976  12.332 -0.4261 -1.5111  0.3445
 6789TIP3   OH241781   3.200   2.598  14.278  0.0200 -0.0196 -0.1279
 6789TIP3    H141782   3.270   2.646  14.323 -0.5894  1.9924 -1.1990
 6789TIP3    H241783   3.149   2.666  14.235 -0.3279 -1.7214 -2.5780
 6790TIP3   OH241784   3.062   5.839   3.679 -0.2998 -0.5574 -0.1454
 6790TIP3    H141785   2.976   5.874   3.660 -0.1627 -0.4331 -0.5445
 6790TIP3    H241786   3.070   5.761   3.624  0.0132 -0.3165 -0.4508
 6791TIP3   OH241787   5.763   2.452   5.488 -0.3396  0.2241  0.0931
 6791TIP3    H141788   5.671   2.480   5.493 -1.0197 -1.3902 -2.0872
 6791TIP3    H241789   5.786   2.462   5.396  1.6597  0.4528  0.5798
 6792TIP3   OH241790   0.569   4.899   0.896  0.2932 -0.8689  0.7600
 6792TIP3    H141791   0.508   4.850   0.840 -1.3197  1.7984 -0.0274
 6792TIP3    H241792   0.533   4.890   0.984 -0.2074 -0.8102  0.5675
 6793TIP3   OH241793   0.756   2.611   0.669  0.1398 -0.3140  0.0599
 6793TIP3    H141794   0.742   2.643   0.579  0.8393  1.4982  0.5326
 6793TIP3    H241795   0.839   2.563   0.664 -0.3879 -1.1918 -0.4685
 6794TIP3   OH241796   1.142   6.717   0.686 -0.8890  0.1010  0.4634
 6794TIP3    H141797   1.054   6.701   0.651  0.2432 -1.1413 -2.1208
 6794TIP3    H241798   1.178   6.787   0.631 -0.7192  1.6077  2.4227
 6795TIP3   OH241799   1.266   0.790  15.223 -0.2874 -0.2526 -0.0378
 6795TIP3    H141800   1.338   0.733  15.197  0.8032  0.3728  1.4413
 6795TIP3    H241801   1.269   0.863  15.161  0.5811 -0.0666  0.2175
 6796TIP3   OH241802   0.685   6.730   5.168 -0.3268 -0.2700  0.2506
 6796TIP3    H141803   0.633   6.673   5.225 -0.6052 -0.3532 -0.0886
 6796TIP3    H241804   0.651   6.818   5.184 -0.9364 -0.3835 -0.3567
 6797TIP3   OH241805   0.307   2.719  12.958 -0.4218  0.0273  0.0703
 6797TIP3    H141806   0.220   2.760  12.962 -3.5642 -5.5978  0.6580
 6797TIP3    H241807   0.330   2.722  12.865 -1.8056  0.7038 -0.2829
 6798TIP3   OH241808   4.826   5.916   3.229 -0.0524 -0.0056 -0.6876
 6798TIP3    H141809   4.880   5.894   3.305  1.5231 -0.3318 -1.8539
 6798TIP3    H241810   4.843   5.845   3.166 -2.0291 -0.2401 -1.0247
 6799TIP3   OH241811   5.204   5.447  15.941  0.0914  0.3021 -0.1675
 6799TIP3    H141812   5.136   5.380  15.929  0.0038  0.4656 -0.6057
 6799TIP3    H241813   5.286   5.400  15.931  0.1068 -0.2240  1.9605
 6800TIP3   OH241814   6.421   3.824  12.305  0.2841  0.2316  0.0581
 6800TIP3    H141815   6.399   3.862  12.220 -1.1149  0.7592  0.6249
 6800TIP3    H241816   6.429   3.899  12.364  0.1607 -0.1845  0.6167
 6801TIP3   OH241817   0.267   6.486  16.124 -0.4458 -0.2738 -0.0911
 6801TIP3    H141818   0.256   6.537  16.044  0.1283 -0.1704 -0.1080
 6801TIP3    H241819   0.340   6.428  16.105 -0.5191 -0.4791  0.2469
 6802TIP3   OH241820   4.842   6.028   5.478  0.1194 -0.0130  0.1352
 6802TIP3    H141821   4.908   5.959   5.472  0.7290  0.5537  0.1944
 6802TIP3    H241822   4.851   6.063   5.566 -2.1993 -1.7924  1.1846
 6803TIP3   OH241823   3.436   5.054   4.252  0.3419  0.0787 -0.0903
 6803TIP3    H141824   3.486   4.974   4.237  1.3626 -0.1497  3.5097
 6803TIP3    H241825   3.401   5.044   4.341  0.5731  3.6322  0.5468
 6804TIP3   OH241826   2.607   5.556   1.045 -0.3253  0.2420  0.2134
 6804TIP3    H141827   2.578   5.466   1.030  0.5770  0.0685 -0.6212
 6804TIP3    H241828   2.544   5.610   0.997 -1.9305  0.2139  2.1773
 6805TIP3   OH241829   5.998   2.305   5.042  0.4441  0.4725  0.0859
 6805TIP3    H141830   5.964   2.258   4.966  0.3230  1.5959 -0.5793
 6805TIP3    H241831   6.087   2.331   5.015  1.2538 -0.9879  1.1735
 6806TIP3   OH241832   1.815   4.362   0.445  0.2861 -0.7802 -0.8924
 6806TIP3    H141833   1.878   4.433   0.434 -0.5725  0.1047 -0.1844
 6806TIP3    H241834   1.868   4.282   0.438  1.8075 -0.0495  1.3674
 6807TIP3   OH241835   0.436   0.646  15.657 -0.3450 -0.3360  0.5997
 6807TIP3    H141836   0.367   0.668  15.720 -1.4203 -0.4966 -0.4815
 6807TIP3    H241837   0.389   0.634  15.574  0.4714 -3.8764  0.4918
 6808TIP3   OH241838   0.025   3.130  17.386  0.0164 -0.0336  0.6104
 6808TIP3    H141839  -0.005   3.105  17.474 -0.0953 -0.4289  0.4627
 6808TIP3    H241840  -0.054   3.131  17.333  0.2150 -0.8204  0.2802
 6809TIP3   OH241841   5.765   2.343  14.960 -0.1161  0.8795  0.1700
 6809TIP3    H141842   5.829   2.350  15.031 -0.8034 -0.3401  0.9344
 6809TIP3    H241843   5.716   2.425  14.964 -0.7884  0.4311  1.7502
 6810TIP3   OH241844   2.034   0.639  14.327 -0.2773 -0.2680  0.1164
 6810TIP3    H141845   1.942   0.638  14.354 -0.5361  0.2297 -0.7007
 6810TIP3    H241846   2.081   0.663  14.407 -1.0873  1.8421  0.0384
 6811TIP3   OH241847   6.357   1.434   3.954  0.1338 -0.1756 -0.2233
 6811TIP3    H141848   6.444   1.430   3.915  0.2609  2.6077 -0.4405
 6811TIP3    H241849   6.302   1.470   3.885 -0.3843  1.5353  1.0222
 6812TIP3   OH241850   0.128   5.200   2.122 -0.3859 -0.0171 -0.0395
 6812TIP3    H141851   0.076   5.125   2.093  0.8249 -0.8821 -0.0362
 6812TIP3    H241852   0.173   5.230   2.043 -0.3607  0.3018  0.0925
 6813TIP3   OH241853   0.547   0.146  10.746  0.1546 -0.1458 -0.3886
 6813TIP3    H141854   0.481   0.089  10.707 -0.7680  0.8254 -0.2964
 6813TIP3    H241855   0.559   0.216  10.683  0.7261 -0.0466 -0.1734
 6814TIP3   OH241856   5.726   1.469  14.161  0.1398  0.8456  0.1320
 6814TIP3    H141857   5.658   1.490  14.225 -0.4552 -1.2869  0.2666
 6814TIP3    H241858   5.678   1.449  14.080  0.6451  0.2697 -0.0341
 6815TIP3   OH241859   0.023   1.855  12.384  0.4770  0.2338  0.1846
 6815TIP3    H141860  -0.024   1.842  12.302  1.3059  1.2498 -0.4842
 6815TIP3    H241861  -0.037   1.824  12.451  0.6903 -2.9381 -0.9152
 6816TIP3   OH241862   1.380   0.224  17.157 -0.0216  0.0456  0.4483
 6816TIP3    H141863   1.460   0.257  17.116  0.8999 -0.8600  1.4490
 6816TIP3    H241864   1.408   0.146  17.205 -1.4334 -0.0541  1.1745
 6817TIP3   OH241865   5.377   5.304   0.370  0.6887  0.5886 -0.6542
 6817TIP3    H141866   5.375   5.218   0.414  0.8351  0.9288  0.0296
 6817TIP3    H241867   5.309   5.297   0.303 -0.4722  0.5013  0.4934
 6818TIP3   OH241868   0.650   0.903   0.815  0.4384  0.4236  0.2545
 6818TIP3    H141869   0.645   0.972   0.749 -1.0442 -0.2371 -0.3721
 6818TIP3    H241870   0.722   0.847   0.786 -0.7607 -0.3675 -1.3654
 6819TIP3   OH241871   5.390   3.035  15.381  0.5205 -0.2661  0.1363
 6819TIP3    H141872   5.475   3.000  15.352 -0.2845  0.0658 -2.9649
 6819TIP3    H241873   5.404   3.130  15.385  1.0002 -0.3896  2.4036
 6820TIP3   OH241874   2.409   3.133  15.523  0.2472  0.3326  0.2287
 6820TIP3    H141875   2.461   3.180  15.589 -2.1313  0.9957  1.7430
 6820TIP3    H241876   2.399   3.196  15.451  0.8673  0.4571  0.2433
 6821TIP3   OH241877   5.676   5.610   1.883 -0.3912 -0.1340 -0.0984
 6821TIP3    H141878   5.708   5.530   1.841 -1.1807 -0.6138  0.1944
 6821TIP3    H241879   5.656   5.583   1.973  3.5186  1.3706  1.4545
 6822TIP3   OH241880   0.288   1.212  15.630 -0.0294 -0.0034  0.4664
 6822TIP3    H141881   0.302   1.120  15.608  0.1622 -0.2935  1.7107
 6822TIP3    H241882   0.350   1.260  15.574  0.5984 -0.7112  0.5398
 6823TIP3   OH241883   0.220   1.264   5.133 -0.5049 -0.1551 -0.2271
 6823TIP3    H141884   0.310   1.296   5.134  0.1061 -1.7694 -1.2622
 6823TIP3    H241885   0.211   1.218   5.050 -2.1368 -0.4897  0.0962
 6824TIP3   OH241886   6.064   3.458   5.014  0.0842 -0.3515 -0.4172
 6824TIP3    H141887   6.139   3.464   5.072  0.1477  1.5412 -0.6164
 6824TIP3    H241888   6.099   3.419   4.934  0.4055 -1.2355  0.1342
 6825TIP3   OH241889   6.102   0.603  11.310 -0.4691  0.0581 -0.0892
 6825TIP3    H141890   6.114   0.538  11.379 -1.2576  0.1205  0.1217
 6825TIP3    H241891   6.025   0.653  11.338 -1.8623 -0.9881 -1.8336
 6826TIP3   OH241892   6.047   3.618   2.746  0.2532 -0.6923  0.6059
 6826TIP3    H141893   6.070   3.581   2.832 -1.6856  0.3628  1.6431
 6826TIP3    H241894   5.967   3.572   2.721  1.4724 -1.9053 -1.3129
 6827TIP3   OH241895   1.251   5.289  17.292 -0.3745  0.3933 -0.1821
 6827TIP3    H141896   1.332   5.333  17.268 -2.0055  3.6709 -0.3019
 6827TIP3    H241897   1.205   5.277  17.209  0.0920 -1.8855 -0.1738
 6828TIP3   OH241898   3.563   4.612   5.454  0.6623  0.1034  0.1749
 6828TIP3    H141899   3.519   4.584   5.534  1.4205 -3.0126 -0.3543
 6828TIP3    H241900   3.647   4.647   5.483 -0.2744  1.9393  0.8626
 6829TIP3   OH241901   5.416   5.166  15.307  0.1183 -0.2381  0.2105
 6829TIP3    H141902   5.474   5.228  15.263  0.5757 -0.1075  0.9893
 6829TIP3    H241903   5.329   5.207  15.303  0.3656  0.3082  0.4633
 6830TIP3   OH241904   4.662   4.279   0.494  0.2726 -0.1298  0.0506
 6830TIP3    H141905   4.753   4.283   0.465  0.5012  0.8478  0.8548
 6830TIP3    H241906   4.656   4.345   0.563 -0.7388 -1.0216  0.8549
 6831TIP3   OH241907   5.730   5.261   5.006 -0.1756 -0.1153 -0.8813
 6831TIP3    H141908   5.750   5.305   5.089  2.8089 -2.5993 -0.0858
 6831TIP3    H241909   5.683   5.182   5.032  0.0831 -0.5216 -1.6194
 6832TIP3   OH241910   3.964   2.917  14.332  0.0717 -0.1221  0.7993
 6832TIP3    H141911   3.963   2.995  14.276 -0.7337  0.4258  1.5349
 6832TIP3    H241912   3.961   2.953  14.421 -0.6722 -0.9908  1.1407
 6833TIP3   OH241913   4.318   3.037  14.467  0.4651 -0.2826 -0.1620
 6833TIP3    H141914   4.363   3.063  14.386 -1.5631  0.2717 -1.1570
 6833TIP3    H241915   4.334   3.110  14.527  0.4588  0.1413 -0.6719
 6834TIP3   OH241916   3.646   4.947  12.776  0.3453  0.0570  0.1688
 6834TIP3    H141917   3.694   4.892  12.715 -0.0962 -0.1074 -0.0368
 6834TIP3    H241918   3.582   4.888  12.816  0.2452  0.2918  0.3583
 6835TIP3   OH241919   3.690   3.714  13.503  0.1356 -0.2728  0.4769
 6835TIP3    H141920   3.658   3.692  13.591  0.3201 -2.2784  0.0756
 6835TIP3    H241921   3.622   3.682  13.444  0.3976  0.3247 -0.1650
 6836TIP3   OH241922   0.328   4.389  15.380  0.0985 -0.0885 -0.1453
 6836TIP3    H141923   0.314   4.368  15.288  2.0987 -1.0912 -0.2724
 6836TIP3    H241924   0.401   4.450  15.380 -0.9265  1.2027  0.7173
 6837TIP3   OH241925   3.497   3.525  16.896  0.6424  0.1217  0.2419
 6837TIP3    H141926   3.569   3.515  16.833  3.5951  2.6015  2.8935
 6837TIP3    H241927   3.475   3.618  16.893 -1.5416 -0.3298  0.5711
 6838TIP3   OH241928   5.521   6.708   1.740  0.6160 -0.3388  0.2237
 6838TIP3    H141929   5.608   6.743   1.762  0.8449 -0.0337 -1.0502
 6838TIP3    H241930   5.460   6.770   1.780  0.9946 -0.0886  0.4268
 6839TIP3   OH241931   1.259   6.443   2.552  0.2362  0.5955 -0.4996
 6839TIP3    H141932   1.196   6.387   2.598  0.3630  1.7916  1.2386
 6839TIP3    H241933   1.209   6.483   2.482 -0.5779  0.4580 -0.0111
 6840TIP3   OH241934   5.902   0.210  15.656  0.3020 -0.4392 -0.2076
 6840TIP3    H141935   5.902   0.306  15.650  1.5153 -0.2300  2.2484
 6840TIP3    H241936   5.992   0.187  15.675 -0.4585 -1.8286  2.0170
 6841TIP3   OH241937   5.962   2.654   4.601 -0.4855  0.3848 -0.9222
 6841TIP3    H141938   6.048   2.670   4.641  0.0788  0.5880 -2.1791
 6841TIP3    H241939   5.966   2.700   4.517 -0.8612 -1.7545 -2.1822
 6842TIP3   OH241940   5.713   6.416   2.995 -0.2387  0.3751  1.1842
 6842TIP3    H141941   5.667   6.459   2.923 -1.0395 -1.7178  0.3614
 6842TIP3    H241942   5.679   6.458   3.074 -1.3356  0.9023  0.4615
 6843TIP3   OH241943   4.689   5.299   4.352 -0.3523 -0.6567 -0.4136
 6843TIP3    H141944   4.728   5.341   4.428 -1.1958 -1.0487  0.2471
 6843TIP3    H241945   4.735   5.216   4.343 -0.4630 -0.7450 -0.1525
 6844TIP3   OH241946   6.529   6.431   0.427  0.1921  0.3976 -0.0951
 6844TIP3    H141947   6.448   6.432   0.477  0.2152  1.6493 -0.0593
 6844TIP3    H241948   6.573   6.513   0.449  1.3658 -0.1484 -0.2929
 6845TIP3   OH241949   5.463   1.307   0.154  0.0339 -0.3848 -0.2687
 6845TIP3    H141950   5.428   1.318   0.066 -0.1274 -2.3220 -0.4997
 6845TIP3    H241951   5.430   1.382   0.204 -0.0882  0.5893 -1.7808
 6846TIP3   OH241952   4.041   5.813  14.554 -0.9603  0.0089 -0.0977
 6846TIP3    H141953   4.071   5.832  14.643 -0.8401  1.6925 -0.4626
 6846TIP3    H241954   4.047   5.897  14.508 -1.6306 -0.6844 -1.5273
 6847TIP3   OH241955   5.655   4.251  12.498  0.4372 -0.2383  0.0243
 6847TIP3    H141956   5.619   4.284  12.580  0.3250 -0.0213 -0.1115
 6847TIP3    H241957   5.729   4.308  12.479  0.6753 -0.5026  0.1520
 6848TIP3   OH241958   5.991   6.674  16.776 -0.1354 -0.0728 -0.1382
 6848TIP3    H141959   5.896   6.663  16.775  0.0266 -1.5875 -0.5740
 6848TIP3    H241960   6.013   6.700  16.687 -0.2504  1.6180  0.2879
 6849TIP3   OH241961   2.483   1.344   3.608 -0.3849  0.1474  0.0642
 6849TIP3    H141962   2.464   1.350   3.702  0.4803 -0.0691  0.2666
 6849TIP3    H241963   2.545   1.271   3.601 -1.5729 -0.8199 -0.8642
 6850TIP3   OH241964   3.613   5.509  16.069  0.3400  0.0503 -0.0851
 6850TIP3    H141965   3.635   5.602  16.064 -3.1379  1.0010 -0.1299
 6850TIP3    H241966   3.591   5.495  16.161 -1.0990 -0.1553 -0.4351
 6851TIP3   OH241967   3.222   1.028  12.250 -0.0550  0.0002 -0.5995
 6851TIP3    H141968   3.211   1.037  12.345  0.1901 -1.5987 -0.3935
 6851TIP3    H241969   3.135   1.050  12.215  0.2761  2.2383 -0.1811
 6852TIP3   OH241970   5.700   2.493   2.754 -0.2818 -0.0774 -0.1296
 6852TIP3    H141971   5.775   2.437   2.732 -0.4936 -0.6168  0.4917
 6852TIP3    H241972   5.636   2.473   2.686 -0.9042 -1.6837  0.8785
 6853TIP3   OH241973   1.249   2.359   4.159 -0.4027 -0.0104 -0.3836
 6853TIP3    H141974   1.220   2.271   4.180  0.0955 -0.1335 -0.1936
 6853TIP3    H241975   1.239   2.408   4.241 -2.1509  0.5294 -0.8662
 6854TIP3   OH241976   2.011   4.094   1.625  0.3053  0.6609  1.0867
 6854TIP3    H141977   2.098   4.123   1.601 -0.0760  1.2437  0.3639
 6854TIP3    H241978   2.024   4.039   1.702  1.3649  0.2849  0.6556
 6855TIP3   OH241979   0.026   2.092  13.899 -0.1385  0.2257 -0.0801
 6855TIP3    H141980   0.119   2.071  13.892 -0.5972 -1.7454 -1.1559
 6855TIP3    H241981   0.014   2.168  13.842  0.8845  0.8513  0.5058
 6856TIP3   OH241982   1.054   5.944  14.926 -0.6852 -0.0812  0.0373
 6856TIP3    H141983   1.089   5.897  14.850  0.6316  1.2558 -0.2362
 6856TIP3    H241984   1.117   5.926  14.996 -1.1735 -0.2153  0.4476
 6857TIP3   OH241985   6.641   5.072   2.040 -0.0225  0.2358  0.4948
 6857TIP3    H141986   6.605   5.037   2.122  0.6544 -1.9100 -0.0509
 6857TIP3    H241987   6.570   5.063   1.977 -0.1481  0.7413  0.5616
 6858TIP3   OH241988   3.137   1.266  15.609 -0.2396 -0.3174 -0.0095
 6858TIP3    H141989   3.181   1.341  15.570  0.1135 -1.2129 -1.4193
 6858TIP3    H241990   3.150   1.277  15.704  1.5090  0.3692 -0.2900
 6859TIP3   OH241991   4.759   5.837   1.875  0.4025 -0.2978 -0.2129
 6859TIP3    H141992   4.799   5.911   1.921  2.6303  0.3092 -2.8464
 6859TIP3    H241993   4.667   5.861   1.867  0.7148  1.3346  0.5503
 6860TIP3   OH241994   0.032   0.857   5.652  0.4812  0.1466 -0.1102
 6860TIP3    H141995  -0.022   0.827   5.725  2.4594 -2.0903  0.5475
 6860TIP3    H241996  -0.008   0.816   5.575 -0.0950  0.4039  0.0459
 6861TIP3   OH241997   4.613   1.163  15.164 -0.2474 -0.0055  0.1145
 6861TIP3    H141998   4.705   1.138  15.150 -0.2802 -0.2084  0.2609
 6861TIP3    H241999   4.563   1.095  15.121 -0.3292  0.2869 -0.2595
 6862TIP3   OH242000   4.017   2.063   2.437 -0.8174 -0.3052  0.3100
 6862TIP3    H142001   3.926   2.064   2.406 -1.0683  0.7360  1.0174
 6862TIP3    H242002   4.069   2.045   2.358 -1.5044  1.1263 -0.5149
 6863TIP3   OH242003   5.113   3.383   6.551  1.1908 -0.3870  0.3210
 6863TIP3    H142004   5.163   3.445   6.499  0.5339  1.0360  1.3187
 6863TIP3    H242005   5.090   3.431   6.631 -0.7619 -1.3479  0.4020
 6864TIP3   OH242006   5.158   3.720   3.951  0.0813  0.8625 -0.0600
 6864TIP3    H142007   5.114   3.739   3.868  1.4114  0.0689 -0.9749
 6864TIP3    H242008   5.184   3.629   3.945 -1.6301  0.1397  2.1380
 6865TIP3   OH242009   3.338   1.284   5.054 -0.0036 -0.0215  0.1742
 6865TIP3    H142010   3.303   1.277   4.965  1.3704 -0.7874 -0.3376
 6865TIP3    H242011   3.275   1.339   5.100 -1.5328 -0.8358 -0.8587
 6866TIP3   OH242012   4.088   1.599   1.713  0.4578  0.3427  0.4766
 6866TIP3    H142013   4.130   1.516   1.690  0.8804  0.8410 -0.6350
 6866TIP3    H242014   4.051   1.631   1.630  0.0281  1.1082  0.9494
 6867TIP3   OH242015   5.456   1.795  16.034  0.5434  0.2181 -0.8458
 6867TIP3    H142016   5.371   1.793  16.078  0.9984  0.0496  0.0321
 6867TIP3    H242017   5.466   1.885  16.004  0.7203  0.6111  0.3704
 6868TIP3   OH242018   4.249   5.523   3.980 -0.2186 -0.1895  0.1817
 6868TIP3    H142019   4.323   5.583   3.978 -0.4045  0.0663  0.8073
 6868TIP3    H242020   4.173   5.579   3.999 -0.6441 -0.3792 -0.8920
 6869TIP3   OH242021   3.470   5.672   3.757 -0.0387 -0.3810 -0.0960
 6869TIP3    H142022   3.492   5.579   3.758  0.8531 -0.2172  2.2260
 6869TIP3    H242023   3.544   5.714   3.802  0.0958  1.6085 -1.9853
 6870TIP3   OH242024   3.781   1.567   4.869  0.2486  0.0177 -0.2195
 6870TIP3    H142025   3.688   1.547   4.860  0.3552 -0.1045 -1.1560
 6870TIP3    H242026   3.801   1.623   4.794  0.5705  1.4218  0.8830
 6871TIP3   OH242027   2.224   5.339   2.652  0.2191 -0.3592  0.0900
 6871TIP3    H142028   2.277   5.284   2.595  1.2192 -0.3103  0.9290
 6871TIP3    H242029   2.183   5.278   2.713  1.0371 -0.2301  0.7892
 6872TIP3   OH242030   4.652   6.292   0.861 -0.0084 -0.7285 -0.1154
 6872TIP3    H142031   4.589   6.237   0.815  1.2859 -1.1572 -1.4450
 6872TIP3    H242032   4.721   6.231   0.888 -0.0985 -0.2583  1.2581
 6873TIP3   OH242033   6.128   3.888   3.303  0.4208  0.1551  0.2703
 6873TIP3    H142034   6.112   3.810   3.251  0.8739  1.7340 -2.3938
 6873TIP3    H242035   6.106   3.862   3.393 -2.0086 -2.2104 -0.8881
 6874TIP3   OH242036   0.511   6.340   3.230 -0.0576 -0.4112  0.2651
 6874TIP3    H142037   0.576   6.276   3.257  0.4841 -0.6319 -1.4137
 6874TIP3    H242038   0.441   6.334   3.296  1.4257 -0.4192  1.8910
 6875TIP3   OH242039   5.541   5.424  11.199 -0.0850  0.1515  0.1718
 6875TIP3    H142040   5.458   5.459  11.167  0.7754  1.6703 -0.5319
 6875TIP3    H242041   5.603   5.438  11.127  1.0896  0.3592  1.1765
 6876TIP3   OH242042   0.223   4.388  15.110  0.1510  0.2193 -0.0385
 6876TIP3    H142043   0.267   4.438  15.040  1.1377 -0.5463  0.0087
 6876TIP3    H242044   0.158   4.449  15.145 -0.7926  0.4383 -2.0067
 6877TIP3   OH242045   3.989   5.358  14.269 -0.0118 -0.8731  0.6522
 6877TIP3    H142046   3.979   5.299  14.194  1.7538 -1.2174  0.6528
 6877TIP3    H242047   3.900   5.389  14.287 -0.4256 -0.3467 -1.9288
 6878TIP3   OH242048   6.660   5.381   3.226  0.5307 -0.1972 -0.7713
 6878TIP3    H142049   6.755   5.383   3.215  0.4384 -0.1689 -1.6317
 6878TIP3    H242050   6.627   5.339   3.147 -0.1577 -0.5050 -0.3337
 6879TIP3   OH242051   4.897   4.461  12.149  0.7686  0.1998 -0.2273
 6879TIP3    H142052   4.896   4.543  12.199  0.4375  1.0624 -1.5787
 6879TIP3    H242053   4.987   4.429  12.158  0.6890  0.2873  0.9670
 6880TIP3   OH242054   6.365   5.169  16.914 -0.0656  0.3376 -0.5655
 6880TIP3    H142055   6.440   5.206  16.960  3.4418 -3.3433 -2.7006
 6880TIP3    H242056   6.351   5.084  16.956 -3.6495  1.1140  0.1493
 6881TIP3   OH242057   5.556   0.076   5.914  0.5032  0.2379 -0.1755
 6881TIP3    H142058   5.649   0.097   5.916  0.3726  0.8324 -0.0294
 6881TIP3    H242059   5.548   0.006   5.850  1.0969 -0.0601  0.0696
 6882TIP3   OH242060   1.659   3.780   5.735 -0.1008  0.0203  0.0714
 6882TIP3    H142061   1.602   3.704   5.723  0.7535 -0.7610  0.8487
 6882TIP3    H242062   1.643   3.834   5.658 -1.3530 -0.5339 -0.0743
 6883TIP3   OH242063   5.419   0.618  17.381  0.5199 -0.6576  0.2596
 6883TIP3    H142064   5.422   0.529  17.347 -0.1056 -1.3454  1.9144
 6883TIP3    H242065   5.327   0.643  17.375  0.6814 -0.1339 -0.1420
 6884TIP3   OH242066   2.561   4.416   1.991  0.6022  0.0489 -0.4671
 6884TIP3    H142067   2.572   4.505   2.025 -0.3247  0.3484 -0.9121
 6884TIP3    H242068   2.587   4.422   1.899  2.8571 -0.7012  0.0568
 6885TIP3   OH242069   3.145   1.984  16.326  0.0695  0.2687  0.1654
 6885TIP3    H142070   3.135   2.067  16.372 -1.8473  0.6038 -0.7558
 6885TIP3    H242071   3.152   2.009  16.233  1.1953 -0.5383  0.0053
 6886TIP3   OH242072   0.647   3.401  11.591  0.1427  0.3125 -0.3104
 6886TIP3    H142073   0.670   3.398  11.498  0.4748 -0.7864 -0.2112
 6886TIP3    H242074   0.555   3.377  11.594  0.4544 -0.9490 -0.2711
 6887TIP3   OH242075   5.508   0.959   6.606  0.2923  0.0050  0.3196
 6887TIP3    H142076   5.564   1.026   6.568  0.4381 -0.4776 -0.3375
 6887TIP3    H242077   5.557   0.877   6.594 -0.5463 -0.4260 -0.2822
 6888TIP3   OH242078   0.045   1.401   1.006 -0.2279  0.1144 -0.2907
 6888TIP3    H142079   0.067   1.380   0.916  0.8486 -0.9852  0.1969
 6888TIP3    H242080   0.126   1.437   1.043 -0.2000 -0.8267  0.6224
 6889TIP3   OH242081   0.319   1.227  15.931 -0.2193 -0.5899 -0.5045
 6889TIP3    H142082   0.327   1.144  15.977  3.7206 -0.0180  0.2164
 6889TIP3    H242083   0.352   1.210  15.843  2.0812  0.4140  0.0993
 6890TIP3   OH242084   2.979   0.714  12.227  0.3678  0.0719 -0.0977
 6890TIP3    H142085   3.058   0.693  12.276  0.1741  1.0521  0.6613
 6890TIP3    H242086   2.974   0.810  12.229 -1.6813 -0.0096  1.2406
 6891TIP3   OH242087   5.835   5.410  13.858  0.5948 -0.1863  0.6141
 6891TIP3    H142088   5.822   5.386  13.950 -0.2705 -0.0438  0.5385
 6891TIP3    H242089   5.794   5.339  13.809  1.7752 -0.6831  0.3083
 6892TIP3   OH242090   1.691   5.021   3.021  0.0398 -0.7881 -0.4531
 6892TIP3    H142091   1.741   5.061   3.092  1.9267 -0.0552 -2.0857
 6892TIP3    H242092   1.662   4.937   3.057 -0.2475  0.1242  1.5959
 6893TIP3   OH242093   0.781   0.312   4.587 -0.0609 -0.2132 -0.1185
 6893TIP3    H142094   0.749   0.392   4.628 -2.3412  0.2190 -2.5046
 6893TIP3    H242095   0.866   0.335   4.551  0.2331  0.4851  0.9701
 6894TIP3   OH242096   0.137   1.191  14.456 -0.2649  0.3664 -0.4779
 6894TIP3    H142097   0.185   1.167  14.376  0.4634  0.5005 -0.0969
 6894TIP3    H242098   0.124   1.286  14.448  0.6455  0.5509 -0.0246
 6895TIP3   OH242099   3.270   5.419   3.432 -0.2692  0.2917 -0.0289
 6895TIP3    H142100   3.323   5.429   3.353  0.5312  1.8982  0.6441
 6895TIP3    H242101   3.333   5.388   3.498 -1.0199 -1.4553 -0.1045
 6896TIP3   OH242102   6.470   3.370   5.469 -0.0926  0.1891  0.2907
 6896TIP3    H142103   6.545   3.360   5.411 -0.5783  0.6261 -0.4254
 6896TIP3    H242104   6.439   3.459   5.454 -1.6598 -0.4548 -0.5678
 6897TIP3   OH242105   5.475   2.363   0.160 -0.4002  0.2179  0.0190
 6897TIP3    H142106   5.568   2.357   0.139 -0.3139  2.6164 -0.5494
 6897TIP3    H242107   5.441   2.276   0.140  1.3662 -0.1749 -1.5827
 6898TIP3   OH242108   3.085   4.936   6.274 -0.4641 -0.0999  0.1694
 6898TIP3    H142109   3.074   4.872   6.345 -0.0906 -0.2792  0.0641
 6898TIP3    H242110   3.165   4.983   6.296 -1.5643  1.4290  1.0916
 6899TIP3   OH242111   5.813   4.317  14.271  0.3244  0.5291 -0.0236
 6899TIP3    H142112   5.814   4.370  14.350  0.7594  2.2714 -1.1418
 6899TIP3    H242113   5.904   4.290  14.258 -0.0707 -1.6897  1.2350
 6900TIP3   OH242114   0.098   0.978   0.937  0.0693  0.2285  0.0886
 6900TIP3    H142115   0.141   0.894   0.951 -0.7816 -0.5493 -1.6011
 6900TIP3    H242116   0.144   1.016   0.862 -0.7755  0.3539 -0.3841
 6901TIP3   OH242117   0.571   1.048   4.059  0.4167  0.5665 -0.1194
 6901TIP3    H142118   0.608   0.960   4.063 -0.6114  0.1511  0.7843
 6901TIP3    H242119   0.625   1.099   4.120 -0.3678 -0.0039  1.0948
 6902TIP3   OH242120   4.763   5.384   1.632 -0.1659 -0.1351 -0.2930
 6902TIP3    H142121   4.809   5.405   1.713 -1.7618 -0.7452  0.8153
 6902TIP3    H242122   4.701   5.456   1.621  0.1206  0.0044 -1.0641
 6903TIP3   OH242123   2.957   4.957  13.424 -0.3427 -0.3423  0.3819
 6903TIP3    H142124   2.967   5.009  13.345  1.3991 -1.8075 -0.4498
 6903TIP3    H242125   2.884   4.898  13.405 -0.8011  0.2109  0.4104
 6904TIP3   OH242126   4.229   0.622  14.183 -0.3141 -0.0648 -0.1027
 6904TIP3    H142127   4.284   0.603  14.259 -0.8152 -1.2507 -0.0213
 6904TIP3    H242128   4.270   0.572  14.112 -1.8310 -1.8163  0.1817
 6905TIP3   OH242129   0.609   5.502   0.851  0.7551  0.7828  0.0398
 6905TIP3    H142130   0.515   5.511   0.868  0.5420 -2.1592  1.0492
 6905TIP3    H242131   0.616   5.421   0.800  2.8074  0.2314  1.1155
 6906TIP3   OH242132   0.482   0.730   4.579  0.6335  0.2035  0.1062
 6906TIP3    H142133   0.482   0.683   4.662  2.1308  1.3933  0.8199
 6906TIP3    H242134   0.391   0.728   4.549  0.2146 -0.8725  1.3906
 6907TIP3   OH242135   4.598   2.080  10.876 -0.1375 -0.2201  0.1938
 6907TIP3    H142136   4.517   2.033  10.896 -0.3455  0.5125  1.1843
 6907TIP3    H242137   4.642   2.027  10.809 -0.4869 -1.6715  1.0738
 6908TIP3   OH242138   1.548   1.841   4.537  0.5344 -0.6070  0.6761
 6908TIP3    H142139   1.601   1.848   4.458  0.2450  3.1465  0.6532
 6908TIP3    H242140   1.604   1.875   4.607 -0.2694 -0.9798  1.5317
 6909TIP3   OH242141   0.184   5.707  15.419 -0.5824 -0.1486 -0.2240
 6909TIP3    H142142   0.257   5.696  15.359 -0.6545  0.2691 -0.3933
 6909TIP3    H242143   0.116   5.749  15.367 -1.5903 -2.0595 -0.5476
 6910TIP3   OH242144   2.364   5.628   3.485  0.1749 -0.1672 -0.5024
 6910TIP3    H142145   2.427   5.692   3.451 -0.3242  1.3121  1.1777
 6910TIP3    H242146   2.304   5.612   3.412  2.1039 -1.1639 -1.9472
 6911TIP3   OH242147   1.459   5.162  14.288 -0.1159  0.2786  0.4162
 6911TIP3    H142148   1.376   5.148  14.243  1.0562 -2.0803 -1.2239
 6911TIP3    H242149   1.523   5.170  14.218  1.1976  0.9270  1.6491
 6912TIP3   OH242150   2.758   0.323  17.015  0.3791  0.6172  0.2641
 6912TIP3    H142151   2.760   0.232  17.044  0.8180 -0.7203 -3.4278
 6912TIP3    H242152   2.848   0.353  17.025  0.5287  0.1840  0.2584
 6913TIP3   OH242153   5.274   3.742   1.952 -0.4714 -0.0908 -0.4904
 6913TIP3    H142154   5.354   3.786   1.978 -0.0967 -0.5596 -0.8190
 6913TIP3    H242155   5.208   3.771   2.014  0.0459  0.0010  0.0165
 6914TIP3   OH242156   5.360   0.160   5.372  0.6340  0.1724  0.6552
 6914TIP3    H142157   5.410   0.171   5.452  0.7391  0.4626  0.5504
 6914TIP3    H242158   5.273   0.132   5.401 -0.1729  2.7887  1.0604
 6915TIP3   OH242159   4.841   0.418  12.395 -0.3516 -0.0036  0.0555
 6915TIP3    H142160   4.789   0.450  12.468 -0.8235 -0.2653 -0.1558
 6915TIP3    H242161   4.798   0.454  12.317 -0.0877 -0.0422 -0.1119
 6916TIP3   OH242162   3.180   1.561   3.288 -0.2871  0.5549  0.1701
 6916TIP3    H142163   3.160   1.613   3.210  2.4068  0.4393 -0.6925
 6916TIP3    H242164   3.262   1.597   3.321 -0.8045 -0.1148  2.3495
 6917TIP3   OH242165   6.579   5.004  13.478  0.4330 -0.4779  0.0864
 6917TIP3    H142166   6.487   5.005  13.506  0.9217 -0.7511  1.8644
 6917TIP3    H242167   6.602   5.096  13.468  0.4064 -0.3049  1.3691
 6918TIP3   OH242168   1.982   2.623   0.368 -0.2086 -0.2135  0.1940
 6918TIP3    H142169   1.953   2.546   0.320  1.3165  0.2396 -1.5971
 6918TIP3    H242170   2.041   2.590   0.435 -1.4491 -0.7671  1.0385
 6919TIP3   OH242171   4.264   5.426  12.586 -0.0492 -0.3203  0.2038
 6919TIP3    H142172   4.295   5.348  12.632 -2.8740 -0.9356  1.2906
 6919TIP3    H242173   4.316   5.498  12.622  1.9104 -1.5172 -0.0882
 6920TIP3   OH242174   0.225   1.814   2.650 -0.1790 -0.6288 -0.7375
 6920TIP3    H142175   0.287   1.833   2.721 -0.4514  0.4094 -0.7549
 6920TIP3    H242176   0.141   1.802   2.694 -0.0668 -1.5547 -0.7572
 6921TIP3   OH242177   2.768   2.543   2.484 -0.6044  0.0949  0.4208
 6921TIP3    H142178   2.685   2.567   2.524 -1.4822  1.7716 -2.1515
 6921TIP3    H242179   2.746   2.522   2.394  1.5721 -1.1590  0.1068
 6922TIP3   OH242180   0.905   2.572   2.602 -0.5342 -0.3593 -0.5943
 6922TIP3    H142181   0.948   2.496   2.564 -0.1990 -0.1970 -0.5454
 6922TIP3    H242182   0.871   2.541   2.686 -0.8858 -0.5991 -0.8216
 6923TIP3   OH242183   6.600   3.480   4.762 -0.0015 -0.0966 -0.5793
 6923TIP3    H142184   6.514   3.497   4.723 -1.1113 -0.1174  1.7163
 6923TIP3    H242185   6.621   3.390   4.735 -0.3156  0.1866 -1.8090
 6924TIP3   OH242186   1.674   6.419  17.009 -0.1908 -0.1490 -0.0477
 6924TIP3    H142187   1.697   6.508  17.036 -2.0365  0.1561  0.7174
 6924TIP3    H242188   1.736   6.363  17.054  0.9063  0.7321 -0.4234
 6925TIP3   OH242189   0.261   5.786   4.745 -0.3030 -0.2441 -0.4256
 6925TIP3    H142190   0.218   5.728   4.809 -0.8197 -0.4089 -0.9160
 6925TIP3    H242191   0.320   5.839   4.798 -1.3938  0.2646  0.3307
 6926TIP3   OH242192   1.619   2.632   6.314  0.0335  0.5970 -0.1459
 6926TIP3    H142193   1.649   2.722   6.327  0.6162  0.5956 -1.3724
 6926TIP3    H242194   1.561   2.637   6.238  2.4424 -0.5047 -2.1909
 6927TIP3   OH242195   3.927   4.012  11.372  0.0514  0.8822  0.4727
 6927TIP3    H142196   3.916   4.021  11.278 -0.2224  0.5145  0.4673
 6927TIP3    H242197   3.860   4.068  11.411 -1.3078 -0.6647  0.4427
 6928TIP3   OH242198   2.446   5.297  12.024  0.2498 -0.1473 -0.5397
 6928TIP3    H142199   2.446   5.261  12.113 -1.8612  1.9620  0.4253
 6928TIP3    H242200   2.389   5.238  11.975 -2.5054  1.2062  0.8050
 6929TIP3   OH242201   0.861   2.532  15.898  0.1867  0.3175  0.4765
 6929TIP3    H142202   0.943   2.496  15.932  0.0490  0.1537  0.6342
 6929TIP3    H242203   0.835   2.599  15.961  0.4940  0.7732  0.1324
 6930TIP3   OH242204   1.527   5.211  14.035  0.3409 -0.1421  0.3290
 6930TIP3    H142205   1.449   5.267  14.032 -0.1901 -0.8051  1.2540
 6930TIP3    H242206   1.593   5.259  13.985 -0.5197  0.6448 -0.0855
 6931TIP3   OH242207   2.478   5.549  11.641  0.6989 -0.2601  0.3371
 6931TIP3    H142208   2.524   5.602  11.705 -1.2759  0.7073  1.0209
 6931TIP3    H242209   2.470   5.605  11.564 -1.8977  0.7801  1.2549
 6932TIP3   OH242210   1.755   6.459  15.512 -0.0977 -0.0483  0.5018
 6932TIP3    H142211   1.799   6.453  15.597 -0.9173  0.6301  0.9997
 6932TIP3    H242212   1.800   6.531  15.467 -1.0544  1.0666  1.2604
 6933TIP3   OH242213   4.138   1.703   0.332 -0.5236  0.0621 -0.3339
 6933TIP3    H142214   4.122   1.696   0.426 -0.6991  2.5643 -0.1213
 6933TIP3    H242215   4.187   1.624   0.310 -1.9611 -1.4316  1.4996
 6934TIP3   OH242216   4.574   3.398  12.407  0.1184 -0.1258 -0.0129
 6934TIP3    H142217   4.667   3.380  12.419  0.6011  0.9369 -1.8303
 6934TIP3    H242218   4.539   3.405  12.496  1.9950  0.5130  0.7057
 6935TIP3   OH242219   2.107   3.579  13.903  0.3002 -0.8618  0.1701
 6935TIP3    H142220   2.019   3.603  13.932  0.4252 -1.2680  0.9069
 6935TIP3    H242221   2.094   3.539  13.817 -0.2710 -1.2562  0.4368
 6936TIP3   OH242222   1.956   0.592  13.517 -0.4490 -0.5475 -0.9412
 6936TIP3    H142223   1.947   0.604  13.612 -1.7432 -1.7888 -0.8680
 6936TIP3    H242224   2.030   0.533  13.507  0.2707  0.3139 -0.7690
 6937TIP3   OH242225   5.189   3.599   2.807 -0.0455  0.4348 -0.1897
 6937TIP3    H142226   5.101   3.568   2.830 -1.0267  1.1070 -2.6613
 6937TIP3    H242227   5.178   3.694   2.795  1.0381  0.5336 -0.4307
 6938TIP3   OH242228   6.190   0.257   0.928  0.7248  0.2807 -0.2683
 6938TIP3    H142229   6.191   0.352   0.923  0.2509  0.2814 -0.3383
 6938TIP3    H242230   6.117   0.230   0.872 -0.3911 -0.0251  1.2690
 6939TIP3   OH242231   0.789   1.906  10.624 -0.1478  0.2429 -0.1701
 6939TIP3    H142232   0.763   1.827  10.576 -1.9185 -0.0340  1.1318
 6939TIP3    H242233   0.749   1.978  10.576 -1.0313  0.0545  0.2489
 6940TIP3   OH242234   1.579   1.089   2.906 -0.1649  0.0888  0.1759
 6940TIP3    H142235   1.663   1.105   2.950  0.2809 -0.8784 -0.2967
 6940TIP3    H242236   1.582   1.144   2.827  0.2173 -0.2757 -0.0673
 6941TIP3   OH242237   0.164   5.414  11.325 -0.1473  0.7052  0.3791
 6941TIP3    H142238   0.250   5.386  11.292 -1.8489  0.0969 -4.2758
 6941TIP3    H242239   0.148   5.358  11.401  1.9787 -1.9603 -0.9544
 6942TIP3   OH242240   5.179   6.129   0.098  0.0113 -0.2383 -0.4191
 6942TIP3    H142241   5.215   6.069   0.162 -2.1279  0.2057  1.3109
 6942TIP3    H242242   5.230   6.209   0.108 -1.1713  0.3280  1.8680
 6943TIP3   OH242243   5.874   1.137   4.071 -0.2380 -0.8119 -0.3838
 6943TIP3    H142244   5.849   1.159   3.981 -0.1266 -2.2991 -0.8124
 6943TIP3    H242245   5.969   1.129   4.068 -0.1175  0.2804  0.1563
 6944TIP3   OH242246   2.460   6.721  15.231  0.0247 -0.5136 -0.0342
 6944TIP3    H142247   2.415   6.795  15.191 -1.2798 -0.8653  0.7329
 6944TIP3    H242248   2.493   6.670  15.157  0.1004  0.3188 -0.5848
 6945TIP3   OH242249   1.443   5.293  16.336  0.5714  0.5484 -0.5002
 6945TIP3    H142250   1.464   5.204  16.306 -0.6119  0.1416 -0.1677
 6945TIP3    H242251   1.364   5.317  16.288 -0.9729  0.1534  1.6869
 6946TIP3   OH242252   0.693   1.318   3.929  0.0356  0.4882 -0.0911
 6946TIP3    H142253   0.645   1.236   3.942  1.6690 -0.8571 -2.0234
 6946TIP3    H242254   0.630   1.386   3.954 -2.2358 -1.2335 -0.7568
 6947TIP3   OH242255   3.803   5.406  12.849 -0.4056  0.0083  0.1602
 6947TIP3    H142256   3.842   5.493  12.846  0.8144 -0.5428 -0.4003
 6947TIP3    H242257   3.752   5.406  12.930  0.1017  1.0223  0.5004
 6948TIP3   OH242258   5.226   2.457   4.809 -0.1470  0.2110 -0.7452
 6948TIP3    H142259   5.249   2.546   4.782 -1.2865  1.0909  0.9925
 6948TIP3    H242260   5.284   2.439   4.883  0.5724 -0.8070 -1.5315
 6949TIP3   OH242261   0.326   6.023  13.940  0.2587 -0.1136 -0.7431
 6949TIP3    H142262   0.244   6.066  13.966  0.7007  0.8102 -0.8804
 6949TIP3    H242263   0.301   5.931  13.928 -0.1314 -0.5420  2.3643
 6950TIP3   OH242264   1.952   4.429  15.832  1.0507 -0.1065 -0.1777
 6950TIP3    H142265   2.038   4.388  15.843  1.1170 -0.0099 -0.3258
 6950TIP3    H242266   1.938   4.477  15.913  0.6173 -1.0637  0.3349
 6951TIP3   OH242267   3.395   6.728   2.869  0.1784  0.2044 -0.2457
 6951TIP3    H142268   3.308   6.746   2.906 -0.6012 -0.8083 -1.4528
 6951TIP3    H242269   3.409   6.798   2.805 -0.6732 -0.6939 -1.4665
 6952TIP3   OH242270   6.486   0.831  10.623 -0.1647  0.1654 -0.2623
 6952TIP3    H142271   6.517   0.746  10.590 -1.2547 -0.7080  0.8814
 6952TIP3    H242272   6.485   0.887  10.546  1.2579 -0.6433 -0.9165
 6953TIP3   OH242273   4.052   4.599  11.461  0.0903 -0.7341  0.1958
 6953TIP3    H142274   4.123   4.661  11.476 -1.1673  0.6498  0.7111
 6953TIP3    H242275   4.081   4.518  11.502  1.8200 -0.5321 -0.5681
 6954TIP3   OH242276   4.334   0.018   1.428 -0.0066  0.0902 -0.5107
 6954TIP3    H142277   4.370  -0.038   1.496 -0.6918 -1.2916 -1.2388
 6954TIP3    H242278   4.400   0.017   1.358  0.0186  0.2651 -0.4905
 6955TIP3   OH242279   3.903   1.868   2.581  0.0884  0.1901 -0.1341
 6955TIP3    H142280   3.903   1.845   2.488 -2.6303  2.8355 -0.9605
 6955TIP3    H242281   3.974   1.931   2.591 -0.1686  0.5605 -0.6304
 6956TIP3   OH242282   5.557   5.097   5.921  0.2386 -0.3729 -0.5948
 6956TIP3    H142283   5.644   5.122   5.890 -0.3140  0.9860 -1.1506
 6956TIP3    H242284   5.510   5.072   5.842 -0.5872  1.2372 -0.6551
 6957TIP3   OH242285   2.235   5.377  17.147  0.3122 -0.8232  0.8471
 6957TIP3    H142286   2.305   5.424  17.193 -1.3904  2.1923  0.5674
 6957TIP3    H242287   2.181   5.340  17.218  1.4908 -2.2242  1.0705
 6958TIP3   OH242288   1.929   1.085   2.648  0.2369  0.4283  0.0383
 6958TIP3    H142289   2.006   1.082   2.591 -0.6271  2.6638 -1.3701
 6958TIP3    H242290   1.863   1.034   2.600  0.3288 -0.0841  0.4462
 6959TIP3   OH242291   5.863   4.401   2.772 -0.5381  0.5341 -0.4269
 6959TIP3    H142292   5.870   4.325   2.830  0.3491  0.5734 -0.4786
 6959TIP3    H242293   5.857   4.476   2.832 -1.6693  0.4289 -0.3703
 6960TIP3   OH242294   2.108   0.487   2.794 -0.3887 -0.1627 -0.3999
 6960TIP3    H142295   2.111   0.397   2.762  0.4630  0.6628 -2.8564
 6960TIP3    H242296   2.093   0.479   2.888 -0.3274 -2.8550 -0.5613
 6961TIP3   OH242297   6.225   6.538   1.205  0.9839 -0.8154  0.7106
 6961TIP3    H142298   6.206   6.469   1.142 -1.8305 -1.6689  2.3207
 6961TIP3    H242299   6.218   6.619   1.155  1.7331 -1.5481 -0.6524
 6962TIP3   OH242300   6.331   0.744  11.459  0.3252  0.0781 -0.7671
 6962TIP3    H142301   6.275   0.678  11.419 -0.1346  0.9424 -1.5717
 6962TIP3    H242302   6.305   0.827  11.418  1.0226  0.7390  0.0773
 6963TIP3   OH242303   0.324   3.132   3.839  0.0657  0.7743  0.4997
 6963TIP3    H142304   0.262   3.199   3.810  0.8083  1.2140 -0.1560
 6963TIP3    H242305   0.334   3.074   3.763  0.8162  0.9996  0.4099
 6964TIP3   OH242306   0.380   2.414  15.654 -0.8519  0.0077  0.1181
 6964TIP3    H142307   0.422   2.408  15.568 -1.5157  0.3756 -0.2436
 6964TIP3    H242308   0.424   2.488  15.697 -1.1564  0.4313 -0.2838
 6965TIP3   OH242309   6.208   4.890  16.431  0.2939 -0.0480 -0.4912
 6965TIP3    H142310   6.131   4.856  16.478  0.4729 -1.5175 -1.1946
 6965TIP3    H242311   6.201   4.985  16.440 -1.3471 -0.1597 -0.1332
 6966TIP3   OH242312   6.167   2.627   5.800 -0.1267  0.7383  0.0780
 6966TIP3    H142313   6.129   2.559   5.856  0.3380 -0.9358 -1.5588
 6966TIP3    H242314   6.104   2.637   5.728  0.2039  1.4806 -0.1184
 6967TIP3   OH242315   1.909   2.946  13.000  0.2677 -0.2809  0.2217
 6967TIP3    H142316   1.850   2.933  12.926 -0.8034  1.5115  0.7181
 6967TIP3    H242317   1.991   2.975  12.960 -0.7646  2.2196 -0.2617
 6968TIP3   OH242318   0.066   3.888   4.064 -0.1928  0.0478  0.2774
 6968TIP3    H142319   0.021   3.841   4.134 -0.8333 -1.6106 -1.2042
 6968TIP3    H242320   0.157   3.894   4.095  0.0145 -2.5326  0.3833
 6969TIP3   OH242321   6.676   1.854  13.681 -0.4375 -0.4359  0.2811
 6969TIP3    H142322   6.590   1.896  13.677  0.2463  1.2255  1.7476
 6969TIP3    H242323   6.712   1.880  13.766  0.7396 -2.6832  0.5386
 6970TIP3   OH242324   1.276   1.742  12.204  0.2588  0.0374  0.1669
 6970TIP3    H142325   1.362   1.720  12.238  0.2011 -0.1400  0.1976
 6970TIP3    H242326   1.240   1.804  12.268  0.4479  0.2771  0.0446
 6971TIP3   OH242327   6.722   5.755   1.882  0.1616 -0.1791  0.3988
 6971TIP3    H142328   6.688   5.732   1.795  2.2948 -1.0252 -0.2756
 6971TIP3    H242329   6.672   5.701   1.943 -0.1621 -0.8693 -0.4615
 6972TIP3   OH242330   5.009   2.025  15.690 -0.3078 -0.0411  0.6693
 6972TIP3    H142331   5.094   2.069  15.686 -0.7411  0.7562 -0.6446
 6972TIP3    H242332   5.029   1.932  15.682  0.3983  0.2082 -0.8278
 6973TIP3   OH242333   4.674   5.717  11.569  0.5258 -0.0684  0.4292
 6973TIP3    H142334   4.731   5.790  11.546  1.1640 -0.3681  1.0068
 6973TIP3    H242335   4.636   5.688  11.486  0.8260  0.4643  0.1041
 6974TIP3   OH242336   0.288   3.793  11.867 -0.1371  0.0812  0.2810
 6974TIP3    H142337   0.203   3.784  11.824  0.2527 -2.0199 -0.1288
 6974TIP3    H242338   0.331   3.865  11.820 -0.9803 -0.0084 -0.6707
 6975TIP3   OH242339   1.337   3.813   6.510  0.3246 -0.1131  0.5413
 6975TIP3    H142340   1.348   3.851   6.598  0.1440 -2.2471  1.5543
 6975TIP3    H242341   1.242   3.816   6.495  0.3305  0.0136  0.5270
 6976TIP3   OH242342   4.583   4.186   3.839  0.1965  0.1802 -0.3965
 6976TIP3    H142343   4.503   4.162   3.887 -1.3337  1.6091 -2.0629
 6976TIP3    H242344   4.653   4.142   3.886 -1.0585  1.8416  3.4934
 6977TIP3   OH242345   2.093   3.597   1.441  0.0947 -0.0550 -0.0818
 6977TIP3    H142346   2.028   3.659   1.406  1.9805  1.4311 -1.1618
 6977TIP3    H242347   2.100   3.620   1.534 -1.1322 -0.4660  0.1308
 6978TIP3   OH242348   1.218   4.221   1.705 -0.2564  0.0047  1.0728
 6978TIP3    H142349   1.129   4.190   1.691 -1.0138  3.0874 -2.1088
 6978TIP3    H242350   1.209   4.290   1.771 -0.5053  1.1775 -0.1515
 6979TIP3   OH242351   6.580   3.695  14.407 -0.3840  0.4237 -0.3418
 6979TIP3    H142352   6.589   3.612  14.454 -0.9615 -0.0284 -0.9904
 6979TIP3    H242353   6.508   3.679  14.345 -0.1222  1.2285 -0.8679
 6980TIP3   OH242354   4.152   2.578   0.238 -0.2442 -0.0473 -0.3033
 6980TIP3    H142355   4.058   2.591   0.226 -0.4495 -1.6719 -0.7623
 6980TIP3    H242356   4.164   2.579   0.333 -0.5499  1.1769 -0.2662
 6981TIP3   OH242357   1.809   6.736  11.991  0.6502  0.2100  0.9357
 6981TIP3    H142358   1.735   6.787  12.024 -0.1352  0.2119 -0.7730
 6981TIP3    H242359   1.878   6.802  11.974  0.7654  0.3040  1.7218
 6982TIP3   OH242360   4.182   1.065  17.077 -0.5774  0.3501 -0.3033
 6982TIP3    H142361   4.159   1.142  17.129 -0.2546  1.7427 -2.1301
 6982TIP3    H242362   4.209   1.100  16.992  1.1461 -1.6783 -0.6841
 6983TIP3   OH242363   2.190   5.339   0.242  0.4705  0.1862 -0.4429
 6983TIP3    H142364   2.116   5.390   0.276 -0.1672 -0.7576 -0.3757
 6983TIP3    H242365   2.218   5.286   0.316  0.7480  0.0124 -0.6736
 6984TIP3   OH242366   0.237   3.534   0.210 -0.0098 -0.1974 -0.1292
 6984TIP3    H142367   0.151   3.575   0.206  0.9921  2.1909  1.3758
 6984TIP3    H242368   0.231   3.461   0.148 -3.1147 -0.1694  0.0097
 6985TIP3   OH242369   2.152   0.805  12.995 -0.0192 -0.4158 -0.6513
 6985TIP3    H142370   2.231   0.751  13.002  1.0728  1.1413 -0.3604
 6985TIP3    H242371   2.154   0.838  12.905  0.7155  1.1051 -0.1088
 6986TIP3   OH242372   2.832   1.083   3.058 -0.1069 -0.2118  0.0925
 6986TIP3    H142373   2.744   1.099   3.023  0.5346 -0.3166 -1.7010
 6986TIP3    H242374   2.886   1.152   3.020  0.7046 -0.5431  0.6263
 6987TIP3   OH242375   2.387   0.440   3.925  0.2650 -0.1812  0.6596
 6987TIP3    H142376   2.342   0.364   3.889  3.2632 -2.8190  1.9956
 6987TIP3    H242377   2.463   0.453   3.867 -0.3170  2.0959  0.2840
 6988TIP3   OH242378   5.428   3.966  15.665  0.1365  0.6928  0.1117
 6988TIP3    H142379   5.490   3.953  15.736  1.5528  3.3409 -0.5216
 6988TIP3    H242380   5.469   4.031  15.608 -1.4194 -0.4770 -2.5753
 6989TIP3   OH242381   5.939   5.657  14.630 -0.0884  0.4960 -0.0531
 6989TIP3    H142382   5.925   5.736  14.683  1.7148 -0.5359  2.1383
 6989TIP3    H242383   5.970   5.591  14.692 -1.4566 -1.9750 -1.8010
 6990TIP3   OH242384   1.197   2.338  16.911 -0.2204  0.1661 -0.3974
 6990TIP3    H142385   1.242   2.319  16.993 -0.6228 -2.1680 -0.6546
 6990TIP3    H242386   1.256   2.397  16.863  1.2915 -0.6590  0.3966
 6991TIP3   OH242387   2.766   4.824  16.536 -0.2285 -0.7583  0.1902
 6991TIP3    H142388   2.774   4.734  16.568 -0.6700 -0.7725  0.2701
 6991TIP3    H242389   2.730   4.815  16.448 -0.7193 -0.6421  0.3763
 6992TIP3   OH242390   4.597   3.871  15.017  0.3449  0.3258  0.2155
 6992TIP3    H142391   4.594   3.966  15.025  0.3351  0.2835  0.7880
 6992TIP3    H242392   4.691   3.851  15.014  0.4141  0.2338  1.9146
 6993TIP3   OH242393   3.509   3.604  17.374  0.0051  0.5511 -0.5354
 6993TIP3    H142394   3.557   3.684  17.353 -0.0951  0.7110 -0.1670
 6993TIP3    H242395   3.477   3.572  17.290  0.5902  0.5506 -0.7586
 6994TIP3   OH242396   4.173   5.482   2.070 -0.4132  0.2295  0.5756
 6994TIP3    H142397   4.235   5.532   2.123 -0.4638 -0.2082  1.0632
 6994TIP3    H242398   4.219   5.400   2.051 -1.3289 -0.7238  2.1671
 6995TIP3   OH242399   3.863   0.960   4.794  0.2067 -0.3931  0.0569
 6995TIP3    H142400   3.866   1.050   4.760 -0.1137 -0.4766 -0.1946
 6995TIP3    H242401   3.954   0.930   4.790  0.2379 -0.2572 -0.3402
 6996TIP3   OH242402   3.574   0.639   1.267 -0.7426  0.1206  0.3502
 6996TIP3    H142403   3.642   0.575   1.248 -1.5976 -1.3381  1.9665
 6996TIP3    H242404   3.588   0.663   1.358 -2.7098 -0.6879  0.9225
 6997TIP3   OH242405   3.694   2.959   2.703  0.0738 -0.4487 -0.0043
 6997TIP3    H142406   3.783   2.933   2.677 -0.2914 -0.9420 -0.7921
 6997TIP3    H242407   3.705   3.047   2.739  0.6791  0.0772 -1.4133
 6998TIP3   OH242408   6.107   4.176   3.178 -0.4566  0.2811  0.5145
 6998TIP3    H142409   6.105   4.082   3.196  0.9754  0.0571 -0.3512
 6998TIP3    H242410   6.199   4.201   3.189 -0.8381  1.6290  0.8950
 6999TIP3   OH242411   6.509   5.818   6.761 -0.0343  0.3063 -0.1474
 6999TIP3    H142412   6.516   5.737   6.711  1.0166 -0.2969  0.9122
 6999TIP3    H242413   6.581   5.813   6.825 -0.6668  1.5228  0.7054
 7000TIP3   OH242414   0.748   6.176  11.044 -0.5438  0.4005 -0.2494
 7000TIP3    H142415   0.739   6.086  11.011 -1.7940  0.2063  0.5698
 7000TIP3    H242416   0.688   6.227  10.989  0.7509  0.9094 -1.2429
 7001TIP3   OH242417   2.945   5.176   1.910 -0.7527  0.3394  0.2855
 7001TIP3    H142418   2.893   5.108   1.953  0.7436 -0.5813  0.6952
 7001TIP3    H242419   3.011   5.200   1.975  0.2469  0.4247 -0.7358
 7002TIP3   OH242420   1.841   1.253  16.123 -0.0941 -0.2410  0.1550
 7002TIP3    H142421   1.794   1.323  16.078 -0.1269  0.4663  1.2774
 7002TIP3    H242422   1.820   1.264  16.215  1.2711 -0.6819  0.5432
 7003TIP3   OH242423   5.267   6.342   6.615 -0.3766  1.2723  0.1542
 7003TIP3    H142424   5.293   6.250   6.621  0.1766  1.3254 -1.1412
 7003TIP3    H242425   5.348   6.390   6.634  0.1951  1.4428 -2.3106
 7004TIP3   OH242426   5.011   4.806   5.586 -0.1237  0.3373 -0.3181
 7004TIP3    H142427   5.061   4.827   5.666  1.3614  0.3529 -1.2018
 7004TIP3    H242428   4.936   4.755   5.617  1.1501 -0.8521  0.9711
 7005TIP3   OH242429   1.413   0.295  15.367  0.0264 -0.0245 -0.1969
 7005TIP3    H142430   1.377   0.251  15.444 -0.9511  0.4896 -0.3510
 7005TIP3    H242431   1.507   0.275  15.371 -0.3924 -2.3483 -0.4204
 7006TIP3   OH242432   3.440   2.800   6.207 -0.1531 -0.5490 -1.0089
 7006TIP3    H142433   3.443   2.858   6.131 -0.4675  0.3255 -0.3713
 7006TIP3    H242434   3.347   2.781   6.219 -0.4047  1.3575  0.6254
 7007TIP3   OH242435   3.593   0.073   4.563  0.4386 -0.5141 -0.2591
 7007TIP3    H142436   3.546   0.017   4.502 -0.6084 -0.8339  0.8062
 7007TIP3    H242437   3.595   0.023   4.645  1.7816 -0.0831 -0.0016
 7008TIP3   OH242438   4.918   2.891  15.616  0.1271  0.4463  0.0520
 7008TIP3    H142439   4.899   2.957  15.682  0.9973  1.0741 -0.3034
 7008TIP3    H242440   4.901   2.807  15.660  1.7696  0.7933  1.4688
 7009TIP3   OH242441   2.980   5.218   0.213 -0.0015 -0.0710  0.2365
 7009TIP3    H142442   3.036   5.200   0.137 -0.9273 -0.9372 -0.2630
 7009TIP3    H242443   3.042   5.243   0.282  0.8803  0.4972 -0.7155
 7010TIP3   OH242444   2.057   1.774   5.111 -0.1155  0.2636  0.0710
 7010TIP3    H142445   2.106   1.838   5.163 -0.7141 -0.0381  1.0340
 7010TIP3    H242446   1.966   1.784   5.141 -0.2713 -0.7802 -0.0288
 7011TIP3   OH242447   2.629   3.476   2.749  0.2530  0.1357  0.3993
 7011TIP3    H142448   2.561   3.520   2.699  0.4430  1.4626  1.2677
 7011TIP3    H242449   2.705   3.475   2.691 -0.5353 -1.5750 -0.6684
 7012TIP3   OH242450   4.135   3.165   2.244 -0.2536  1.2405  0.1405
 7012TIP3    H142451   4.133   3.209   2.328  0.3507  1.3812  0.0906
 7012TIP3    H242452   4.225   3.177   2.213 -0.1737  0.2863 -0.0370
 7013TIP3   OH242453   2.095   0.928   2.832 -0.0244 -0.8447 -0.1356
 7013TIP3    H142454   2.022   0.959   2.779 -0.5189 -0.4568  0.7468
 7013TIP3    H242455   2.152   1.005   2.842  1.1845 -1.4450 -1.8552
 7014TIP3   OH242456   3.412   2.678   0.860  0.0386 -0.1487  0.4789
 7014TIP3    H142457   3.321   2.669   0.830  0.4567 -1.9019 -0.3818
 7014TIP3    H242458   3.455   2.728   0.791  0.1935 -1.1702 -0.1871
 7015TIP3   OH242459   4.723   5.194  17.323  0.7343 -0.1511  0.1752
 7015TIP3    H142460   4.662   5.261  17.292 -0.5729 -1.3755 -0.0256
 7015TIP3    H242461   4.809   5.221  17.291  0.0692  0.8629 -0.7937
 7016TIP3   OH242462   0.932   5.804   4.236  0.1641  0.2971  0.0455
 7016TIP3    H142463   0.838   5.787   4.248  0.3814 -0.0447  1.4927
 7016TIP3    H242464   0.945   5.891   4.274  0.6106 -0.1222  0.8786
 7017TIP3   OH242465   4.971   2.444   4.267 -0.5734 -0.4055 -0.5820
 7017TIP3    H142466   5.028   2.512   4.303 -1.0922 -0.4427  0.3595
 7017TIP3    H242467   4.891   2.449   4.320 -0.6711 -1.6654 -0.5616
 7018TIP3   OH242468   3.841   3.637   3.164  0.0288  0.7581 -0.5172
 7018TIP3    H142469   3.877   3.694   3.232  0.2244  0.1028 -0.0654
 7018TIP3    H242470   3.890   3.556   3.172  0.7265  0.9836 -2.0797
 7019TIP3   OH242471   6.560   4.964   2.995  0.7795 -0.4335  0.0686
 7019TIP3    H142472   6.542   4.936   3.085  1.5643 -1.3377 -0.0382
 7019TIP3    H242473   6.626   4.902   2.963  0.8249  0.1319 -0.9913
 7020TIP3   OH242474   3.363   3.378  15.601  0.1095 -0.3133 -0.2448
 7020TIP3    H142475   3.340   3.468  15.579  1.4654  0.2212  0.4032
 7020TIP3    H242476   3.312   3.359  15.680  0.0273 -0.0207 -0.2283
 7021TIP3   OH242477   4.148   5.217  11.071  0.4333  0.4134 -0.3063
 7021TIP3    H142478   4.057   5.242  11.086 -0.2104 -1.3941 -0.9983
 7021TIP3    H242479   4.143   5.146  11.007  2.3139 -0.0182 -0.0160
 7022TIP3   OH242480   4.132   0.029  11.554 -0.1463  0.0736 -0.1753
 7022TIP3    H142481   4.141  -0.061  11.586  1.4527  0.5717  0.9433
 7022TIP3    H242482   4.116   0.081  11.633  3.5956  1.3146 -0.0184
 7023TIP3   OH242483   1.041   1.258  10.894  0.0221  0.2716 -0.0548
 7023TIP3    H142484   1.110   1.273  10.830  0.2045  2.6354  0.6094
 7023TIP3    H242485   0.986   1.336  10.889 -1.5307 -0.7210  0.7583
 7024TIP3   OH242486   2.668   4.434   0.422  0.4841  0.6067 -0.1578
 7024TIP3    H142487   2.717   4.381   0.359  0.0076 -1.3687  1.0402
 7024TIP3    H242488   2.704   4.411   0.507 -0.6416  1.2220  0.5254
 7025TIP3   OH242489   3.954   0.060   6.190 -0.5756  0.0468 -0.4692
 7025TIP3    H142490   4.013   0.120   6.145 -0.8167  0.0824 -0.7399
 7025TIP3    H242491   4.008  -0.018   6.206 -0.0186  0.6368  0.6226
 7026TIP3   OH242492   1.249   4.408  11.549 -0.3110 -0.3110  0.2847
 7026TIP3    H142493   1.185   4.435  11.483  0.7277 -1.1896 -1.1541
 7026TIP3    H242494   1.334   4.424  11.507  0.3678 -1.4934  1.1424
 7027TIP3   OH242495   5.977   4.157  11.000 -0.4064  0.2572 -0.3243
 7027TIP3    H142496   5.972   4.247  10.968 -1.4764  0.1396 -0.5164
 7027TIP3    H242497   5.931   4.105  10.934 -1.3414 -0.1852  0.6482
 7028TIP3   OH242498   0.859   1.692   4.515  0.3187  0.1175 -0.4700
 7028TIP3    H142499   0.810   1.623   4.471  2.0156 -0.5358 -1.4122
 7028TIP3    H242500   0.890   1.651   4.596  1.8415 -0.4652 -1.3163
 7029TIP3   OH242501   1.004   0.695  12.185 -0.3203  0.4513 -0.0877
 7029TIP3    H142502   1.052   0.637  12.244  2.2912  1.2467 -1.3117
 7029TIP3    H242503   0.944   0.637  12.138 -0.5592 -0.5920  1.4188
 7030TIP3   OH242504   4.201   2.760  15.235 -0.6299  0.4923  0.3253
 7030TIP3    H142505   4.153   2.683  15.266  1.0905 -0.9203 -0.3276
 7030TIP3    H242506   4.286   2.753  15.279  0.0518  1.2173 -0.8520
 7031TIP3   OH242507   2.096   3.787   0.001  0.0942 -0.0170 -0.6797
 7031TIP3    H142508   2.080   3.878  -0.023 -0.6717 -0.6059 -2.6069
 7031TIP3    H242509   2.013   3.757   0.037 -0.9260 -0.9497 -3.5789
 7032TIP3   OH242510   1.030   5.472  15.374  0.2330  0.2172 -0.0271
 7032TIP3    H142511   0.984   5.395  15.342 -0.4932  1.1016 -1.2114
 7032TIP3    H242512   0.978   5.546  15.342  0.2609  1.2016  2.0538
 7033TIP3   OH242513   6.512   2.026   4.562  0.2829 -0.2740 -0.4735
 7033TIP3    H142514   6.471   1.981   4.635  0.6429 -0.3236 -0.3012
 7033TIP3    H242515   6.605   2.031   4.585  0.2084  0.8107 -0.3560
 7034TIP3   OH242516   3.730   4.686   1.806  0.0348  0.3478  0.4444
 7034TIP3    H142517   3.672   4.674   1.731 -1.6184 -1.9422  1.9707
 7034TIP3    H242518   3.725   4.604   1.855  1.9107  1.3305  2.4945
 7035TIP3   OH242519   1.089   2.911  11.731 -0.7888  0.3910 -0.0549
 7035TIP3    H142520   1.083   2.826  11.773  0.1167  0.4014  0.1254
 7035TIP3    H242521   1.000   2.929  11.699 -1.0085 -0.5733 -0.0207
 7036TIP3   OH242522   4.746   6.473  16.809  0.3898 -0.1184 -0.1825
 7036TIP3    H142523   4.656   6.465  16.841  0.4121 -1.0571 -0.3348
 7036TIP3    H242524   4.757   6.567  16.792  0.0185  0.2720  1.4933
 7037TIP3   OH242525   5.116   2.184   1.270 -0.1828 -0.3458 -0.1754
 7037TIP3    H142526   5.145   2.105   1.315 -0.5411 -0.8949 -0.8975
 7037TIP3    H242527   5.036   2.158   1.225 -1.4197  0.9462  1.1639
 7038TIP3   OH242528   2.422   1.275   1.025 -0.2804  0.0470  0.2096
 7038TIP3    H142529   2.460   1.290   0.939 -1.2738  0.8051 -0.1126
 7038TIP3    H242530   2.462   1.341   1.082  0.6676 -0.7020  0.4393
 7039TIP3   OH242531   5.667   2.263   3.496  0.4661  0.5202  0.5115
 7039TIP3    H142532   5.661   2.172   3.522  0.7454  0.6995  1.2381
 7039TIP3    H242533   5.606   2.272   3.423 -1.3238  0.2832  1.9013
 7040TIP3   OH242534   3.480   3.987  17.094  0.6021  0.3681 -0.1733
 7040TIP3    H142535   3.454   4.079  17.087  1.2047  0.4818 -1.0332
 7040TIP3    H242536   3.399   3.941  17.113 -0.2970  0.7027 -2.8584
 7041TIP3   OH242537   6.094   4.697  16.246  0.9279 -0.1999 -0.2186
 7041TIP3    H142538   6.163   4.682  16.181  0.7948  0.3046 -0.4849
 7041TIP3    H242539   6.098   4.792  16.263  0.0554 -0.1017 -0.5155
 7042TIP3   OH242540   1.799   3.494  16.150  0.5816  0.8065 -0.3589
 7042TIP3    H142541   1.801   3.406  16.187  1.6726  0.7336 -0.5346
 7042TIP3    H242542   1.890   3.523  16.154  0.0547  2.4102  0.7993
 7043TIP3   OH242543   3.862   5.912  13.744  0.0121 -0.0918  0.0059
 7043TIP3    H142544   3.901   5.859  13.813  0.2171  0.9402  0.7071
 7043TIP3    H242545   3.875   5.861  13.664  0.5540 -0.9057  0.5971
 7044TIP3   OH242546   3.487   6.745   6.264 -0.1036  0.0945 -1.1007
 7044TIP3    H142547   3.579   6.730   6.245  0.3825  1.0282  0.3710
 7044TIP3    H242548   3.476   6.840   6.261 -0.6668  0.0958  0.1215
 7045TIP3   OH242549   1.351   1.128  10.689 -0.6377  0.1922  0.3764
 7045TIP3    H142550   1.336   1.215  10.725 -1.5529  0.0623  0.3342
 7045TIP3    H242551   1.280   1.075  10.723 -0.4280 -0.3967 -0.0763
 7046TIP3   OH242552   2.822   5.911   3.568  0.0976 -0.4321  0.0078
 7046TIP3    H142553   2.848   5.977   3.503  0.8270  0.6568  1.3383
 7046TIP3    H242554   2.817   5.829   3.518 -0.5540  0.5549 -1.6420
 7047TIP3   OH242555   6.339   0.422  15.842  0.5593 -0.5376  0.1076
 7047TIP3    H142556   6.276   0.427  15.915 -0.5973 -0.5034 -0.8626
 7047TIP3    H242557   6.409   0.367  15.876  0.0563 -0.5024  1.2669
 7048TIP3   OH242558   3.107   0.515  12.709  0.4180  0.3205 -0.1434
 7048TIP3    H142559   3.151   0.433  12.685 -0.4874  0.3653 -2.0820
 7048TIP3    H242560   3.032   0.487  12.760  0.2737 -0.0453 -0.5510
 7049TIP3   OH242561   0.481   6.068   3.741 -0.8594  0.0358 -0.3023
 7049TIP3    H142562   0.480   5.997   3.805  0.5336 -0.6421 -1.0000
 7049TIP3    H242563   0.542   6.132   3.778 -1.0666  0.2500 -0.3291
 7050TIP3   OH242564   2.484   0.998   5.708 -0.4509 -0.4503 -0.2611
 7050TIP3    H142565   2.442   1.085   5.708 -0.6500 -0.5460  0.1625
 7050TIP3    H242566   2.437   0.949   5.775 -0.2449 -0.8459 -0.4052
 7051TIP3   OH242567   3.486   0.776   0.597  0.0227  0.3256 -0.6737
 7051TIP3    H142568   3.425   0.831   0.646 -1.7417 -0.6375 -1.6857
 7051TIP3    H242569   3.489   0.693   0.645  1.1258  0.5964 -0.2419
 7052TIP3   OH242570   3.808   4.581   4.624 -0.5781  0.0513  0.7341
 7052TIP3    H142571   3.741   4.645   4.647 -1.5895 -0.8333  0.3506
 7052TIP3    H242572   3.873   4.588   4.694 -1.3965  0.4772  1.4680
 7053TIP3   OH242573   3.004   6.306  11.776 -0.2862 -0.1632 -0.1297
 7053TIP3    H142574   3.001   6.330  11.869  0.3797 -0.7052  0.0406
 7053TIP3    H242575   2.976   6.215  11.774  1.3217 -0.6845 -0.2414
 7054TIP3   OH242576   0.285   0.732  15.427 -0.5956 -0.4345 -0.0961
 7054TIP3    H142577   0.257   0.822  15.415  0.7665  0.1862  0.9820
 7054TIP3    H242578   0.211   0.679  15.398  0.2828  0.8123 -5.7813
 7055TIP3   OH242579   6.421   2.190  16.378  0.5349 -0.7625 -0.0501
 7055TIP3    H142580   6.386   2.244  16.307  0.6294 -1.0846 -0.3528
 7055TIP3    H242581   6.391   2.231  16.458  1.4488  0.3135 -0.2413
 7056TIP3   OH242582   1.957   6.134   0.314 -0.1290 -0.8056 -0.3549
 7056TIP3    H142583   1.948   6.127   0.409 -2.3375  0.2519 -0.4106
 7056TIP3    H242584   2.018   6.064   0.290 -0.7928 -2.1708  1.6646
 7057TIP3   OH242585   6.429   4.709  16.308  0.4236  0.4703 -0.5269
 7057TIP3    H142586   6.384   4.766  16.371  0.8006  2.2303 -1.7903
 7057TIP3    H242587   6.520   4.737  16.310  1.4254 -2.4160  1.2814
 7058TIP3   OH242588   1.664   3.836   1.188 -0.6219 -0.1487  0.8391
 7058TIP3    H142589   1.635   3.746   1.204  0.0527 -0.6692 -0.7091
 7058TIP3    H242590   1.583   3.887   1.190 -1.3474 -1.1728 -0.6885
 7059TIP3   OH242591   5.480   2.501  11.899 -0.4984  0.2929  0.0295
 7059TIP3    H142592   5.459   2.589  11.930  0.1027  0.4563 -0.0321
 7059TIP3    H242593   5.519   2.514  11.813  0.8597  0.0773  0.5923
 7060TIP3   OH242594   1.015   2.095  12.667 -0.3738 -0.1292  0.6546
 7060TIP3    H142595   1.027   2.016  12.719 -0.0791 -0.6236 -0.1353
 7060TIP3    H242596   0.924   2.091  12.637 -0.6650  0.3654  1.4582
 7061TIP3   OH242597   3.648   5.632  13.325 -0.1985  0.4091  0.0969
 7061TIP3    H142598   3.554   5.613  13.331 -0.0062 -1.5655 -1.6229
 7061TIP3    H242599   3.660   5.662  13.235  0.7448  1.1450  0.4630
 7062TIP3   OH242600   3.604   3.112   2.360  0.0621  0.2117  0.3181
 7062TIP3    H142601   3.643   3.162   2.432 -1.2639  0.8410  0.6199
 7062TIP3    H242602   3.534   3.061   2.401 -0.0395 -0.1982 -0.3561
 7063TIP3   OH242603   1.757   0.576   5.837  0.3577  0.1644 -0.3637
 7063TIP3    H142604   1.842   0.614   5.857 -0.1190  1.1723 -0.1755
 7063TIP3    H242605   1.704   0.650   5.808 -0.4560 -0.4434 -0.4600
 7064TIP3   OH242606   5.306   3.958  12.729 -0.0709  0.0612  0.1013
 7064TIP3    H142607   5.257   3.923  12.803 -2.2053 -1.3740 -1.8615
 7064TIP3    H242608   5.379   4.006  12.769 -0.9913 -0.8197  3.0809
 7065TIP3   OH242609   2.251   4.445  15.632  0.1649 -0.1737 -0.5251
 7065TIP3    H142610   2.213   4.509  15.693  2.1141  0.2772  0.2891
 7065TIP3    H242611   2.223   4.476  15.546 -0.2168  0.8705 -0.0485
 7066TIP3   OH242612   3.295   3.053   0.757 -0.7457 -0.1848  0.2502
 7066TIP3    H142613   3.311   3.128   0.699  0.5321 -0.3334  0.3687
 7066TIP3    H242614   3.262   3.091   0.838  1.5457  0.4669  0.9495
 7067TIP3   OH242615   3.748   6.106  15.281  0.0795 -0.2383 -0.6542
 7067TIP3    H142616   3.659   6.089  15.312 -0.3231  1.1079 -1.0007
 7067TIP3    H242617   3.803   6.046  15.331 -1.3268 -3.8465 -3.0375
 7068TIP3   OH242618   2.728   2.402  12.418 -0.7665  0.5972 -0.2958
 7068TIP3    H142619   2.705   2.475  12.361 -2.7317  0.1215 -0.1721
 7068TIP3    H242620   2.647   2.380  12.464  0.5441  0.3876  2.0682
 7069TIP3   OH242621   4.287   5.774  12.954  0.1878 -0.3253  0.1537
 7069TIP3    H142622   4.209   5.793  13.006 -0.1758  0.5820 -0.6981
 7069TIP3    H242623   4.360   5.802  13.009 -0.0352 -1.6154  1.1496
 7070TIP3   OH242624   6.126   1.347   2.594  0.0669 -0.1261 -0.0973
 7070TIP3    H142625   6.116   1.359   2.688  0.2363 -0.0941 -0.0838
 7070TIP3    H242626   6.107   1.433   2.557  1.0841  0.1395 -0.0142
 7071TIP3   OH242627   4.032   6.253   5.590 -0.0835  0.4012 -0.0457
 7071TIP3    H142628   4.076   6.202   5.522  0.1919  1.0025 -0.3208
 7071TIP3    H242629   3.941   6.222   5.588 -0.3839  1.2789 -1.5486
 7072TIP3   OH242630   0.740   5.709  13.317  0.0902 -0.4836 -0.1984
 7072TIP3    H142631   0.665   5.667  13.276 -0.2443  0.0417 -0.1239
 7072TIP3    H242632   0.805   5.639  13.325 -0.1898 -0.8078 -0.7534
 7073TIP3   OH242633   5.407   1.974   0.695  0.7237 -0.4696 -0.1973
 7073TIP3    H142634   5.378   1.886   0.669  0.2835  0.2497 -2.4030
 7073TIP3    H242635   5.427   2.017   0.612  4.1977  0.4521  0.9555
 7074TIP3   OH242636   4.466   5.926   1.539 -0.6938 -0.3724  0.3040
 7074TIP3    H142637   4.522   5.980   1.483 -0.8904  0.1847  0.6426
 7074TIP3    H242638   4.442   5.851   1.484 -0.2275 -0.2389 -0.0881
 7075TIP3   OH242639   2.993   0.500   0.653 -0.4547 -0.4503 -0.0778
 7075TIP3    H142640   3.077   0.537   0.625 -0.0981  1.1287  2.7085
 7075TIP3    H242641   2.929   0.536   0.592  0.7298 -0.9182 -1.6768
 7076TIP3   OH242642   0.725   2.186   3.683 -0.7415 -0.0179  0.2515
 7076TIP3    H142643   0.746   2.278   3.702  0.9205 -0.0046 -1.3585
 7076TIP3    H242644   0.757   2.138   3.760  0.7276  0.5315  0.0179
 7077TIP3   OH242645   5.166   4.315   0.309 -0.0814  0.1456  0.2409
 7077TIP3    H142646   5.133   4.322   0.220 -1.7638 -1.0131  0.7156
 7077TIP3    H242647   5.211   4.231   0.312  0.3905  0.3991  0.3644
 7078TIP3   OH242648   4.800   5.407  13.866 -0.7891  0.0920 -0.0562
 7078TIP3    H142649   4.829   5.329  13.913 -0.8922 -1.0606 -1.8235
 7078TIP3    H242650   4.844   5.480  13.911  0.4339 -1.0950  0.7418
 7079TIP3   OH242651   2.913   3.374  12.990  0.3536 -0.2266 -0.0458
 7079TIP3    H142652   2.857   3.404  13.062  0.3098 -0.7953  0.1590
 7079TIP3    H242653   2.853   3.333  12.928  0.7498 -2.8531  1.2006
 7080TIP3   OH242654   1.643   0.333   4.950 -0.1046  0.3190 -0.1319
 7080TIP3    H142655   1.571   0.339   5.013 -1.1408  0.9432 -1.3290
 7080TIP3    H242656   1.654   0.239   4.936  0.1228  0.1701  0.9221
 7081TIP3   OH242657   5.848   2.296  12.029 -0.1814  0.0202 -0.2113
 7081TIP3    H142658   5.839   2.234  11.956  2.6632 -0.0641 -0.6144
 7081TIP3    H242659   5.858   2.240  12.106 -2.4735  0.1040  0.2009
 7082TIP3   OH242660   6.488   6.515   3.529  0.0307 -0.0483  0.1778
 7082TIP3    H142661   6.437   6.558   3.597 -0.3356 -1.6839  1.0037
 7082TIP3    H242662   6.441   6.533   3.448  0.3083  1.6782  0.3733
 7083TIP3   OH242663   1.453   1.617   3.662 -0.7399  0.1797 -0.5280
 7083TIP3    H142664   1.456   1.709   3.634  3.1665  0.4466  0.1570
 7083TIP3    H242665   1.455   1.567   3.581  0.0660  0.7778 -0.8905
 7084TIP3   OH242666   6.435   2.552  14.021  0.2231  0.5864  0.2634
 7084TIP3    H142667   6.505   2.615  14.004  2.8225 -1.6418  1.9125
 7084TIP3    H242668   6.390   2.542  13.937  1.5451  2.4487 -0.7339
 7085TIP3   OH242669   1.212   3.882  15.552  0.3098 -0.4683 -0.6502
 7085TIP3    H142670   1.144   3.916  15.493 -1.2308 -2.3398 -0.0596
 7085TIP3    H242671   1.283   3.945  15.545 -0.6001  0.4136 -2.9962
 7086TIP3   OH242672   1.377   6.070   6.372 -0.1253 -0.2523 -0.0729
 7086TIP3    H142673   1.455   6.061   6.428 -0.0288 -1.5534 -0.3855
 7086TIP3    H242674   1.333   5.985   6.378 -0.3393 -0.2868 -1.6249
 7087TIP3   OH242675   6.341   6.261   3.426 -0.0445 -0.1144 -0.4324
 7087TIP3    H142676   6.360   6.210   3.347 -0.2556 -1.6834  0.4787
 7087TIP3    H242677   6.343   6.352   3.397 -0.0720 -0.6415 -2.2356
 7088TIP3   OH242678   0.264   5.256  16.415  0.1113  0.5579  0.8788
 7088TIP3    H142679   0.211   5.186  16.453  0.2544  0.0806  0.2368
 7088TIP3    H242680   0.212   5.289  16.341  0.6355  0.1707  0.3246
 7089TIP3   OH242681   5.086   6.023   1.227  0.1535  0.2666 -0.2710
 7089TIP3    H142682   5.009   6.033   1.283  1.8548  1.7716  1.9975
 7089TIP3    H242683   5.122   6.111   1.220  1.6780 -0.3963 -1.2409
 7090TIP3   OH242684   6.448   2.126   2.862 -0.6642 -0.2431 -0.3716
 7090TIP3    H142685   6.413   2.115   2.950 -2.4170  1.2801 -0.8239
 7090TIP3    H242686   6.497   2.208   2.865  2.0180 -1.7556 -0.0646
 7091TIP3   OH242687   3.726   0.008   3.883 -0.1214 -0.0189  0.0389
 7091TIP3    H142688   3.686   0.092   3.906  1.8439  1.1575 -0.6119
 7091TIP3    H242689   3.800  -0.002   3.944  1.1098 -0.0784 -1.3976
 7092TIP3   OH242690   4.826   6.679  15.529 -0.2557  0.2737 -0.3004
 7092TIP3    H142691   4.772   6.641  15.599  1.8653 -1.6531  0.4254
 7092TIP3    H242692   4.795   6.636  15.449  0.0718 -0.7339  0.0926
 7093TIP3   OH242693   2.819   4.811  15.342 -0.4636 -1.0788 -0.4601
 7093TIP3    H142694   2.770   4.888  15.369 -1.2386 -1.3202 -1.1134
 7093TIP3    H242695   2.824   4.757  15.420  1.3654  0.2538  0.4004
 7094TIP3   OH242696   6.277   6.552   0.301  0.4094  0.2519 -0.0039
 7094TIP3    H142697   6.306   6.630   0.347 -1.7276  1.5552 -0.7424
 7094TIP3    H242698   6.224   6.504   0.364 -1.8199  1.6174 -0.7252
 7095TIP3   OH242699   3.438   3.345   2.108 -0.4771  0.5719  0.0600
 7095TIP3    H142700   3.413   3.252   2.101 -2.5919  1.2057 -2.2676
 7095TIP3    H242701   3.529   3.347   2.079 -0.9463 -0.6242 -1.6915
 7096TIP3   OH242702   3.895   6.640   3.677 -0.2502 -0.1184 -0.1106
 7096TIP3    H142703   3.897   6.545   3.688 -0.7533 -0.3473 -1.6496
 7096TIP3    H242704   3.819   6.668   3.728  0.1064 -0.4907  0.6385
 7097TIP3   OH242705   4.292   5.367  16.618  0.6964  0.2150  0.0627
 7097TIP3    H142706   4.200   5.391  16.604  1.0370  1.0111 -0.8902
 7097TIP3    H242707   4.330   5.442  16.662  1.0419  0.1477 -0.1215
 7098TIP3   OH242708   2.989   5.111   0.788  0.5343 -0.0617  0.4030
 7098TIP3    H142709   2.914   5.164   0.765 -0.5799 -2.1486 -1.1305
 7098TIP3    H242710   3.013   5.139   0.876 -2.4975  0.1757  1.2357
 7099TIP3   OH242711   3.320   3.674   4.355 -0.2958  0.1848  0.6731
 7099TIP3    H142712   3.272   3.743   4.400 -0.7378  1.0949 -1.1284
 7099TIP3    H242713   3.292   3.593   4.399 -1.0525  0.9774  1.6986
 7100TIP3   OH242714   0.551   2.708   5.846 -0.1139 -0.2993  0.3238
 7100TIP3    H142715   0.541   2.670   5.759 -0.0762  0.6543 -0.1103
 7100TIP3    H242716   0.470   2.686   5.891 -1.0981  1.0638 -0.7030
 7101TIP3   OH242717   5.822   6.730   5.288  0.5708 -0.6046  0.0887
 7101TIP3    H142718   5.781   6.816   5.282  0.8272 -0.3303  1.7968
 7101TIP3    H242719   5.753   6.669   5.259  0.1157  0.1045 -0.3503
 7102TIP3   OH242720   1.203   4.247   2.650 -0.2823 -0.2934  0.3224
 7102TIP3    H142721   1.250   4.291   2.720 -0.0553  1.0343 -0.6096
 7102TIP3    H242722   1.186   4.158   2.683 -0.9544  0.5349  2.3761
 7103TIP3   OH242723   6.522   1.314  11.729 -0.1503 -0.2360  0.1502
 7103TIP3    H142724   6.436   1.354  11.714 -1.7643 -3.2915  0.5681
 7103TIP3    H242725   6.561   1.309  11.642 -0.4949  0.8708 -0.0924
 7104TIP3   OH242726   5.549   1.902  16.473  0.2872  0.2255 -0.0353
 7104TIP3    H142727   5.468   1.872  16.514  0.5879 -2.6740 -1.3025
 7104TIP3    H242728   5.610   1.917  16.545 -0.4549 -0.6133  0.7761
 7105TIP3   OH242729   6.570   2.599   3.203 -0.1339 -0.4034  0.5898
 7105TIP3    H142730   6.654   2.622   3.243  0.0866  0.8887 -0.5349
 7105TIP3    H242731   6.517   2.678   3.212 -1.0416 -1.0247  0.7949
 7106TIP3   OH242732   6.016   1.052   2.900 -0.1320  0.8643 -0.1048
 7106TIP3    H142733   5.946   1.015   2.954 -1.9040  1.5385 -1.8018
 7106TIP3    H242734   6.056   0.977   2.857 -1.0633  0.5694 -0.4941
 7107TIP3   OH242735   1.168   0.551  11.049  0.5531 -0.4079 -0.2158
 7107TIP3    H142736   1.101   0.534  11.115 -0.4277  2.4393 -0.3516
 7107TIP3    H242737   1.125   0.534  10.965  0.7789 -0.8835 -0.2399
 7108TIP3   OH242738   4.673   5.075   2.696 -0.5939 -0.4648  0.1398
 7108TIP3    H142739   4.704   5.133   2.766 -1.7171 -0.8889  1.0370
 7108TIP3    H242740   4.631   5.133   2.633  3.8881  0.4664 -2.3957
 7109TIP3   OH242741   3.359   1.529  11.926 -0.2398 -0.4417  0.5725
 7109TIP3    H142742   3.298   1.454  11.928 -1.8154  0.7840  0.7240
 7109TIP3    H242743   3.303   1.604  11.909  1.5381  0.5067 -1.5657
 7110TIP3   OH242744   5.038   1.006  11.707 -0.3447 -0.0866  0.1526
 7110TIP3    H142745   4.967   0.964  11.756 -0.5333  1.0835  0.9315
 7110TIP3    H242746   5.021   0.983  11.616 -0.3920 -1.7355  0.5343
 7111TIP3   OH242747   0.915   3.642  12.335  0.2388 -0.3111 -0.5174
 7111TIP3    H142748   0.861   3.580  12.385 -0.2408 -1.3864 -2.2677
 7111TIP3    H242749   0.970   3.684  12.401 -0.0808 -1.9369  0.8738
 7112TIP3   OH242750   2.908   1.559  11.195 -0.4193 -0.0947  0.2663
 7112TIP3    H142751   2.878   1.487  11.139  2.3654 -0.8762 -0.3767
 7112TIP3    H242752   3.001   1.542  11.208  0.1900  3.0058  0.7318
 7113TIP3   OH242753   2.448   0.692  16.690  0.3815  0.0843 -0.3890
 7113TIP3    H142754   2.444   0.742  16.609 -1.5206 -0.1728 -0.4931
 7113TIP3    H242755   2.507   0.619  16.670 -0.1204 -0.0174 -1.5730
 7114TIP3   OH242756   2.173   0.668   4.198  0.1352  0.0999  0.3183
 7114TIP3    H142757   2.232   0.703   4.131 -1.0902 -0.0960 -0.9051
 7114TIP3    H242758   2.230   0.649   4.273  1.8353 -1.2735 -1.2299
 7115TIP3   OH242759   3.249   0.125   1.037  0.3071  0.2614 -0.0878
 7115TIP3    H142760   3.317   0.191   1.026  3.7535 -2.8933 -0.0673
 7115TIP3    H242761   3.225   0.100   0.948  2.1216 -1.1481 -0.2591
 7116TIP3   OH242762   3.035   2.870  14.808  0.0023  0.2021 -0.0743
 7116TIP3    H142763   3.069   2.834  14.726 -0.2695  1.1497 -0.6153
 7116TIP3    H242764   3.041   2.797  14.870  1.3789 -0.1650 -0.5956
 7117TIP3   OH242765   1.471   6.564  11.181  0.2258 -0.2480  0.0793
 7117TIP3    H142766   1.526   6.502  11.135  0.4822 -1.2111  1.6016
 7117TIP3    H242767   1.510   6.650  11.164 -0.4521 -0.3796 -2.5037
 7118TIP3   OH242768   4.262   6.519   5.498 -0.0816 -0.0538 -0.5388
 7118TIP3    H142769   4.205   6.595   5.489 -0.6509 -0.5928 -1.6329
 7118TIP3    H242770   4.317   6.521   5.420  1.0163  0.1294  0.2162
 7119TIP3   OH242771   3.205   0.373  14.351 -0.0685 -0.0595  0.2478
 7119TIP3    H142772   3.208   0.463  14.384  0.0451  0.1622 -0.3679
 7119TIP3    H242773   3.117   0.343  14.375 -1.2745  1.2392 -2.1752
 7120TIP3   OH242774   4.838   2.526  16.383  0.2287 -0.0721 -0.0943
 7120TIP3    H142775   4.812   2.444  16.424 -1.5092  0.3213 -0.3649
 7120TIP3    H242776   4.885   2.499  16.304 -0.2232 -0.7913 -0.1262
 7121TIP3   OH242777   5.378   2.340  17.174 -0.3553 -0.5077  0.1891
 7121TIP3    H142778   5.355   2.420  17.128 -2.3635 -0.8945  0.4406
 7121TIP3    H242779   5.423   2.370  17.253 -0.3443  0.3285 -0.1282
 7122TIP3   OH242780   2.511   4.572  15.825  0.0773  0.0489 -0.3536
 7122TIP3    H142781   2.542   4.558  15.736  0.0675 -2.4219 -0.0421
 7122TIP3    H242782   2.416   4.584  15.816  0.0321 -0.5198 -0.6624
 7123TIP3   OH242783   2.255   4.796   4.568 -0.1625  0.4600 -0.3614
 7123TIP3    H142784   2.300   4.869   4.527 -0.0233  1.1240  0.9152
 7123TIP3    H242785   2.170   4.792   4.524  0.7586 -0.2449 -2.1780
 7124TIP3   OH242786   4.778   4.270   5.971  0.1915 -0.0348 -0.6926
 7124TIP3    H142787   4.686   4.254   5.951  0.3066 -0.5029 -0.8698
 7124TIP3    H242788   4.785   4.365   5.978 -0.1801  0.0442 -1.3041
 7125TIP3   OH242789   4.692   0.827   4.867 -0.2296 -0.0361 -0.0107
 7125TIP3    H142790   4.773   0.796   4.908 -0.7444 -0.9315  0.3611
 7125TIP3    H242791   4.717   0.909   4.823  0.8880 -0.3443  0.0194
 7126TIP3   OH242792   1.551   6.310   1.185 -0.1812 -0.1683 -0.1954
 7126TIP3    H142793   1.496   6.235   1.209 -0.7275 -0.5228 -2.3223
 7126TIP3    H242794   1.634   6.294   1.231 -0.8783 -1.1280  0.7978
 7127TIP3   OH242795   0.527   0.878  13.971 -0.1378  0.5251  0.1215
 7127TIP3    H142796   0.540   0.970  13.951  1.4277  0.4575  0.6832
 7127TIP3    H242797   0.506   0.877  14.065  0.9436  0.2443  0.3691
 7128TIP3   OH242798   1.076   0.792  15.814 -0.0337  0.1355 -0.2884
 7128TIP3    H142799   1.104   0.701  15.802 -1.2505 -0.2599 -0.2535
 7128TIP3    H242800   1.050   0.797  15.906  0.8792  0.7856 -0.0438
 7129TIP3   OH242801   4.719   4.144  12.931  0.3729  0.4373 -0.3478
 7129TIP3    H142802   4.671   4.212  12.885  0.6054 -0.3016 -1.7639
 7129TIP3    H242803   4.722   4.172  13.022  0.2008  2.1475 -0.8479
 7130TIP3   OH242804   3.089   0.247   4.332  0.2472 -0.3780 -0.8756
 7130TIP3    H142805   3.171   0.202   4.310  0.3906 -1.9310  2.3640
 7130TIP3    H242806   3.111   0.300   4.409 -1.5441  0.0173 -0.6030
 7131TIP3   OH242807   3.044   5.732  15.090 -0.0280 -0.7653 -0.0779
 7131TIP3    H142808   3.030   5.809  15.035 -1.2215 -2.0706 -1.6849
 7131TIP3    H242809   3.058   5.768  15.178 -0.4359  1.2810 -0.7969
 7132TIP3   OH242810   5.308   5.895   3.302  0.5952 -0.3187 -0.0272
 7132TIP3    H142811   5.375   5.894   3.234  1.1061 -1.6155  0.4632
 7132TIP3    H242812   5.226   5.910   3.255  1.1623  0.8827 -0.6837
 7133TIP3   OH242813   0.351   3.390  11.595 -0.1696  0.4309  0.5915
 7133TIP3    H142814   0.386   3.422  11.678 -0.6111 -0.0845  0.9852
 7133TIP3    H242815   0.278   3.449  11.576 -0.8068 -0.1528  1.1746
 7134TIP3   OH242816   2.667   2.577  15.411 -0.4790  0.2693  0.1078
 7134TIP3    H142817   2.711   2.513  15.356 -2.3353 -0.3705 -0.6746
 7134TIP3    H242818   2.679   2.544  15.500  2.5255  1.3042  0.2120
 7135TIP3   OH242819   0.223   5.319  13.267  0.4283 -0.1289 -0.4661
 7135TIP3    H142820   0.226   5.323  13.171 -0.5678 -0.1615 -0.5167
 7135TIP3    H242821   0.314   5.319  13.294  0.7876 -1.7636 -1.4977
 7136TIP3   OH242822   5.637   6.365   4.164 -0.3926  0.0008 -0.8473
 7136TIP3    H142823   5.673   6.439   4.114 -0.0348 -0.1251 -0.7773
 7136TIP3    H242824   5.699   6.294   4.149  0.0167  0.1127  0.2270
 7137TIP3   OH242825   4.128   3.833  16.099 -0.4200  0.6274  0.6448
 7137TIP3    H142826   4.057   3.892  16.074 -1.0778 -0.1855  0.5506
 7137TIP3    H242827   4.167   3.807  16.016 -2.0883 -1.4335  0.4037
 7138TIP3   OH242828   3.887   5.215   4.776 -0.2476 -0.0932  0.5661
 7138TIP3    H142829   3.955   5.261   4.728 -0.0250 -0.5480  0.4391
 7138TIP3    H242830   3.898   5.123   4.751 -2.8081  0.1200 -1.8545
 7139TIP3   OH242831   0.681   4.235   1.411  0.2996 -0.2634  0.0904
 7139TIP3    H142832   0.697   4.279   1.494  0.8618 -1.7296  0.7933
 7139TIP3    H242833   0.604   4.279   1.375 -0.2631  0.0572  1.6180
 7140TIP3   OH242834   4.842   5.789   1.477 -0.0797  0.1301  0.2628
 7140TIP3    H142835   4.772   5.798   1.542 -0.7978 -2.4662 -0.0147
 7140TIP3    H242836   4.799   5.751   1.400  1.3137  0.2553 -0.6181
 7141TIP3   OH242837   0.985   2.065   4.404  0.5313 -0.2396 -0.3576
 7141TIP3    H142838   0.924   2.020   4.463  1.1406 -0.8757 -0.2004
 7141TIP3    H242839   0.990   2.154   4.439 -0.3454 -0.1607 -0.4077
 7142TIP3   OH242840   5.939   2.957   2.954 -0.2598 -0.0819 -0.1723
 7142TIP3    H142841   5.945   3.042   2.910 -1.5349 -0.1661 -0.5581
 7142TIP3    H242842   6.025   2.917   2.943  0.0620  0.7630 -0.8016
 7143TIP3   OH242843   2.684   4.110   2.976  0.0936  0.1400  0.0113
 7143TIP3    H142844   2.691   4.182   3.039 -1.2354  0.3076 -0.0129
 7143TIP3    H242845   2.647   4.038   3.026 -1.9517  0.5842 -0.7785
 7144TIP3   OH242846   2.383   2.626  15.442 -0.4502  0.6747 -0.4625
 7144TIP3    H142847   2.370   2.711  15.484  0.8608  0.6095  0.1348
 7144TIP3    H242848   2.476   2.624  15.421 -0.6788 -0.1754 -1.4706
 7145TIP3   OH242849   0.100   1.014   3.057  0.2301 -0.1234  0.1935
 7145TIP3    H142850   0.123   1.033   3.147  1.7671  0.6246 -0.3302
 7145TIP3    H242851   0.064   0.925   3.060  2.0787 -0.8792  1.2653
 7146TIP3   OH242852   2.290   1.005   1.084 -0.2743 -0.1889 -0.2737
 7146TIP3    H142853   2.313   1.098   1.084 -2.3699  0.4148 -2.4358
 7146TIP3    H242854   2.346   0.966   1.017 -0.2930 -0.2330 -0.2636
 7147TIP3   OH242855   0.063   1.399   0.475 -0.2610  0.4112 -0.4021
 7147TIP3    H142856   0.096   1.313   0.504  1.3304  0.4379 -1.9700
 7147TIP3    H242857   0.090   1.459   0.545  1.9795  0.2023 -0.9974
 7148TIP3   OH242858   5.618   4.789  13.720  0.1829  0.4840 -0.0400
 7148TIP3    H142859   5.657   4.830  13.797 -0.8388  0.1407  0.6910
 7148TIP3    H242860   5.644   4.697  13.725 -0.0644  0.4157  0.0265
 7149TIP3   OH242861   6.073   0.749   6.521 -0.4441 -0.2686 -0.4385
 7149TIP3    H142862   6.083   0.800   6.601  1.9094 -0.6640 -0.4179
 7149TIP3    H242863   6.068   0.814   6.451  1.0039  0.0636 -0.2654
 7150TIP3   OH242864   5.431   4.465   0.255 -0.2141  0.3470 -0.0884
 7150TIP3    H142865   5.398   4.507   0.335  1.1282  1.0388  0.1273
 7150TIP3    H242866   5.477   4.387   0.287 -0.3942  0.1698 -0.2619
 7151TIP3   OH242867   1.374   3.931   1.157  0.1285 -0.2799  0.1424
 7151TIP3    H142868   1.292   3.930   1.206  0.2903  0.4629  0.4338
 7151TIP3    H242869   1.346   3.940   1.065 -0.1151  0.0188  0.2426
 7152TIP3   OH242870   0.277   0.779  16.732  0.3992  0.1827  0.0203
 7152TIP3    H142871   0.236   0.742  16.810  0.1045 -1.6076 -0.9319
 7152TIP3    H242872   0.229   0.861  16.716 -1.1464 -0.6072  0.3828
 7153TIP3   OH242873   6.310   6.035  10.587  0.1345  0.6432 -0.7259
 7153TIP3    H142874   6.226   6.079  10.578  0.7376  2.1249  0.3324
 7153TIP3    H242875   6.301   5.984  10.668  0.5493  1.6111 -0.0457
 7154TIP3   OH242876   0.537   4.306   1.809  0.1019  0.2334  0.3357
 7154TIP3    H142877   0.497   4.244   1.748  0.4682 -0.0600  0.3851
 7154TIP3    H242878   0.631   4.298   1.793  0.1005  1.9475 -0.7750
 7155TIP3   OH242879   1.664   3.175   2.524 -0.6241  0.0150  0.3543
 7155TIP3    H142880   1.627   3.098   2.480  2.2008 -1.1359 -0.2223
 7155TIP3    H242881   1.741   3.141   2.570  0.7877  2.5368 -0.0086
 7156TIP3   OH242882   4.765   1.235   3.495 -0.3782 -0.1144  0.7135
 7156TIP3    H142883   4.860   1.231   3.483 -0.3467  0.5015  0.7053
 7156TIP3    H242884   4.729   1.185   3.422 -0.0012 -2.9056  2.3237
 7157TIP3   OH242885   3.091   2.686   5.735  0.2890 -0.1119 -0.1810
 7157TIP3    H142886   3.026   2.616   5.733  0.3478 -0.1659 -0.2652
 7157TIP3    H242887   3.120   2.694   5.643 -0.0227  0.3110 -0.2441
 7158TIP3   OH242888   2.432   4.415  16.283  0.0912  0.2729  0.0832
 7158TIP3    H142889   2.473   4.461  16.356  0.9450 -1.3584  0.6829
 7158TIP3    H242890   2.373   4.479  16.245  0.6259  1.5950  1.3734
 7159TIP3   OH242891   0.443   2.858   1.807  0.3660  0.4473  0.3619
 7159TIP3    H142892   0.361   2.865   1.759  0.6246  1.2926  0.0270
 7159TIP3    H242893   0.455   2.944   1.848  0.7969  0.1476  0.8848
 7160TIP3   OH242894   6.662   6.585  12.646  0.0395 -0.2269  0.4215
 7160TIP3    H142895   6.691   6.589  12.737  0.1709  0.3510  0.3563
 7160TIP3    H242896   6.629   6.673  12.627 -2.1670 -0.9550  0.6209
 7161TIP3   OH242897   1.554   4.152  13.416  0.5627  0.4289 -0.0279
 7161TIP3    H142898   1.530   4.165  13.507 -1.3620 -1.2460 -0.2325
 7161TIP3    H242899   1.558   4.240  13.379  0.7606  1.0932  1.4979
 7162TIP3   OH242900   3.337   1.324  13.953  0.0960 -0.4376 -0.3251
 7162TIP3    H142901   3.367   1.400  13.904  0.3586 -0.2417  0.1362
 7162TIP3    H242902   3.243   1.340  13.966  0.2802  0.1262  0.3384
 7163TIP3   OH242903   4.067   4.695  12.474 -0.2193 -0.0014 -0.0910
 7163TIP3    H142904   4.055   4.687  12.379  1.0461  0.0825 -0.2725
 7163TIP3    H242905   4.005   4.633  12.511 -0.6077 -0.1686 -0.9825
 7164TIP3   OH242906   0.078   1.286   3.076 -0.1299 -0.0666 -0.4056
 7164TIP3    H142907   0.161   1.295   3.122 -1.3657  2.9056  1.5595
 7164TIP3    H242908   0.082   1.199   3.035  2.8014 -1.1251  1.8029
 7165TIP3   OH242909   5.718   0.701   4.098 -0.3879  0.3412 -0.3564
 7165TIP3    H142910   5.751   0.657   4.019  0.6417  1.7298 -0.7331
 7165TIP3    H242911   5.675   0.779   4.066 -1.9223 -0.1927  0.3386
 7166TIP3   OH242912   4.076   3.920  17.083 -0.4274 -0.7104 -0.1065
 7166TIP3    H142913   4.121   3.994  17.042 -1.5747 -0.2992 -0.6888
 7166TIP3    H242914   4.127   3.902  17.162  0.0047  0.5759 -0.0627
 7167TIP3   OH242915   6.151   2.698  12.248 -0.6544  0.2123 -0.0203
 7167TIP3    H142916   6.074   2.753  12.231 -0.5138  0.1609 -0.9113
 7167TIP3    H242917   6.118   2.622  12.295 -1.4787 -0.6634 -1.8943
 7168TIP3   OH242918   5.202   3.402   0.527 -0.3496 -0.2044  0.4348
 7168TIP3    H142919   5.139   3.365   0.466  1.3507 -1.4475 -0.6632
 7168TIP3    H242920   5.208   3.494   0.502 -0.6588 -0.4031 -0.4015
 7169TIP3   OH242921   4.548   4.300  14.081  0.3299  0.0818  0.3929
 7169TIP3    H142922   4.501   4.331  14.004  0.4490  0.7886  0.6012
 7169TIP3    H242923   4.637   4.330  14.069  0.2101  0.7567  1.1067
 7170TIP3   OH242924   6.333   3.766  14.865  0.3722 -0.4332 -0.0973
 7170TIP3    H142925   6.260   3.767  14.927  1.5491 -2.6876  1.4577
 7170TIP3    H242926   6.409   3.791  14.918  1.1352 -0.5796 -1.0948
 7171TIP3   OH242927   4.111   5.462  15.959  0.4370  0.0527 -0.3852
 7171TIP3    H142928   4.064   5.538  15.994  2.3168  1.4233 -0.6590
 7171TIP3    H242929   4.175   5.440  16.027  1.6382  0.3836 -1.3756
 7172TIP3   OH242930   3.336   4.711  12.070  0.4102  0.3119  1.3057
 7172TIP3    H142931   3.360   4.802  12.051  0.2887  0.0898 -0.0100
 7172TIP3    H242932   3.350   4.665  11.987 -0.5967 -0.6411  1.6445
 7173TIP3   OH242933   2.491   2.490  16.512 -0.1822 -0.3079  0.2987
 7173TIP3    H142934   2.445   2.574  16.516 -2.0813 -1.3060  1.0852
 7173TIP3    H242935   2.421   2.425  16.521  1.2813 -1.9618  0.1266
 7174TIP3   OH242936   1.142   0.852  11.498 -0.1175  0.2493  0.1534
 7174TIP3    H142937   1.206   0.861  11.568  0.8630 -0.2015 -0.6607
 7174TIP3    H242938   1.148   0.761  11.470 -1.2965  0.1309  0.2090
 7175TIP3   OH242939   4.183   0.065   3.290  0.6810 -0.3971  0.1138
 7175TIP3    H142940   4.100   0.109   3.267  0.1605 -0.8414  1.0629
 7175TIP3    H242941   4.172   0.042   3.383  1.4467 -1.4231 -0.0433
 7176TIP3   OH242942   1.032   2.978   1.190 -0.1908  0.2478  0.2063
 7176TIP3    H142943   1.120   3.011   1.211  1.0234 -2.3787 -0.4629
 7176TIP3    H242944   1.047   2.904   1.132 -2.9311  0.1352 -0.4807
 7177TIP3   OH242945   4.905   4.771  15.857 -0.5929 -0.0315 -0.4223
 7177TIP3    H142946   4.980   4.785  15.799 -0.2691  0.5360  0.1132
 7177TIP3    H242947   4.920   4.831  15.930 -0.7705 -1.0230  0.4611
 7178TIP3   OH242948   0.923   5.961   1.751 -0.0129  0.1105 -0.5637
 7178TIP3    H142949   0.998   5.902   1.742 -0.9795 -0.9231 -2.1482
 7178TIP3    H242950   0.913   6.001   1.665 -0.5471  1.1906 -0.0251
 7179TIP3   OH242951   3.500   2.383   3.583 -0.2372 -0.1380 -0.5509
 7179TIP3    H142952   3.510   2.383   3.679 -0.3091  1.2993 -0.5308
 7179TIP3    H242953   3.578   2.427   3.551 -0.1608 -0.7121 -1.1739
 7180TIP3   OH242954   2.464   1.886   4.985 -0.0471  0.3898  0.2692
 7180TIP3    H142955   2.453   1.816   5.050  3.2773 -0.1050  0.4979
 7180TIP3    H242956   2.418   1.855   4.908  0.3324 -1.5451  0.7676
 7181TIP3   OH242957   3.790   2.940   2.277 -0.9640 -0.0049 -0.3200
 7181TIP3    H142958   3.767   3.009   2.340  0.1293  0.9330 -0.9271
 7181TIP3    H242959   3.725   2.872   2.293 -0.5702  0.0789  2.0217
 7182TIP3   OH242960   3.147   1.032   5.710 -0.1869 -0.3219  0.2781
 7182TIP3    H142961   3.076   1.088   5.679 -1.1755 -0.2620  2.5305
 7182TIP3    H242962   3.115   0.943   5.696  0.1739 -0.3390 -0.5569
 7183TIP3   OH242963   4.046   4.043   5.420  0.2890 -0.4176  0.4033
 7183TIP3    H142964   4.137   4.048   5.390  0.7559  2.7287  1.9750
 7183TIP3    H242965   4.054   4.026   5.514 -0.8156 -1.2468  0.3582
 7184TIP3   OH242966   3.986   3.384  11.371  0.6341  0.4992 -0.1642
 7184TIP3    H142967   4.046   3.431  11.314  1.1397 -0.4466 -0.4352
 7184TIP3    H242968   3.984   3.434  11.452  0.7518  1.2599 -0.6281
 7185TIP3   OH242969   2.248   1.388  15.613 -0.3483 -1.0726 -0.3146
 7185TIP3    H142970   2.210   1.311  15.655  2.1620 -1.5471  1.3299
 7185TIP3    H242971   2.227   1.460  15.673 -1.4436 -0.6962 -1.1154
 7186TIP3   OH242972   1.687   2.607   5.162 -0.3277 -0.2716  0.1998
 7186TIP3    H142973   1.670   2.690   5.206  2.3592 -0.0956  1.1312
 7186TIP3    H242974   1.675   2.541   5.231 -1.6054 -0.5996 -0.3148
 7187TIP3   OH242975   3.261   2.037   4.648 -0.2280 -0.2231 -0.0353
 7187TIP3    H142976   3.347   2.025   4.609 -0.2708  0.0770 -0.2204
 7187TIP3    H242977   3.279   2.060   4.740 -0.1170 -0.3818 -0.0173
 7188TIP3   OH242978   6.698   2.546  10.994 -0.4159  0.1905  0.7419
 7188TIP3    H142979   6.617   2.508  10.960 -0.5650 -0.7891  2.1372
 7188TIP3    H242980   6.692   2.639  10.972 -0.3176 -0.3938 -2.2196
 7189TIP3   OH242981   0.171   4.793   1.730 -0.4950  0.2915  0.2151
 7189TIP3    H142982   0.159   4.698   1.723  0.3207  0.0360  1.7762
 7189TIP3    H242983   0.164   4.811   1.824  0.0280  1.6841  0.0141
 7190TIP3   OH242984   1.233   6.632   1.869  0.7741 -0.0676 -0.1550
 7190TIP3    H142985   1.221   6.726   1.883 -0.7875 -0.3591  0.7568
 7190TIP3    H242986   1.269   6.600   1.951  1.6170 -0.2272 -0.5806
 7191TIP3   OH242987   1.443   2.304   1.674  0.4677  0.3305  0.4989
 7191TIP3    H142988   1.464   2.226   1.622  1.4463  0.6157  0.4549
 7191TIP3    H242989   1.425   2.372   1.609  2.3146  0.8546  0.5048
 7192TIP3   OH242990   0.562   3.316  14.818 -0.2374  0.1066  0.1615
 7192TIP3    H142991   0.625   3.339  14.887 -1.1246 -0.2983  1.1461
 7192TIP3    H242992   0.605   3.247  14.769 -0.0582 -0.4781  1.1021
 7193TIP3   OH242993   0.772   1.229  15.014 -0.3696 -0.4447 -0.5519
 7193TIP3    H142994   0.735   1.168  14.951 -1.2343 -0.6519  0.1326
 7193TIP3    H242995   0.867   1.215  15.008 -0.5485 -2.0399 -0.2488
 7194TIP3   OH242996   5.528   0.288  12.996 -0.5752  0.0961  0.4747
 7194TIP3    H142997   5.493   0.199  13.000 -0.2091 -0.0447  0.5774
 7194TIP3    H242998   5.452   0.343  12.979 -0.8713 -0.1852  0.8946
 7195TIP3   OH242999   0.624   3.511   7.109  0.1447  0.4751  0.1729
 7195TIP3    H143000   0.594   3.448   7.042 -0.9653  0.5662  0.5696
 7195TIP3    H243001   0.665   3.456   7.176  1.3663  0.3900 -0.6144
 7196TIP3   OH243002   3.452   2.182  14.927  0.0112 -0.5360 -0.1718
 7196TIP3    H143003   3.384   2.119  14.904  0.0609 -0.8282  0.4574
 7196TIP3    H243004   3.404   2.255  14.967  0.1047 -1.0114  0.8424
 7197TIP3   OH243005   3.271   3.341   4.946  0.3813 -0.1031 -0.0410
 7197TIP3    H143006   3.270   3.435   4.962 -0.9124  0.3037 -2.0948
 7197TIP3    H243007   3.222   3.304   5.019  1.4682  0.6956  1.1476
 7198TIP3   OH243008   0.223   3.748   4.427  0.3790 -0.1757  0.5362
 7198TIP3    H143009   0.281   3.700   4.487 -1.0365  0.2067  2.3077
 7198TIP3    H243010   0.136   3.712   4.445 -0.4376  1.6737  0.4882
 7199TIP3   OH243011   4.307   6.579  13.681 -0.3025  0.4945  0.7788
 7199TIP3    H143012   4.399   6.605  13.686  0.0257 -0.4924  0.0551
 7199TIP3    H243013   4.275   6.587  13.771  0.9346 -0.7212  1.3632
 7200TIP3   OH243014   2.713   0.744  16.317  0.8255  0.0869  0.4872
 7200TIP3    H143015   2.761   0.677  16.268 -1.0715 -0.5958 -0.5516
 7200TIP3    H243016   2.780   0.791  16.366  2.4959 -0.9902 -0.6660
 7201TIP3   OH243017   3.878   5.468   5.393  0.1952 -0.0444 -0.4725
 7201TIP3    H143018   3.841   5.400   5.449 -0.1493 -1.3492 -2.2280
 7201TIP3    H243019   3.971   5.469   5.416  0.1120 -0.7649 -0.0738
 7202TIP3   OH243020   4.731   0.159  14.150 -0.0038  0.2963 -0.5842
 7202TIP3    H143021   4.672   0.233  14.135 -1.3278 -0.7900 -0.8705
 7202TIP3    H243022   4.772   0.144  14.064 -0.4247  0.1168 -0.7558
 7203TIP3   OH243023   6.008   3.360  16.725  0.1304  0.3217  0.1727
 7203TIP3    H143024   6.073   3.415  16.768  1.1750 -0.2590 -0.6024
 7203TIP3    H243025   6.030   3.367  16.632 -0.2369 -0.7346 -0.0036
 7204TIP3   OH243026   3.044   6.213  12.933 -0.3603 -0.3643  0.0399
 7204TIP3    H143027   3.097   6.187  13.008 -0.1871 -0.4936 -0.1254
 7204TIP3    H243028   2.969   6.153  12.935  0.3790 -1.3441 -0.7310
 7205TIP3   OH243029   6.691   1.109   0.022 -0.2607 -0.1504  0.1815
 7205TIP3    H143030   6.728   1.196   0.016  0.2821 -0.4568 -1.0347
 7205TIP3    H243031   6.600   1.119  -0.006 -0.1430 -0.0127 -0.1457
 7206TIP3   OH243032   3.878   3.083  13.572  0.4990  0.0495  0.1880
 7206TIP3    H143033   3.838   3.155  13.620  0.6138 -0.5743  1.2696
 7206TIP3    H243034   3.937   3.042  13.636  1.3413 -0.2711 -0.7631
 7207TIP3   OH243035   0.059   3.637  11.038 -0.0436 -0.2251  0.0002
 7207TIP3    H143036   0.126   3.617  11.103  1.5449  0.2017 -1.4440
 7207TIP3    H243037   0.030   3.726  11.059  0.1722 -0.2429  0.3678
 7208TIP3   OH243038   4.913   1.162   4.961  0.0402 -0.0514 -0.4838
 7208TIP3    H143039   4.940   1.095   5.023 -0.8063 -0.3615 -0.4421
 7208TIP3    H243040   4.940   1.129   4.876 -0.4869 -0.5156 -0.4771
 7209TIP3   OH243041   3.680   1.426   4.268  0.0016 -0.5106 -0.4662
 7209TIP3    H143042   3.703   1.481   4.343  2.1494 -0.9669 -0.7293
 7209TIP3    H243043   3.636   1.350   4.308  1.0693 -0.7245  0.3459
 7210TIP3   OH243044   6.371   0.267   0.298  0.2458 -0.8853  0.5354
 7210TIP3    H143045   6.323   0.251   0.217  1.8408  0.7196 -0.8037
 7210TIP3    H243046   6.310   0.315   0.353  0.0042  0.4462 -0.8176
 7211TIP3   OH243047   5.868   5.714  15.295 -0.1270  0.2539  0.0200
 7211TIP3    H143048   5.901   5.651  15.359 -0.6629  1.1634  1.2437
 7211TIP3    H243049   5.908   5.798  15.321 -0.1734  0.6061 -0.9903
 7212TIP3   OH243050   4.969   1.515  13.498  0.1943  0.8546  0.5618
 7212TIP3    H143051   4.995   1.426  13.523  0.2593 -0.1026 -2.4642
 7212TIP3    H243052   4.969   1.564  13.580  2.1966 -1.4173  2.0567
 7213TIP3   OH243053   6.026   4.093  13.279  0.0408 -0.2002  0.1989
 7213TIP3    H143054   6.115   4.118  13.253 -0.1436 -0.8479 -1.1341
 7213TIP3    H243055   6.021   4.114  13.373  1.5737 -0.1104  0.2772
 7214TIP3   OH243056   4.630   3.025  16.113  0.3127 -0.2715 -0.0825
 7214TIP3    H143057   4.681   2.959  16.160 -1.4021 -1.3460  0.3550
 7214TIP3    H243058   4.585   3.074  16.182 -0.8773 -0.7482 -0.4863
 7215TIP3   OH243059   5.326   3.250  13.707  0.0715  0.1992  0.0317
 7215TIP3    H143060   5.348   3.165  13.745  0.1808  0.0137 -0.4458
 7215TIP3    H243061   5.248   3.277  13.755  0.6872  0.3571  0.9719
 7216TIP3   OH243062   5.555   0.959   4.087 -0.2616 -0.3949 -0.6122
 7216TIP3    H143063   5.498   0.949   4.163  1.9791 -3.8781  0.8813
 7216TIP3    H243064   5.619   1.024   4.113 -2.6062  2.6407 -1.8522
 7217TIP3   OH243065   6.217   5.485   4.131 -0.0239  0.1426 -0.3454
 7217TIP3    H143066   6.295   5.537   4.152 -1.0158  2.2538 -1.5343
 7217TIP3    H243067   6.176   5.532   4.058 -1.8928 -1.4641 -0.4111
 7218TIP3   OH243068   0.162   4.410   6.559  0.5852 -0.1185  0.6700
 7218TIP3    H143069   0.103   4.367   6.498 -1.2882  0.8369  1.7397
 7218TIP3    H243070   0.215   4.468   6.504  0.0258 -0.4343 -0.2255
 7219TIP3   OH243071   2.343   5.633  14.523 -0.1869 -0.1008 -0.0924
 7219TIP3    H143072   2.338   5.710  14.578  1.7523  0.4839 -0.6360
 7219TIP3    H243073   2.393   5.661  14.446  1.4662 -2.0769  0.1409
 7220TIP3   OH243074   3.207   1.095  16.213 -0.7580  0.0582 -0.4500
 7220TIP3    H143075   3.238   1.107  16.123 -0.9515  0.8462 -0.4182
 7220TIP3    H243076   3.272   1.036  16.252 -1.3334 -1.2986 -1.4435
 7221TIP3   OH243077   3.535   0.184  11.223 -0.1775 -0.7220 -0.4159
 7221TIP3    H143078   3.617   0.167  11.178 -0.8576 -1.3543 -1.4598
 7221TIP3    H243079   3.470   0.192  11.153 -0.5601  2.7974  0.1556
 7222TIP3   OH243080   0.830   0.124  14.664 -0.0721  0.3277 -0.1544
 7222TIP3    H143081   0.864   0.057  14.605 -0.4507  0.2546 -0.2983
 7222TIP3    H243082   0.738   0.099  14.676 -0.0656  0.4993  0.2477
 7223TIP3   OH243083   1.281   5.316   4.448 -0.2772  0.1598  0.6044
 7223TIP3    H143084   1.261   5.225   4.427  1.2141  0.1343 -0.8780
 7223TIP3    H243085   1.231   5.367   4.384  0.8503  0.2676 -0.2030
 7224TIP3   OH243086   3.023   2.312   4.519  0.4444  0.1250  0.9392
 7224TIP3    H143087   2.987   2.395   4.549 -0.1765  1.0908 -2.2134
 7224TIP3    H243088   3.117   2.319   4.539  0.4425  1.6761  0.5232
 7225TIP3   OH243089   0.616   0.169   4.739 -0.3235 -0.4077  0.8482
 7225TIP3    H143090   0.676   0.195   4.669 -0.4930  0.4054  0.9952
 7225TIP3    H243091   0.538   0.137   4.694 -0.5276  0.3453  0.6612
 7226TIP3   OH243092   0.070   0.081  10.550  0.0642 -0.1634 -0.3033
 7226TIP3    H143093   0.111   0.011  10.498  0.0668  0.0218 -0.5512
 7226TIP3    H243094   0.002   0.036  10.600  0.2397 -0.3890 -0.2647
 7227TIP3   OH243095   3.385   1.843   2.542  0.0945 -0.0191 -0.1564
 7227TIP3    H143096   3.313   1.865   2.601 -1.4328  1.1084 -2.2865
 7227TIP3    H243097   3.465   1.860   2.593 -1.1399  0.5442  1.6706
 7228TIP3   OH243098   6.403   2.216   0.211  0.1883  0.3997 -0.0511
 7228TIP3    H143099   6.318   2.247   0.180 -0.6464 -0.0177  1.6690
 7228TIP3    H243100   6.401   2.233   0.305  2.2167  0.8093 -0.0458
 7229TIP3   OH243101   5.696   3.679  15.069  0.5981 -0.2779  0.5203
 7229TIP3    H143102   5.747   3.610  15.110  1.5442 -0.2654 -0.5961
 7229TIP3    H243103   5.757   3.722  15.010 -0.8098 -0.5674 -1.2231
 7230TIP3   OH243104   1.936   1.936   4.501  0.1311  0.0488  0.0276
 7230TIP3    H143105   1.889   1.900   4.425  0.0505  2.6111 -1.2351
 7230TIP3    H243106   1.866   1.962   4.562  0.1951 -1.9812  1.0779
 7231TIP3   OH243107   2.878   2.919  16.858  0.0682  0.2289  0.1939
 7231TIP3    H143108   2.951   2.942  16.914  0.0297  1.4269 -0.2304
 7231TIP3    H243109   2.860   2.827  16.879 -0.5298  0.8590  2.7997
 7232TIP3   OH243110   2.337   6.693  13.920 -0.4604  0.1051  0.0206
 7232TIP3    H143111   2.387   6.611  13.923  0.5972  0.7499  0.5054
 7232TIP3    H243112   2.384   6.748  13.858 -0.0726  1.0280  1.1136
 7233TIP3   OH243113   1.421   5.075   1.575 -0.3673 -0.3299 -0.3685
 7233TIP3    H143114   1.468   5.136   1.518 -0.7751  0.1580 -0.1882
 7233TIP3    H243115   1.400   5.126   1.653 -2.9316  0.1058 -1.2205
 7234TIP3   OH243116   1.080   1.265   3.109  0.5200  0.3737  0.5815
 7234TIP3    H143117   1.040   1.186   3.145 -1.4021  1.6419  1.4329
 7234TIP3    H243118   1.043   1.273   3.021 -1.6062  1.7336  1.4910
 7235TIP3   OH243119   4.187   6.533  16.938 -0.1331  0.4350  0.3674
 7235TIP3    H143120   4.202   6.622  16.971 -0.2247  0.2076  1.0365
 7235TIP3    H243121   4.195   6.541  16.843  2.4645  0.6900  0.5306
 7236TIP3   OH243122   0.764   0.914   4.781  0.8162  0.1677 -0.4479
 7236TIP3    H143123   0.687   0.946   4.734  0.9695 -0.0799 -0.8831
 7236TIP3    H243124   0.754   0.947   4.870  0.2270  0.1727 -0.5102
 7237TIP3   OH243125   3.300   0.730   2.064  0.1519  0.1540  0.6404
 7237TIP3    H143126   3.236   0.784   2.018 -1.2031 -0.8973  1.2198
 7237TIP3    H243127   3.362   0.793   2.101 -0.0103  1.1491 -0.6775
 7238TIP3   OH243128   4.611   6.005  11.378  0.0027 -0.1356  0.6344
 7238TIP3    H143129   4.693   6.038  11.415  0.5035 -0.3456 -0.2568
 7238TIP3    H243130   4.547   6.073  11.397  1.0960  1.6178 -1.5588
 7239TIP3   OH243131   6.292   4.722   0.037  0.0251 -0.0585  0.1955
 7239TIP3    H143132   6.366   4.692  -0.016 -0.2258  0.8540 -0.7216
 7239TIP3    H243133   6.222   4.738  -0.027 -0.6407  0.0423  0.9322
 7240TIP3   OH243134   5.144   2.888   0.366  0.2265  0.2153 -0.2069
 7240TIP3    H143135   5.178   2.804   0.397 -2.6903 -0.6501  0.9822
 7240TIP3    H243136   5.106   2.929   0.443  1.0930  2.4414 -0.8762
 7241TIP3   OH243137   1.680   3.563   1.585  0.3383  0.4401 -0.3254
 7241TIP3    H143138   1.584   3.561   1.588  0.3220 -0.1225 -0.9898
 7241TIP3    H243139   1.705   3.614   1.662 -0.5134  1.1031 -0.4682
 7242TIP3   OH243140   3.238   1.309  11.054 -0.0771 -0.6273  0.3140
 7242TIP3    H143141   3.242   1.221  11.015 -1.7258 -1.1130  1.1514
 7242TIP3    H243142   3.168   1.353  11.006  0.6488  0.2083 -0.0088
 7243TIP3   OH243143   5.672   4.112   5.013 -0.1175  0.2037  0.1560
 7243TIP3    H143144   5.610   4.051   5.051 -0.3401 -0.5093 -1.2714
 7243TIP3    H243145   5.717   4.062   4.945  0.9171  1.1474  0.1076
 7244TIP3   OH243146   1.035   5.178  14.720 -0.5772 -0.4401  0.3774
 7244TIP3    H143147   1.125   5.147  14.733 -0.1819  0.8213  0.7633
 7244TIP3    H243148   1.032   5.204  14.628 -0.5124 -0.3976  0.3869
 7245TIP3   OH243149   5.466   5.340   3.926 -0.0758 -0.1772  0.3751
 7245TIP3    H143150   5.390   5.368   3.977 -0.4133  0.4217 -0.4396
 7245TIP3    H243151   5.443   5.361   3.835  1.5359  1.1143  0.2320
 7246TIP3   OH243152   2.063   4.202   4.667  0.2931  0.0888  0.3352
 7246TIP3    H143153   1.977   4.162   4.654 -0.0771  0.2046  2.2512
 7246TIP3    H243154   2.047   4.279   4.721  1.6695 -0.2617  1.2964
 7247TIP3   OH243155   6.605   3.434  11.953  0.3877  0.4147 -0.1280
 7247TIP3    H143156   6.659   3.410  12.028 -2.0254 -0.8148  1.3391
 7247TIP3    H243157   6.665   3.481  11.895  2.7348  0.0659  1.8268
 7248TIP3   OH243158   3.123   5.459   4.714  0.8612  0.0910  0.2873
 7248TIP3    H143159   3.195   5.443   4.775  1.4533  0.8312 -0.1928
 7248TIP3    H243160   3.148   5.411   4.635 -0.2095 -1.3863  0.8112
 7249TIP3   OH243161   3.857   6.507   0.203  0.1399 -0.0946 -0.3762
 7249TIP3    H143162   3.935   6.554   0.173  0.6720 -1.7008 -1.6616
 7249TIP3    H243163   3.784   6.564   0.178  0.5865 -0.9340 -4.2547
 7250TIP3   OH243164   2.906   0.800   4.927 -0.0200  0.3519  0.5701
 7250TIP3    H143165   2.909   0.798   4.831 -1.1175 -0.5642  0.5248
 7250TIP3    H243166   2.970   0.734   4.954  1.2960  1.5705  0.5326
 7251TIP3   OH243167   2.186   0.877  13.785 -0.0414 -0.3338  0.8098
 7251TIP3    H143168   2.241   0.950  13.758 -1.6403  0.0511 -1.7985
 7251TIP3    H243169   2.108   0.918  13.823 -0.6091 -0.6658  0.0432
 7252TIP3   OH243170   2.997   0.744  14.842  0.6092  0.4112 -0.1150
 7252TIP3    H143171   2.951   0.733  14.759  0.9722  3.1529 -0.7701
 7252TIP3    H243172   3.089   0.741  14.820  0.7279 -0.2607  0.4348
 7253TIP3   OH243173   6.630   5.546  16.949 -0.1970 -0.2201 -0.2764
 7253TIP3    H143174   6.562   5.585  16.893 -0.8899 -2.1750 -0.8699
 7253TIP3    H243175   6.662   5.620  17.001 -1.7592  1.0545 -1.0025
 7254TIP3   OH243176   3.824   0.770  16.897  0.5143  0.4349 -0.8686
 7254TIP3    H143177   3.900   0.769  16.956  0.0775  1.2130 -0.2859
 7254TIP3    H243178   3.860   0.794  16.811  1.0239  0.1169 -0.7468
 7255TIP3   OH243179   1.696   0.222  14.897 -0.0917  0.2138  0.4246
 7255TIP3    H143180   1.763   0.158  14.919 -1.7782 -1.7422  0.2022
 7255TIP3    H243181   1.617   0.190  14.940 -1.2793  1.4812 -0.7053
 7256TIP3   OH243182   2.508   2.536  12.722 -0.4005 -0.4497  0.0371
 7256TIP3    H143183   2.423   2.524  12.764 -0.7308  0.1730 -0.4519
 7256TIP3    H243184   2.542   2.618  12.758  0.3137 -1.0443  0.7568
 7257TIP3   OH243185   1.686   2.622  12.976 -0.0073  0.0913 -0.5348
 7257TIP3    H143186   1.688   2.566  12.899  2.1743  0.3372 -0.7271
 7257TIP3    H243187   1.778   2.637  12.997 -0.5198 -0.0061  2.1707
 7258TIP3   OH243188   5.254   5.802   4.843 -0.2792  0.0796 -0.2751
 7258TIP3    H143189   5.181   5.750   4.877  0.3657 -0.6846 -0.0243
 7258TIP3    H243190   5.258   5.779   4.750  0.1735 -0.5410 -0.1090
 7259TIP3   OH243191   2.892   0.730   4.639  0.4362  0.1401  0.1948
 7259TIP3    H143192   2.812   0.776   4.614  0.0341 -0.3078  0.6495
 7259TIP3    H243193   2.868   0.637   4.638  1.2298 -0.0758 -0.6808
 7260TIP3   OH243194   3.042   4.035  11.756 -0.2035 -0.1660 -0.2511
 7260TIP3    H143195   3.124   4.059  11.800  0.1693 -1.3743 -0.2594
 7260TIP3    H243196   3.068   3.971  11.690 -1.2204 -1.0203  0.1526
 7261TIP3   OH243197   6.015   1.837   4.717 -0.2210  0.4646  0.0194
 7261TIP3    H143198   5.983   1.876   4.798  1.3108  1.1863  0.3162
 7261TIP3    H243199   6.032   1.745   4.739  0.4031  0.7088  0.5965
 7262TIP3   OH243200   1.646   0.185   3.697 -0.0854  0.0355  0.3581
 7262TIP3    H143201   1.720   0.233   3.659  0.1788 -0.3687  0.3588
 7262TIP3    H243202   1.573   0.205   3.638  0.0249  0.4217  0.3471
 7263TIP3   OH243203   6.384   1.999  11.514  0.2436  0.1617 -0.7721
 7263TIP3    H143204   6.322   1.928  11.533  0.1638  0.3651 -0.2432
 7263TIP3    H243205   6.434   1.968  11.439  0.0099 -0.3288 -0.7304
 7264TIP3   OH243206   6.362   3.687  11.788  0.8920 -0.2242 -0.3679
 7264TIP3    H143207   6.397   3.721  11.706  1.3151  0.9921  0.3068
 7264TIP3    H243208   6.281   3.736  11.802  1.1686  0.0558  0.2828
 7265TIP3   OH243209   4.529   2.404  16.518 -0.1507 -0.0721  0.0651
 7265TIP3    H143210   4.618   2.369  16.509  0.7286  1.2443  2.6337
 7265TIP3    H243211   4.534   2.491  16.477 -0.2012  0.0807  0.3813
 7266TIP3   OH243212   5.952   3.171  11.981  0.1010  0.2024 -0.5706
 7266TIP3    H143213   5.858   3.161  11.967 -0.4648 -1.2003  3.1241
 7266TIP3    H243214   5.984   3.082  11.994  0.9403  0.8427  2.8034
 7267TIP3   OH243215   0.871   6.193  12.078 -0.4372  0.1733  0.1832
 7267TIP3    H143216   0.929   6.132  12.032 -0.1749  0.1467  0.5428
 7267TIP3    H243217   0.859   6.154  12.165 -2.7662 -0.9840 -0.5598
 7268TIP3   OH243218   1.349   1.480   4.602  0.3157  0.7977  0.0323
 7268TIP3    H143219   1.331   1.396   4.559  0.1709  1.8655 -2.1070
 7268TIP3    H243220   1.381   1.455   4.689  1.0662 -1.4930 -0.8130
 7269TIP3   OH243221   2.717   5.180  11.914  0.0851  0.1534  0.5953
 7269TIP3    H143222   2.703   5.212  11.825  0.5744  0.2065  0.5325
 7269TIP3    H243223   2.677   5.247  11.970 -0.6113 -0.0984  0.4040
 7270TIP3   OH243224   0.337   4.349  14.273  1.1170  0.1988  0.6499
 7270TIP3    H143225   0.386   4.276  14.236  0.4403 -0.1172  0.3686
 7270TIP3    H243226   0.280   4.378  14.202  1.2931  0.9229  0.7969
 7271TIP3   OH243227   2.718   2.250   3.767 -0.2514  0.6240 -0.2200
 7271TIP3    H143228   2.647   2.221   3.825  0.1484 -0.4824 -0.2684
 7271TIP3    H243229   2.673   2.303   3.700 -0.8061  1.3240  0.6698
 7272TIP3   OH243230   2.148   0.384  15.193  0.3234 -0.7423  0.0751
 7272TIP3    H143231   2.204   0.456  15.164  0.8690 -0.4132  1.8481
 7272TIP3    H243232   2.201   0.305  15.178 -0.2697 -0.8262 -1.8535
 7273TIP3   OH243233   5.290   0.964  16.017  0.3881 -0.3917  0.1628
 7273TIP3    H143234   5.248   0.890  15.973 -1.2791  1.7426 -2.1446
 7273TIP3    H243235   5.367   0.984  15.963  1.0105 -0.5887  0.9516
 7274TIP3   OH243236   3.826   6.437  15.905  0.1493 -0.2807  0.0860
 7274TIP3    H143237   3.797   6.429  15.814  1.6868 -1.0645 -0.3652
 7274TIP3    H243238   3.816   6.349  15.942  0.7836 -0.2829  0.2722
 7275TIP3   OH243239   5.391   0.467   5.454 -0.0087  0.0574  0.0596
 7275TIP3    H143240   5.335   0.530   5.497 -1.5793  0.4415 -2.3475
 7275TIP3    H243241   5.338   0.387   5.447  1.0039 -0.7090  0.7426
 7276TIP3   OH243242   5.058   4.477  13.701 -0.0875 -0.3437  0.3520
 7276TIP3    H143243   5.046   4.392  13.744  0.9695 -0.6217  0.1227
 7276TIP3    H243244   4.987   4.531  13.735 -0.8884 -1.3653  0.3734
 7277TIP3   OH243245   0.622   4.710  14.485  0.3800  0.4371 -0.3758
 7277TIP3    H143246   0.618   4.785  14.427  1.1803  0.6044 -0.2233
 7277TIP3    H243247   0.693   4.656  14.451 -0.4480 -0.4677 -0.7306
 7278TIP3   OH243248   0.575   2.030  16.101 -0.6430  0.3754  0.2835
 7278TIP3    H143249   0.505   1.998  16.045 -1.0285  0.8206  0.4991
 7278TIP3    H243250   0.569   2.126  16.095 -0.9987  0.4430  1.4342
 7279TIP3   OH243251   0.492   1.142   2.604  0.2199  0.5890 -0.0324
 7279TIP3    H143252   0.535   1.227   2.593  0.6285  0.2173 -1.4975
 7279TIP3    H243253   0.523   1.111   2.689  0.0950  1.8730  0.5114
 7280TIP3   OH243254   3.100   6.490   4.536  0.3435 -0.1444 -0.2363
 7280TIP3    H143255   3.062   6.562   4.485  0.5331  0.7902  0.8870
 7280TIP3    H243256   3.114   6.420   4.472 -0.8212  0.4329 -1.1630
 7281TIP3   OH243257   4.666   0.004   6.643  0.2519  0.0108 -0.0803
 7281TIP3    H143258   4.712   0.076   6.687  0.1969 -0.2968  0.4854
 7281TIP3    H243259   4.669  -0.068   6.705  1.0641 -0.7619 -0.9914
 7282TIP3   OH243260   5.058   6.560   1.975 -0.0755  0.1528 -0.2912
 7282TIP3    H143261   5.043   6.530   1.886 -0.5941 -0.8336  0.1066
 7282TIP3    H243262   5.126   6.627   1.968  1.2769 -1.2554 -1.2028
 7283TIP3   OH243263   3.971   0.894  15.806  0.2038  0.4386  0.3308
 7283TIP3    H143264   3.964   0.906  15.900  0.3659 -0.8478  0.5273
 7283TIP3    H243265   4.065   0.895  15.788  0.1551  1.3694  0.0701
 7284TIP3   OH243266   3.554   5.611  12.745 -0.3676  0.2518  0.0321
 7284TIP3    H143267   3.579   5.693  12.788  0.0087  0.0326  0.2394
 7284TIP3    H243268   3.550   5.634  12.652 -0.2000  0.4922  0.0809
 7285TIP3   OH243269   2.819   5.269  15.651  0.6723  0.0410  0.0217
 7285TIP3    H143270   2.831   5.301  15.562 -1.2356  1.3219  0.1586
 7285TIP3    H243271   2.750   5.325  15.687  0.2910 -1.4676  1.7706
 7286TIP3   OH243272   0.485   2.056  16.587  0.0419  0.3592  0.1009
 7286TIP3    H143273   0.579   2.045  16.594  0.0973 -0.4229 -1.3846
 7286TIP3    H243274   0.467   2.138  16.632  1.3770  0.3502  0.6981
 7287TIP3   OH243275   3.933   3.670   6.517 -0.1090 -0.3494 -0.1289
 7287TIP3    H143276   3.978   3.602   6.566 -0.7341  0.0261  1.0119
 7287TIP3    H243277   3.845   3.672   6.555  0.1610  1.6884  0.4961
 7288TIP3   OH243278   1.334   2.398  12.012 -0.1334  0.3311 -0.0280
 7288TIP3    H143279   1.421   2.415  12.048 -0.3425  0.8499  0.2435
 7288TIP3    H243280   1.306   2.482  11.976 -0.8228  0.3598  0.5428
 7289TIP3   OH243281   2.467   0.211   4.779 -0.1240 -0.4905  0.4652
 7289TIP3    H143282   2.406   0.140   4.762  0.9178 -1.4811  0.7639
 7289TIP3    H243283   2.528   0.176   4.844 -0.1742  1.0161  1.3738
 7290TIP3   OH243284   5.547   2.530  13.730 -0.0883 -0.0787  0.2659
 7290TIP3    H143285   5.508   2.589  13.793 -1.7194 -2.4563  1.6437
 7290TIP3    H243286   5.637   2.561  13.720 -1.1893  3.3582 -0.1683
 7291TIP3   OH243287   0.821   1.506  15.609  0.5543 -0.2453 -0.2889
 7291TIP3    H143288   0.819   1.486  15.516  0.0529 -1.5154 -0.0314
 7291TIP3    H243289   0.761   1.579  15.620 -0.4351 -0.9597 -0.7936
 7292TIP3   OH243290   3.730   0.083   1.970  0.5508  0.2333  0.1313
 7292TIP3    H143291   3.739  -0.012   1.980  0.4924  0.1796 -0.3192
 7292TIP3    H243292   3.706   0.114   2.057 -1.1402 -0.3730 -0.0830
 7293TIP3   OH243293   6.227   4.544  17.190 -0.3282 -0.7339 -0.1469
 7293TIP3    H143294   6.196   4.462  17.152 -0.1041  0.3208 -2.7598
 7293TIP3    H243295   6.297   4.573  17.133  2.0321 -0.3838  2.6751
 7294TIP3   OH243296   2.953   5.336   4.181 -0.0156 -0.8931 -0.0885
 7294TIP3    H143297   2.989   5.249   4.164  2.9576 -0.0200  1.1112
 7294TIP3    H243298   3.000   5.394   4.121  0.2295  0.2414  1.1547
 7295TIP3   OH243299   6.024   1.042   5.434 -0.2771 -0.2993  0.2313
 7295TIP3    H143300   5.978   0.960   5.455 -1.8085  0.3442 -0.3933
 7295TIP3    H243301   5.992   1.105   5.498  1.5655 -0.3664  1.2614
 7296TIP3   OH243302   2.851   0.695   1.489 -0.2298 -0.0456  0.5115
 7296TIP3    H143303   2.852   0.656   1.577  1.1862  2.7225  1.8604
 7296TIP3    H243304   2.913   0.642   1.439  0.1972 -0.6819  1.6724
 7297TIP3   OH243305   4.831   4.015   3.118 -0.2487 -0.0351  0.1617
 7297TIP3    H143306   4.752   4.048   3.076  0.4345 -0.4359 -1.5372
 7297TIP3    H243307   4.894   4.086   3.111  0.5134 -0.8314 -1.4254
 7298TIP3   OH243308   5.532   6.325  12.591 -0.0813 -0.1564  0.9593
 7298TIP3    H143309   5.466   6.271  12.635 -1.0508 -0.2949 -0.5951
 7298TIP3    H243310   5.609   6.269  12.586 -0.7457 -1.0350  0.3075
 7299TIP3   OH243311   5.648   5.237   4.361  0.3629  0.2030  1.1419
 7299TIP3    H143312   5.656   5.211   4.270 -0.3049 -1.3600  1.4990
 7299TIP3    H243313   5.662   5.156   4.411 -0.6465  0.7421  2.3641
 7300TIP3   OH243314   1.614   2.558   2.420  0.1437 -0.1216  0.0045
 7300TIP3    H143315   1.570   2.609   2.487 -0.1285  0.7637 -0.8182
 7300TIP3    H243316   1.681   2.509   2.467 -0.4664 -0.0261  1.0016
 7301TIP3   OH243317   5.996   2.079   5.868 -0.7241 -0.0378 -0.0278
 7301TIP3    H143318   5.948   2.131   5.932 -0.2865 -1.1330  1.2403
 7301TIP3    H243319   6.087   2.106   5.879 -0.7326  0.2839 -0.7059
 7302TIP3   OH243320   0.716   3.558  15.642  0.1133  0.1039  0.4379
 7302TIP3    H143321   0.652   3.518  15.583  0.6532  0.6262 -0.5206
 7302TIP3    H243322   0.700   3.652  15.636  1.0526  0.2543  0.0756
 7303TIP3   OH243323   2.244   4.887   3.754  0.3572 -0.5308  0.0531
 7303TIP3    H143324   2.202   4.848   3.830 -2.8047 -2.2678 -2.3261
 7303TIP3    H243325   2.206   4.974   3.747 -1.5467 -1.3725 -0.9584
 7304TIP3   OH243326   5.035   2.102  16.374 -0.0829  0.5717  0.1817
 7304TIP3    H143327   5.123   2.075  16.346 -0.5865 -0.7715 -0.1605
 7304TIP3    H243328   4.984   2.105  16.293 -0.4395  1.0315  0.4201
 7305TIP3   OH243329   5.923   2.757  13.576  0.7497  0.1483  0.2374
 7305TIP3    H143330   5.867   2.681  13.592 -0.0166  0.4923 -0.7083
 7305TIP3    H243331   5.906   2.815  13.650 -0.0361  0.1845  0.0356
 7306TIP3   OH243332   6.212   4.523  13.100  0.0986 -0.6451 -0.6195
 7306TIP3    H143333   6.262   4.547  13.021 -2.2384  4.1427 -1.0124
 7306TIP3    H243334   6.122   4.546  13.079 -0.9757 -1.2995  2.7460
 7307TIP3   OH243335   2.292   2.054  13.306  0.2763 -0.1719 -0.0341
 7307TIP3    H143336   2.286   1.967  13.347 -0.6922  0.2284  0.7164
 7307TIP3    H243337   2.325   2.037  13.218  0.3276 -1.2825  0.1872
 7308TIP3   OH243338   5.806   3.358   6.669  0.3677  0.0382 -0.2409
 7308TIP3    H143339   5.718   3.384   6.696  0.7551 -0.2026  1.3801
 7308TIP3    H243340   5.792   3.299   6.595 -0.9204 -0.9432  0.7366
 7309TIP3   OH243341   6.486   2.487   2.354 -0.3423 -0.6091 -0.6587
 7309TIP3    H143342   6.415   2.437   2.315  0.1420 -2.1409  0.3313
 7309TIP3    H243343   6.563   2.432   2.343  0.2443 -0.0155  0.3407
 7310TIP3   OH243344   2.749   1.469  13.491  0.3884  0.0731 -0.3259
 7310TIP3    H143345   2.787   1.556  13.478  0.0550  0.0020 -2.0602
 7310TIP3    H243346   2.662   1.475  13.451 -0.8672 -0.2123  2.1742
 7311TIP3   OH243347   4.173   1.430   3.340 -0.3654  0.2188 -0.4763
 7311TIP3    H143348   4.095   1.485   3.343 -0.3489  0.3322 -1.6499
 7311TIP3    H243349   4.227   1.470   3.272 -0.5372 -1.4783 -1.6660
 7312TIP3   OH243350   2.506   6.298   3.896 -0.0906  0.1318 -0.2323
 7312TIP3    H143351   2.575   6.264   3.953  0.1145  1.6752  0.4894
 7312TIP3    H243352   2.552   6.337   3.822 -0.2296  0.2932 -0.2356
 7313TIP3   OH243353   3.633   1.304  12.533 -0.1338 -0.6034  0.0809
 7313TIP3    H143354   3.538   1.304  12.541 -0.4038 -0.2202 -2.4963
 7313TIP3    H243355   3.654   1.224  12.485  0.8855 -0.7277  0.6807
 7314TIP3   OH243356   3.104   5.264  17.327  0.3000  0.6449  0.1625
 7314TIP3    H143357   3.152   5.196  17.373 -1.8547 -1.6758 -0.7708
 7314TIP3    H243358   3.107   5.237  17.235 -0.7277  1.7346 -0.2200
 7315TIP3   OH243359   3.841   4.779  10.839  0.2808  0.1157  0.0668
 7315TIP3    H143360   3.935   4.794  10.846  0.4725  0.5868 -2.5527
 7315TIP3    H243361   3.800   4.856  10.878  0.9300 -0.2228  1.4806
 7316TIP3   OH243362   2.894   2.964  12.141  0.4619 -0.4241  0.3428
 7316TIP3    H143363   2.884   2.901  12.070  2.4669 -2.6045  1.8274
 7316TIP3    H243364   2.948   3.034  12.103 -0.9178 -0.0317 -1.0272
 7317TIP3   OH243365   4.814   6.635  11.500  0.1822  0.0370 -0.1952
 7317TIP3    H143366   4.752   6.687  11.449 -2.3264 -1.2170  1.3829
 7317TIP3    H243367   4.848   6.695  11.566 -1.1591  0.1939  0.3687
 7318TIP3   OH243368   5.172   2.453   3.606  0.1550  0.5231  0.5178
 7318TIP3    H143369   5.224   2.509   3.548 -0.7832  2.1710  1.2097
 7318TIP3    H243370   5.204   2.364   3.587  1.4994  1.2278 -0.8139
 7319TIP3   OH243371   5.160   3.878  16.212  0.2993 -0.2927 -0.1274
 7319TIP3    H143372   5.210   3.916  16.140 -0.2397 -0.1674 -0.4414
 7319TIP3    H243373   5.211   3.801  16.239  0.9179  0.1249 -0.0989
 7320TIP3   OH243374   6.112   0.070  16.565  0.0835 -0.3605 -0.0877
 7320TIP3    H143375   6.126   0.035  16.477 -1.0193  0.1740 -0.5050
 7320TIP3    H243376   6.100   0.164  16.552  1.0217 -0.1075  0.7747
 7321TIP3   OH243377   4.720   4.587   0.922  0.4549 -0.5764 -0.3688
 7321TIP3    H143378   4.683   4.658   0.869 -0.2883  0.7398  1.7878
 7321TIP3    H243379   4.778   4.540   0.862  1.4291  2.1978 -1.7798
 7322TIP3   OH243380   5.297   6.358   0.258 -0.1957  0.2597  0.2334
 7322TIP3    H143381   5.244   6.421   0.308  0.6632  0.3243  1.0844
 7322TIP3    H243382   5.338   6.411   0.189 -2.6179 -0.0956 -1.6066
 7323TIP3   OH243383   4.267   4.546   5.620 -0.1116 -0.5033  0.3357
 7323TIP3    H143384   4.237   4.492   5.693  0.6040 -0.1058  0.9348
 7323TIP3    H243385   4.362   4.533   5.618 -0.0227  0.1430  0.0072
 7324TIP3   OH243386   3.503   5.341   4.936 -0.7609  0.5088  0.6167
 7324TIP3    H143387   3.569   5.392   4.889 -1.1672  0.2319 -0.2658
 7324TIP3    H243388   3.554   5.276   4.986 -0.3590  0.3624  0.0225
 7325TIP3   OH243389   1.216   6.438  16.728 -0.2842 -0.2296  0.1083
 7325TIP3    H143390   1.273   6.424  16.804  1.5202  1.2818 -0.8935
 7325TIP3    H243391   1.210   6.351  16.687  2.2090 -0.2871 -0.3136
 7326TIP3   OH243392   1.972   5.479   0.353  0.4744 -0.7417  0.2596
 7326TIP3    H143393   1.878   5.484   0.337  0.8984  2.3079 -2.2626
 7326TIP3    H243394   1.980   5.473   0.448 -2.2424 -1.2388  0.5343
 7327TIP3   OH243395   2.249   2.921   6.265  0.3453 -0.0386 -0.2123
 7327TIP3    H143396   2.193   2.926   6.188 -1.3089 -1.9241  0.7613
 7327TIP3    H243397   2.189   2.937   6.339  1.2001 -1.3888  0.8229
 7328TIP3   OH243398   5.220   3.046   1.121 -1.0097 -0.3075  0.1676
 7328TIP3    H143399   5.135   3.075   1.153 -1.0223  0.5593 -0.6161
 7328TIP3    H243400   5.267   3.019   1.200 -2.0557 -0.9661  0.5912
 7329TIP3   OH243401   1.713   6.052  13.403  0.2567 -0.0006 -0.0668
 7329TIP3    H143402   1.698   6.146  13.408  1.6942  0.2285  0.6268
 7329TIP3    H243403   1.742   6.036  13.313 -0.7872  0.0783 -0.4223
 7330TIP3   OH243404   0.540   5.344   4.167  0.2971  0.4033  1.0372
 7330TIP3    H143405   0.493   5.425   4.148 -0.3335  0.1720  1.5462
 7330TIP3    H243406   0.631   5.362   4.144 -0.3305  0.1702 -2.1143
 7331TIP3   OH243407   3.897   0.038  11.378 -0.1530 -0.2690  0.0373
 7331TIP3    H143408   3.976   0.015  11.427  0.8166  1.7724 -0.4701
 7331TIP3    H243409   3.846   0.092  11.439  0.7778  1.7779 -0.8935
 7332TIP3   OH243410   5.492   0.418   3.115  0.3103  0.3629  0.4576
 7332TIP3    H143411   5.408   0.399   3.157  0.1688  1.7089  0.8473
 7332TIP3    H243412   5.473   0.414   3.022  0.0966 -0.4876  0.5303
 7333TIP3   OH243413   2.491   5.632  12.883  0.4267  0.2559  0.5470
 7333TIP3    H143414   2.515   5.540  12.871 -3.2951 -0.7632 -0.1995
 7333TIP3    H243415   2.424   5.632  12.951 -3.4545  1.5393 -2.8764
 7334TIP3   OH243416   4.332   4.082   0.806 -0.1474 -0.1101 -0.5345
 7334TIP3    H143417   4.353   4.102   0.897  0.8825 -0.8585 -0.5998
 7334TIP3    H243418   4.246   4.123   0.793  0.4713  1.5593  0.2365
 7335TIP3   OH243419   0.377   5.623  15.246 -0.4526 -0.3292  0.2479
 7335TIP3    H143420   0.459   5.647  15.203 -0.5027 -0.7981 -0.1119
 7335TIP3    H243421   0.377   5.528  15.247 -0.1640 -0.3310  1.8489
 7336TIP3   OH243422   0.406   1.086  15.275 -0.0433  0.5982  0.0258
 7336TIP3    H143423   0.460   1.067  15.352  0.7179 -1.2076 -0.8986
 7336TIP3    H243424   0.322   1.043  15.293 -0.0878  0.7206  0.1128
 7337TIP3   OH243425   0.114   4.513   6.073 -0.0593  0.1822 -0.2376
 7337TIP3    H143426   0.044   4.482   6.015 -0.4003 -2.0288  1.2328
 7337TIP3    H243427   0.191   4.463   6.046  0.9084  2.2213 -1.4988
 7338TIP3   OH243428   5.621   0.240  14.779 -0.1850  0.3876 -0.5668
 7338TIP3    H143429   5.565   0.164  14.767  1.1527 -0.3316 -2.7327
 7338TIP3    H243430   5.603   0.296  14.703  0.5532  1.1070 -0.2345
 7339TIP3   OH243431   2.297   3.847  17.183  0.1006 -0.5192  0.0893
 7339TIP3    H143432   2.360   3.913  17.212 -0.0122 -0.6730  0.7138
 7339TIP3    H243433   2.351   3.772  17.156  0.2191 -0.2768 -0.3423
 7340TIP3   OH243434   3.417   5.539   6.022 -0.1530  0.0103 -0.4884
 7340TIP3    H143435   3.441   5.607   5.960 -1.2100  0.7084 -0.1440
 7340TIP3    H243436   3.341   5.574   6.069 -1.0288 -1.6110 -0.6448
 7341TIP3   OH243437   3.083   3.612  14.681  0.3931  0.1375  0.6781
 7341TIP3    H143438   3.113   3.560  14.607  0.5958  0.1406  0.7588
 7341TIP3    H243439   3.034   3.684  14.641 -0.3442 -0.4033  0.5864
 7342TIP3   OH243440   3.993   2.479  16.186 -0.4452  0.3010 -0.6690
 7342TIP3    H143441   4.071   2.431  16.160 -0.6593 -0.2851 -0.2386
 7342TIP3    H243442   3.997   2.483  16.281 -1.5325 -0.7776 -0.5528
 7343TIP3   OH243443   0.885   4.117   4.300 -0.3952 -0.4567  0.1494
 7343TIP3    H143444   0.856   4.198   4.259 -0.9762 -0.0083  1.3888
 7343TIP3    H243445   0.979   4.129   4.313 -0.7420  0.8438  1.9735
 7344TIP3   OH243446   5.533   1.362  13.937 -0.4351 -0.2395 -0.0736
 7344TIP3    H143447   5.554   1.381  13.845  1.6313 -0.7830  0.2307
 7344TIP3    H243448   5.438   1.348  13.937 -0.5016 -0.1687 -2.1127
 7345TIP3   OH243449   3.853   2.632  13.490 -0.9004 -0.4051  0.0332
 7345TIP3    H143450   3.821   2.717  13.460 -1.3477 -1.0075 -1.2933
 7345TIP3    H243451   3.784   2.599  13.548 -0.8381  0.0232  0.3548
 7346TIP3   OH243452   6.290   0.050  13.148  0.5289  0.0205  0.0019
 7346TIP3    H143453   6.211   0.041  13.202  1.4589 -1.3889  1.2056
 7346TIP3    H243454   6.286   0.140  13.115 -0.7309  0.5198  1.3814
 7347TIP3   OH243455   2.231   0.423  11.978 -0.2100  0.9515 -0.2042
 7347TIP3    H143456   2.239   0.345  11.923  0.7174  1.3646 -0.6880
 7347TIP3    H243457   2.267   0.493  11.924 -0.9510  1.7026  0.2559
 7348TIP3   OH243458   6.700   2.229   4.138  0.2810 -0.5278 -0.3246
 7348TIP3    H143459   6.698   2.324   4.132 -2.0787 -0.6071 -3.4033
 7348TIP3    H243460   6.627   2.207   4.196 -0.0915 -0.4453 -0.7515
 7349TIP3   OH243461   2.478   0.883   0.175  0.5555 -0.1223 -0.2979
 7349TIP3    H143462   2.430   0.801   0.162  1.0563 -0.3353 -0.8717
 7349TIP3    H243463   2.416   0.941   0.218 -0.2843 -0.3253 -1.2173
 7350TIP3   OH243464   6.675   6.341  15.205 -0.2314  0.6277  0.8088
 7350TIP3    H143465   6.598   6.285  15.215 -0.1053  0.2955 -0.0235
 7350TIP3    H243466   6.750   6.282  15.215 -0.0878  0.8266  0.9312
 7351TIP3   OH243467   3.160   5.042  10.978  0.8343 -0.1252 -0.2497
 7351TIP3    H143468   3.143   4.948  10.980 -0.7073  0.0966  1.9162
 7351TIP3    H243469   3.155   5.066  10.886 -1.1691 -1.8167 -0.6521
 7352TIP3   OH243470   0.484   6.138  17.259  0.4066  0.2166 -0.1051
 7352TIP3    H143471   0.516   6.075  17.324 -0.5416 -0.1159  0.0571
 7352TIP3    H243472   0.400   6.167  17.293  0.0246  0.2542 -1.0410
 7353TIP3   OH243473   6.505   1.177   3.075  0.0009 -0.4498  0.0416
 7353TIP3    H143474   6.598   1.195   3.060  0.2152 -0.1024  1.5864
 7353TIP3    H243475   6.494   1.190   3.169 -1.8079  0.3562 -0.2575
 7354TIP3   OH243476   3.439   3.932  11.703 -0.0552  0.1742  0.1138
 7354TIP3    H143477   3.422   3.990  11.628  1.6914  0.4404 -0.1364
 7354TIP3    H243478   3.527   3.897  11.686  0.1133 -0.2566  1.7253
 7355TIP3   OH243479   3.577   0.227   4.026  0.3881  0.0317 -0.0564
 7355TIP3    H143480   3.483   0.215   4.034  0.4751 -0.4644  0.2729
 7355TIP3    H243481   3.598   0.297   4.087 -0.1756  2.2768 -2.2460
 7356TIP3   OH243482   2.752   1.300   4.712  0.1443  0.1288 -0.1743
 7356TIP3    H143483   2.716   1.248   4.783 -0.0432  0.1672 -0.2400
 7356TIP3    H243484   2.820   1.245   4.673  1.4403  0.7692  1.1108
 7357TIP3   OH243485   4.785   3.100   4.680 -0.0116 -0.0512  0.0998
 7357TIP3    H143486   4.739   3.020   4.705 -0.1719  0.8473  3.0771
 7357TIP3    H243487   4.717   3.159   4.647 -0.3949 -0.1130  0.7663
 7358TIP3   OH243488   2.990   6.230   1.352 -0.5803  0.3502 -0.2177
 7358TIP3    H143489   2.922   6.229   1.284 -1.9473  1.6229  1.0404
 7358TIP3    H243490   2.949   6.276   1.425  0.9480 -0.7144  1.3733
 7359TIP3   OH243491   6.717   5.308   2.338  0.2568 -0.0176  0.4743
 7359TIP3    H143492   6.798   5.313   2.388  0.1968  0.5640  0.5309
 7359TIP3    H243493   6.742   5.273   2.253  0.3987 -0.7914  0.8269
 7360TIP3   OH243494   3.576   6.381  11.402 -0.5063 -0.2567  0.4206
 7360TIP3    H143495   3.571   6.476  11.400 -2.1660 -0.3110 -2.3773
 7360TIP3    H243496   3.537   6.352  11.319  2.6886 -3.2760 -0.2679
 7361TIP3   OH243497   0.577   4.863  11.142  0.3450  0.0350  0.4739
 7361TIP3    H143498   0.522   4.836  11.069 -1.1876  0.8459  1.2851
 7361TIP3    H243499   0.633   4.931  11.106 -0.9623  1.0105  0.2098
 7362TIP3   OH243500   0.155   1.420   3.488 -0.1585  0.3302 -0.7513
 7362TIP3    H143501   0.239   1.446   3.450  0.1759 -0.6049 -0.6863
 7362TIP3    H243502   0.094   1.424   3.414  0.0694  0.4482 -0.9360
 7363TIP3   OH243503   0.399   5.345  15.323  0.3624 -0.1756  0.1023
 7363TIP3    H143504   0.368   5.255  15.314 -1.7837  0.5607 -0.5651
 7363TIP3    H243505   0.439   5.366  15.239 -2.9281  0.7474 -1.3923
 7364TIP3   OH243506   2.359   3.712  15.355  0.0380  0.0178 -0.1578
 7364TIP3    H143507   2.327   3.638  15.305 -0.5472  0.0200  0.2019
 7364TIP3    H243508   2.281   3.763  15.376  0.2403 -0.0993  0.9432
 7365TIP3   OH243509   1.205   3.335   3.095 -0.2652  0.1514 -0.3953
 7365TIP3    H143510   1.298   3.314   3.100 -0.2744 -0.0474 -0.9649
 7365TIP3    H243511   1.188   3.389   3.172 -0.5712 -3.0782  2.0083
 7366TIP3   OH243512   3.280   6.119   4.390 -0.0237 -0.5072 -0.4079
 7366TIP3    H143513   3.374   6.106   4.407 -0.4218 -3.4672  0.1482
 7366TIP3    H243514   3.259   6.050   4.327 -2.2079 -1.3134  1.0954
 7367TIP3   OH243515   1.824   1.094   1.870 -0.8536  0.2657  0.1992
 7367TIP3    H143516   1.804   1.027   1.935  0.4652  0.5484  0.9321
 7367TIP3    H243517   1.760   1.079   1.800 -1.4404 -0.8932  0.9451
 7368TIP3   OH243518   5.274   6.434   1.670 -0.2190  0.1946  0.1083
 7368TIP3    H143519   5.341   6.421   1.604 -1.2563 -0.9232 -0.7504
 7368TIP3    H243520   5.313   6.402   1.751  1.9976  3.7867  0.6919
 7369TIP3   OH243521   5.028   1.416   1.638  0.0356  0.1123  0.0813
 7369TIP3    H143522   4.984   1.343   1.682 -1.1044 -1.1094 -2.8606
 7369TIP3    H243523   4.965   1.488   1.642  1.9485  1.9562  4.8831
 7370TIP3   OH243524   4.144   2.970  15.497  0.5742 -0.1911 -0.6590
 7370TIP3    H143525   4.120   3.060  15.519  1.5019  0.2317 -1.3253
 7370TIP3    H243526   4.231   2.977  15.459  0.7044 -1.3908 -0.6176
 7371TIP3   OH243527   2.761   3.119   5.093  0.1025  0.5156  0.4444
 7371TIP3    H143528   2.852   3.094   5.076 -0.7142 -2.3991 -0.1192
 7371TIP3    H243529   2.721   3.041   5.130 -2.0698  1.9251  1.2659
 7372TIP3   OH243530   1.650   4.523   0.076 -0.2460  0.4961  0.1712
 7372TIP3    H143531   1.654   4.566   0.162 -0.2722  0.5750  0.1327
 7372TIP3    H243532   1.723   4.559   0.027 -0.5463  0.8491 -0.0246
 7373TIP3   OH243533   5.928   6.487  14.964  0.2902  0.2964 -0.3694
 7373TIP3    H143534   6.019   6.505  14.987  0.4581 -1.3577  0.4567
 7373TIP3    H243535   5.897   6.567  14.923  2.4346  0.5235 -1.6948
 7374TIP3   OH243536   4.336   3.670   1.773 -0.0463  0.6506  0.6089
 7374TIP3    H143537   4.274   3.651   1.702  0.3638 -0.7646  0.5963
 7374TIP3    H243538   4.403   3.725   1.732 -0.6748  1.2317  0.3314
 7375TIP3   OH243539   6.177   1.484  14.018  0.4194  0.0216  0.0708
 7375TIP3    H143540   6.208   1.569  14.049  0.8538 -0.6254  1.5201
 7375TIP3    H243541   6.109   1.505  13.954  2.7259  1.4489 -2.0631
 7376TIP3   OH243542   3.110   4.513  11.885  0.5700  0.2132  0.0977
 7376TIP3    H143543   3.159   4.589  11.852  0.3995 -0.4746 -1.9086
 7376TIP3    H243544   3.025   4.549  11.910 -0.4416  0.4716 -3.1473
 7377TIP3   OH243545   0.967   4.117   1.610 -0.3243  1.0881  0.2059
 7377TIP3    H143546   0.904   4.185   1.635 -1.2642  0.9283 -1.5830
 7377TIP3    H243547   0.916   4.036   1.610  0.2768  0.7045  0.2661
 7378TIP3   OH243548   1.047   1.564   5.854 -0.3718  0.4724 -0.4270
 7378TIP3    H143549   0.973   1.510   5.884  0.1830 -0.2821 -0.3829
 7378TIP3    H243550   1.025   1.653   5.883 -1.0553  0.1843 -0.0321
 7379TIP3   OH243551   6.333   0.238   2.250  0.0727  0.3595 -0.5930
 7379TIP3    H143552   6.239   0.237   2.233 -0.1110 -0.4922  0.3210
 7379TIP3    H243553   6.363   0.151   2.223 -0.2259 -1.0471  2.9753
 7380TIP3   OH243554   6.559   5.319  12.912  0.3065 -0.0665  0.8366
 7380TIP3    H143555   6.506   5.263  12.856  2.3577 -2.5266  1.1838
 7380TIP3    H243556   6.585   5.391  12.856  0.6632 -1.4234 -0.8057
 7381TIP3   OH243557   1.817   0.307   6.549  0.5933 -0.2335 -0.0788
 7381TIP3    H143558   1.811   0.337   6.640  0.6701  1.3071 -0.5478
 7381TIP3    H243559   1.725   0.298   6.521  0.4937  1.9341 -0.6269
 7382TIP3   OH243560   2.749   5.157  12.297  0.0337  0.2629  0.2873
 7382TIP3    H143561   2.785   5.114  12.375 -1.6765 -1.6990  0.0616
 7382TIP3    H243562   2.814   5.140  12.228  0.6748  0.4219  0.8418
 7383TIP3   OH243563   5.824   2.892   3.769  0.0129  0.5744  0.4654
 7383TIP3    H143564   5.840   2.886   3.863 -0.3028  0.2588  0.5007
 7383TIP3    H243565   5.743   2.943   3.762  0.3471  1.0914  0.3409
 7384TIP3   OH243566   5.857   1.955   1.537 -0.1420 -0.0152 -0.1620
 7384TIP3    H143567   5.879   2.034   1.488 -3.0174  3.1359  2.9836
 7384TIP3    H243568   5.782   1.918   1.490  1.0844 -0.8556 -1.5324
 7385TIP3   OH243569   4.072   4.308  12.632  0.7197  0.5876  0.0297
 7385TIP3    H143570   4.122   4.311  12.550 -1.4810 -0.2237 -1.4233
 7385TIP3    H243571   3.994   4.361  12.615 -0.8008 -1.2564  0.8261
 7386TIP3   OH243572   3.516   0.370  15.308  0.1148  0.6429  0.1822
 7386TIP3    H143573   3.606   0.386  15.281  0.6557  1.5403  2.2949
 7386TIP3    H243574   3.463   0.398  15.233  1.5581 -1.5881 -1.8334
 7387TIP3   OH243575   2.072   3.227  14.662 -0.6460 -0.0771 -0.2315
 7387TIP3    H143576   2.033   3.233  14.749  1.6023  1.7283  0.7282
 7387TIP3    H243577   2.138   3.158  14.670  0.3147  0.8349 -0.1752
 7388TIP3   OH243578   2.094   6.250   5.175 -0.2842 -0.0417  0.3649
 7388TIP3    H143579   2.089   6.224   5.083 -1.4849  1.4428 -0.0268
 7388TIP3    H243580   2.066   6.173   5.224 -2.6733  0.0979 -0.6827
 7389TIP3   OH243581   1.419   6.698  17.240 -0.1804  0.3737  0.1650
 7389TIP3    H143582   1.358   6.671  17.172 -0.7090  1.5676  0.1365
 7389TIP3    H243583   1.400   6.642  17.314  0.7087 -1.2591 -0.7846
 7390TIP3   OH243584   0.203   3.858   3.251 -0.3294  0.4568 -0.5407
 7390TIP3    H143585   0.275   3.807   3.214  0.4524  0.8134  0.4282
 7390TIP3    H243586   0.125   3.805   3.236  0.6421 -1.8728  1.9052
 7391TIP3   OH243587   0.753   0.236   5.508  0.1625  0.2322 -0.2951
 7391TIP3    H143588   0.661   0.220   5.486 -0.6898  0.7519  2.4401
 7391TIP3    H243589   0.801   0.213   5.429 -2.0368 -2.8836 -0.9362
 7392TIP3   OH243590   6.599   5.691  14.709 -0.2836  0.0856  0.4751
 7392TIP3    H143591   6.509   5.718  14.688 -1.1753 -0.8744  2.7195
 7392TIP3    H243592   6.600   5.596  14.692  0.6270  0.2405 -0.4431
 7393TIP3   OH243593   3.058   3.008   2.532 -0.0946  0.3106  0.5840
 7393TIP3    H143594   2.976   2.961   2.519  0.3410 -0.2860 -0.1233
 7393TIP3    H243595   3.107   2.954   2.594  0.4157 -0.2124 -0.2475
 7394TIP3   OH243596   4.389   0.463   6.056  0.0522 -0.1444  0.4175
 7394TIP3    H143597   4.335   0.421   6.123  0.2087  0.5931  1.0138
 7394TIP3    H243598   4.478   0.456   6.090 -0.1290  2.8359  1.7518
 7395TIP3   OH243599   3.398   1.155   2.119 -0.3086  0.1603 -0.4030
 7395TIP3    H143600   3.401   1.059   2.119  1.1535  0.1568 -2.1263
 7395TIP3    H243601   3.403   1.179   2.026  2.2806  1.9234  0.0888
 7396TIP3   OH243602   3.242   2.183  12.162 -0.3047  0.2569  0.2014
 7396TIP3    H143603   3.151   2.171  12.188 -0.5111  0.4709 -0.3987
 7396TIP3    H243604   3.290   2.187  12.245 -1.1376  2.5439  0.6482
 7397TIP3   OH243605   2.157   1.727   2.392  0.2068 -0.7948  0.3318
 7397TIP3    H143606   2.206   1.690   2.319 -2.0203 -2.5655 -0.4171
 7397TIP3    H243607   2.079   1.671   2.399 -0.0223 -0.2836  3.6466
 7398TIP3   OH243608   3.695   6.377   2.295 -0.1807 -0.0891  0.0518
 7398TIP3    H143609   3.603   6.356   2.278  0.3062 -2.2412 -0.1749
 7398TIP3    H243610   3.692   6.440   2.367 -1.8952  1.8862 -1.6140
 7399TIP3   OH243611   0.496   2.555  16.689  0.2434  0.2789  0.0840
 7399TIP3    H143612   0.453   2.520  16.768 -1.7855 -1.9666 -1.8700
 7399TIP3    H243613   0.587   2.527  16.699  0.4856  1.6515  2.4475
 7400TIP3   OH243614   5.374   1.795   4.709 -0.1215  0.5351  0.0258
 7400TIP3    H143615   5.427   1.866   4.745  0.7647  0.1256 -0.4228
 7400TIP3    H243616   5.308   1.839   4.656  0.1920  1.0399  0.0468
 7401TIP3   OH243617   1.507   1.243  16.973 -0.0325 -0.4000 -0.3874
 7401TIP3    H143618   1.586   1.269  16.926  0.5591  1.0809  1.3136
 7401TIP3    H243619   1.506   1.299  17.051 -1.9391 -1.4715  0.4189
 7402TIP3   OH243620   0.159   1.757   2.321  0.3667 -0.0783 -0.3343
 7402TIP3    H143621   0.084   1.787   2.271  0.1262 -1.2589 -0.7130
 7402TIP3    H243622   0.151   1.662   2.322  1.6901 -0.2101 -0.1179
 7403TIP3   OH243623   3.238   6.056   3.736 -0.4496 -0.1372  0.4432
 7403TIP3    H143624   3.173   6.124   3.749 -1.0258 -0.9102  1.8171
 7403TIP3    H243625   3.188   5.981   3.704  0.2570  0.1909 -1.6307
 7404TIP3   OH243626   1.790   4.227  11.042 -0.4497 -0.0989 -0.5737
 7404TIP3    H143627   1.826   4.316  11.043  0.6074 -0.5101  0.6839
 7404TIP3    H243628   1.736   4.222  11.121 -0.4197 -0.6100 -0.5824
 7405TIP3   OH243629   5.983   1.512   1.313 -0.6552  0.3796  0.2156
 7405TIP3    H143630   5.904   1.472   1.350 -0.7323  1.0994  0.8357
 7405TIP3    H243631   5.974   1.497   1.218 -0.8607 -0.7417  0.4014
 7406TIP3   OH243632   4.585   0.052  11.956  0.6421 -1.1652  0.3138
 7406TIP3    H143633   4.581   0.104  12.036 -0.1126  0.4008 -0.6932
 7406TIP3    H243634   4.647  -0.018  11.976 -1.5006 -2.4231  3.1441
 7407TIP3   OH243635   1.863   4.241  11.660 -0.7343 -0.4833 -0.2826
 7407TIP3    H143636   1.892   4.316  11.712 -2.2339  0.7966 -1.2166
 7407TIP3    H243637   1.796   4.199  11.714 -0.5573 -0.6168 -0.1627
 7408TIP3   OH243638   3.384   6.642   0.527  0.1965 -0.2592 -0.0221
 7408TIP3    H143639   3.312   6.583   0.507  0.3049 -0.2181 -0.5475
 7408TIP3    H243640   3.455   6.616   0.468  0.1226  0.6222 -0.5212
 7409TIP3   OH243641   2.594   1.885  16.913 -0.1192 -0.2102  0.1001
 7409TIP3    H143642   2.552   1.814  16.962  1.7681 -1.3659  0.1547
 7409TIP3    H243643   2.634   1.841  16.838  1.6986  0.6452  0.5138
 7410TIP3   OH243644   2.086   6.614   1.801  0.1649  0.0487  0.0609
 7410TIP3    H143645   2.143   6.555   1.752 -0.6542 -0.2538 -0.5611
 7410TIP3    H243646   2.102   6.700   1.763 -0.9218 -0.2782 -1.2143
 7411TIP3   OH243647   0.927   5.580  12.485 -0.9165  0.2496 -0.6418
 7411TIP3    H143648   0.841   5.615  12.464 -0.8957  0.0469 -1.0764
 7411TIP3    H243649   0.972   5.651  12.530 -1.3706  0.2954 -0.2573
 7412TIP3   OH243650   1.817   3.305   1.496 -0.4104 -0.1740 -0.2232
 7412TIP3    H143651   1.752   3.355   1.544 -0.1875 -0.5908  0.5403
 7412TIP3    H243652   1.785   3.215   1.499 -0.0399 -0.3091 -0.2572
 7413TIP3   OH243653   0.980   0.496   0.344 -0.0381  0.3923 -0.2976
 7413TIP3    H143654   0.986   0.436   0.270  2.2533  0.3009 -0.1067
 7413TIP3    H243655   1.028   0.574   0.316  1.7698 -0.0435  1.3986
 7414TIP3   OH243656   4.772   5.989  12.378 -0.3744  0.4424 -0.0899
 7414TIP3    H143657   4.783   6.006  12.471  1.3912  0.5959 -0.2890
 7414TIP3    H243658   4.860   5.971  12.346 -0.9939 -0.0062 -1.6597
 7415TIP3   OH243659   0.042   1.479   3.953 -0.0357 -0.0862  0.1040
 7415TIP3    H143660   0.078   1.472   4.041 -0.2736 -0.7562  0.1545
 7415TIP3    H243661   0.109   1.440   3.897 -0.3177 -0.5952  0.1099
 7416TIP3   OH243662   6.601   0.300   2.497 -0.1380  0.0052  0.3892
 7416TIP3    H143663   6.626   0.341   2.414 -1.6575  2.1583  0.9168
 7416TIP3    H243664   6.524   0.248   2.476  0.9024 -1.4491  0.0216
 7417TIP3   OH243665   0.749   6.043   5.275 -0.4732 -0.1982  0.3790
 7417TIP3    H143666   0.834   6.002   5.294  0.5160  1.3433 -0.5390
 7417TIP3    H243667   0.768   6.137   5.274 -2.0146  0.1175 -0.7403
 7418TIP3   OH243668   4.908   0.941  14.409 -0.0648 -0.5951  0.2565
 7418TIP3    H143669   4.833   0.890  14.439  0.1181 -1.3051 -0.4529
 7418TIP3    H243670   4.918   1.010  14.474  0.1891 -1.9447  1.6918
 7419TIP3   OH243671   0.027   2.738  15.017 -0.3984 -0.2889  0.1647
 7419TIP3    H143672  -0.069   2.736  15.013 -0.4541  1.9329 -1.6926
 7419TIP3    H243673   0.055   2.746  14.925  1.4645  1.0561  0.7946
 7420TIP3   OH243674   2.687   3.303   2.978  0.2490  0.2114 -0.1423
 7420TIP3    H143675   2.754   3.339   3.036 -1.0231  1.5286  0.5800
 7420TIP3    H243676   2.690   3.360   2.900  0.6892 -0.4001 -0.5803
 7421TIP3   OH243677   3.192   2.019  16.070 -0.2725  0.3449 -0.6571
 7421TIP3    H143678   3.147   1.965  16.004 -3.9958  2.5182 -0.1401
 7421TIP3    H243679   3.240   2.084  16.018 -1.1030  0.5006 -1.2548
 7422TIP3   OH243680   4.217   6.245   5.127 -0.1395 -0.3669 -0.8226
 7422TIP3    H143681   4.197   6.337   5.116 -1.6873 -0.3415  1.4168
 7422TIP3    H243682   4.310   6.243   5.151 -0.3705  0.7540  0.2754
 7423TIP3   OH243683   5.437   4.671   1.335 -0.1445 -0.3463  0.4748
 7423TIP3    H143684   5.511   4.728   1.315 -0.3423 -0.1280  0.3640
 7423TIP3    H243685   5.407   4.699   1.421 -0.1049 -0.4300  0.5165
 7424TIP3   OH243686   2.482   2.357  11.628  0.3917  0.8127 -0.6031
 7424TIP3    H143687   2.528   2.278  11.655  1.1823  0.0646 -3.7172
 7424TIP3    H243688   2.399   2.325  11.591  0.3936  1.5092 -1.2248
 7425TIP3   OH243689   3.397   2.661   5.135 -0.4918  0.1660  0.2982
 7425TIP3    H143690   3.419   2.668   5.228  0.5078  0.7224  0.0350
 7425TIP3    H243691   3.467   2.608   5.098 -1.0096 -0.2437 -0.1091
 7426TIP3   OH243692   3.186   5.552  14.661 -0.8466 -0.4055 -0.2152
 7426TIP3    H143693   3.163   5.467  14.699 -0.5957  0.5952  2.3576
 7426TIP3    H243694   3.185   5.613  14.735  3.5663  1.0016 -0.9843
 7427TIP3   OH243695   5.027   0.598  12.616 -0.0770  0.2341 -0.2256
 7427TIP3    H143696   4.945   0.590  12.566 -0.0559  2.2218 -0.6675
 7427TIP3    H243697   5.066   0.680  12.585  2.7011 -1.2118 -0.8853
 7428TIP3   OH243698   3.834   6.407   4.678  0.2461  0.0091  0.5565
 7428TIP3    H143699   3.910   6.349   4.673 -0.8295 -1.6855  2.4761
 7428TIP3    H243700   3.857   6.472   4.743  0.8257  0.8055 -0.4145
 7429TIP3   OH243701   3.282   4.197   4.346 -0.3516  0.0781  0.5480
 7429TIP3    H143702   3.369   4.168   4.321 -0.4506  0.1958  0.0547
 7429TIP3    H243703   3.297   4.271   4.405 -0.1233  1.2578 -0.9466
 7430TIP3   OH243704   5.201   5.687  12.321  0.2603  0.0763  0.5930
 7430TIP3    H143705   5.135   5.618  12.315  0.4888 -0.1039  0.0651
 7430TIP3    H243706   5.281   5.641  12.347  0.6256 -0.0088 -0.6112
 7431TIP3   OH243707   0.616   5.699  12.686 -0.0695  0.4241 -0.1331
 7431TIP3    H143708   0.669   5.676  12.763  0.8190 -0.5480 -1.0124
 7431TIP3    H243709   0.597   5.615  12.644 -0.5775  0.9456 -0.9699
 7432TIP3   OH243710   4.972   3.605  11.159  0.1478 -0.2388 -0.8813
 7432TIP3    H143711   5.016   3.534  11.113 -0.7745 -0.8538 -0.8364
 7432TIP3    H243712   4.880   3.579  11.161  0.2325 -0.7736  2.1759
 7433TIP3   OH243713   5.873   2.177   4.513  0.1225  0.5039 -0.4368
 7433TIP3    H143714   5.932   2.131   4.452  2.0143  0.4830  1.3100
 7433TIP3    H243715   5.805   2.112   4.533  2.4028 -1.5047  1.4986
 7434TIP3   OH243716   0.435   5.467   1.358 -0.3462  0.0947 -0.1840
 7434TIP3    H143717   0.351   5.422   1.358 -0.3272  0.0477 -1.0759
 7434TIP3    H243718   0.486   5.423   1.290 -0.5572  1.8573 -1.5669
 7435TIP3   OH243719   1.099   5.545  16.425 -1.0090 -0.8008  0.0340
 7435TIP3    H143720   1.006   5.551  16.402 -0.3923 -0.3162 -2.6235
 7435TIP3    H243721   1.123   5.454  16.405 -0.8901 -0.9310  0.7357
 7436TIP3   OH243722   0.410   1.139   1.988  0.0331  0.1779  0.2579
 7436TIP3    H143723   0.405   1.233   2.005 -0.5156 -0.1604  2.2958
 7436TIP3    H243724   0.451   1.103   2.067  1.2392 -1.1898 -0.9427
 7437TIP3   OH243725   1.904   0.014   1.308 -0.2225 -0.3103 -0.1681
 7437TIP3    H143726   1.938  -0.056   1.253  0.9098 -0.2517  0.4420
 7437TIP3    H243727   1.835  -0.028   1.360  0.1639 -0.8695 -0.1046
 7438TIP3   OH243728   3.923   4.817   4.475 -0.0187 -0.0616  0.3250
 7438TIP3    H143729   3.924   4.721   4.472  1.1986 -0.1313  1.7810
 7438TIP3    H243730   4.015   4.842   4.471 -0.3295  1.0661 -0.0979
 7439TIP3   OH243731   2.212   0.810   1.518 -0.6491  0.2838  0.3829
 7439TIP3    H143732   2.229   0.826   1.425  0.1896  1.1455  0.6738
 7439TIP3    H243733   2.293   0.834   1.562 -0.8590 -0.6152  1.3038
 7440TIP3   OH243734   0.092   4.801   5.662 -0.3444  0.0218 -0.0483
 7440TIP3    H143735   0.050   4.826   5.580 -0.5996  0.5517  0.2382
 7440TIP3    H243736   0.026   4.819   5.729  0.7222  1.9985  0.5447
 7441TIP3   OH243737   4.030   0.383  14.499 -0.2111  0.3080 -0.0213
 7441TIP3    H143738   4.020   0.473  14.470 -0.2483 -0.6064 -3.3055
 7441TIP3    H243739   3.954   0.337  14.462 -0.1523 -1.0952  1.4793
 7442TIP3   OH243740   1.469   5.313   2.627  0.1119 -0.9475 -0.1623
 7442TIP3    H143741   1.407   5.270   2.686  0.2961 -1.2455 -0.1838
 7442TIP3    H243742   1.546   5.256   2.627  1.0565  0.2570  1.1600
 7443TIP3   OH243743   3.863   0.504   3.373 -0.1921 -0.0860  0.3939
 7443TIP3    H143744   3.873   0.545   3.459  0.7208  0.9400 -0.1704
 7443TIP3    H243745   3.947   0.520   3.329 -0.0347 -2.0288 -0.1074
 7444TIP3   OH243746   4.645   4.370   2.107  0.2719  0.0891 -0.1199
 7444TIP3    H143747   4.556   4.398   2.084  0.2350  0.3484  0.3279
 7444TIP3    H243748   4.686   4.350   2.023 -0.5807 -1.1838 -0.2648
 7445TIP3   OH243749   4.832   5.340  13.608  0.2479  0.5487  0.3562
 7445TIP3    H143750   4.874   5.256  13.590  2.5485  1.4255  1.3182
 7445TIP3    H243751   4.824   5.343  13.703 -1.8134  0.5534  0.2294
 7446TIP3   OH243752   5.805   3.412  12.200  0.1032 -0.7472  0.3970
 7446TIP3    H143753   5.896   3.407  12.171 -0.2624 -0.0358 -0.9185
 7446TIP3    H243754   5.773   3.495  12.165 -0.6519 -0.2875  2.0740
 7447TIP3   OH243755   1.561   4.924   2.641  0.4237  0.0251 -0.5547
 7447TIP3    H143756   1.655   4.909   2.653  0.4397 -0.2419 -0.9760
 7447TIP3    H243757   1.545   4.897   2.550 -0.5175 -2.3129  0.2356
 7448TIP3   OH243758   6.165   5.221   6.146 -0.3610  0.6684  0.6998
 7448TIP3    H143759   6.250   5.222   6.191 -0.8941  1.4963  1.7470
 7448TIP3    H243760   6.114   5.155   6.193 -0.8003  1.2796  1.1020
 7449TIP3   OH243761   2.957   6.508   5.933  0.1111 -0.5140  0.7778
 7449TIP3    H143762   3.035   6.463   5.899  0.2397  0.6155 -0.5484
 7449TIP3    H243763   2.984   6.542   6.018  0.5804 -1.3965  0.9938
 7450TIP3   OH243764   3.925   0.562   3.913 -0.3004 -0.0277  0.2032
 7450TIP3    H143765   3.995   0.628   3.907  0.9424 -1.3873 -1.6876
 7450TIP3    H243766   3.966   0.487   3.956 -0.9673 -0.4001  0.2065
 7451TIP3   OH243767   6.624   2.831   1.795  0.1201 -0.2618  0.0650
 7451TIP3    H143768   6.553   2.831   1.730 -0.6008  0.0169  0.8354
 7451TIP3    H243769   6.635   2.739   1.819 -0.7866 -0.1925  0.7933
 7452TIP3   OH243770   5.790   5.114   1.514  0.0042 -0.4668 -0.1532
 7452TIP3    H143771   5.765   5.096   1.424 -0.3082  0.1293 -0.1920
 7452TIP3    H243772   5.712   5.094   1.566 -0.8718  2.0562 -0.3484
 7453TIP3   OH243773   6.602   1.025  16.444 -0.5013 -0.1867  0.0905
 7453TIP3    H143774   6.644   1.106  16.473 -1.1686  0.5011 -0.8371
 7453TIP3    H243775   6.630   1.014  16.354 -0.0776 -1.2347  0.3308
 7454TIP3   OH243776   3.109   4.528  16.793 -0.8511  0.1499  0.5788
 7454TIP3    H143777   3.110   4.532  16.889  0.4684  0.2572  0.5748
 7454TIP3    H243778   3.122   4.436  16.772  0.4853  0.3431  0.5057
 7455TIP3   OH243779   5.396   2.355  11.632 -0.1279 -0.8678  0.1170
 7455TIP3    H143780   5.391   2.404  11.550  0.5167 -2.0260 -0.6418
 7455TIP3    H243781   5.333   2.398  11.690  1.1825  1.5420 -0.1245
 7456TIP3   OH243782   6.294   2.923   5.106 -0.0732  0.6749  0.3441
 7456TIP3    H143783   6.283   2.920   5.011  0.0971  1.0978  0.3122
 7456TIP3    H243784   6.364   2.860   5.124 -0.2246  0.4648  0.2094
 7457TIP3   OH243785   5.018   5.736   0.250 -0.5407  0.3327  0.4173
 7457TIP3    H143786   5.097   5.787   0.270 -2.0741  2.4723  1.4152
 7457TIP3    H243787   5.038   5.648   0.281  0.0734  1.6975  4.4644
 7458TIP3   OH243788   1.391   3.871  14.576  0.2029 -0.1917 -0.3058
 7458TIP3    H143789   1.477   3.873  14.534  1.2234  0.7590  1.6877
 7458TIP3    H243790   1.410   3.853  14.668 -1.8314 -0.9766  0.0056
 7459TIP3   OH243791   3.281   6.227  12.058  0.0754  0.3607 -0.0284
 7459TIP3    H143792   3.243   6.160  12.000  0.8462  0.1045 -0.2488
 7459TIP3    H243793   3.215   6.240  12.125 -1.3716  1.5211 -1.5794
 7460TIP3   OH243794   3.454   1.676  13.235 -0.4807 -0.1289  0.4792
 7460TIP3    H143795   3.363   1.645  13.233 -0.3620 -0.5013  0.8847
 7460TIP3    H243796   3.469   1.703  13.326 -0.9124  2.1277 -0.0579
 7461TIP3   OH243797   0.014   4.815  14.800 -0.1961  0.7359 -0.6104
 7461TIP3    H143798  -0.080   4.819  14.783 -0.2314  0.9385 -0.3757
 7461TIP3    H243799   0.025   4.860  14.884  0.1490  0.9617 -0.7756
 7462TIP3   OH243800   4.298   6.739  17.078  0.6358  0.0826  0.0873
 7462TIP3    H143801   4.300   6.761  17.171  1.3349 -0.9244  0.3256
 7462TIP3    H243802   4.384   6.764  17.045  1.3552 -1.8619  0.3040
 7463TIP3   OH243803   1.517   0.443  14.130 -0.0362  0.3270 -0.0641
 7463TIP3    H143804   1.526   0.534  14.155 -1.9037  1.0296 -1.6769
 7463TIP3    H243805   1.543   0.393  14.207 -0.9767  2.2405  1.5521
 7464TIP3   OH243806   3.459   4.691   2.230 -1.0168  0.3589 -0.2686
 7464TIP3    H143807   3.470   4.658   2.142 -0.9564 -1.3429  0.3503
 7464TIP3    H243808   3.463   4.614   2.286  0.1409  1.5048  1.3309
 7465TIP3   OH243809   1.901   3.521  15.767 -1.1586 -0.0267 -0.3692
 7465TIP3    H143810   1.850   3.448  15.732 -1.1957  0.3365 -1.0894
 7465TIP3    H243811   1.985   3.515  15.723 -1.0841  0.2316 -0.2650
 7466TIP3   OH243812   1.207   6.182  16.639 -0.0397  0.2709  0.1058
 7466TIP3    H143813   1.159   6.152  16.562 -0.7955 -0.4162  0.8218
 7466TIP3    H243814   1.181   6.122  16.709  2.0723 -0.2867  0.4751
 7467TIP3   OH243815   0.983   3.082  14.079 -0.0370 -0.4172  0.4216
 7467TIP3    H143816   1.029   3.017  14.132  0.3201 -0.7993 -0.3454
 7467TIP3    H243817   0.977   3.043  13.992 -0.5745  0.2207  0.1632
 7468TIP3   OH243818   5.071   1.456  13.239  0.1891 -0.4779 -0.2813
 7468TIP3    H143819   5.070   1.485  13.330 -0.5440 -2.5601  0.4304
 7468TIP3    H243820   4.984   1.476  13.207 -0.1826 -1.4657  0.0838
 7469TIP3   OH243821   6.603   4.607  11.757 -0.4996  0.1823 -0.4291
 7469TIP3    H143822   6.613   4.637  11.847 -0.5178  2.0022 -0.9910
 7469TIP3    H243823   6.529   4.546  11.759  0.0574 -0.4702  0.9155
 7470TIP3   OH243824   2.812   4.322  11.482  0.3228 -0.1998  0.1667
 7470TIP3    H143825   2.819   4.256  11.413  3.7199  2.0699 -1.9435
 7470TIP3    H243826   2.900   4.327  11.519  0.0034  2.5296  0.7731
 7471TIP3   OH243827   1.935   6.681   0.813  0.1220 -0.3449  0.0294
 7471TIP3    H143828   2.004   6.621   0.842 -0.5673 -1.4361 -0.5352
 7471TIP3    H243829   1.961   6.766   0.850  1.7568 -0.7220 -0.1473
 7472TIP3   OH243830   2.269   4.619  16.946  0.5859  0.0882 -0.0587
 7472TIP3    H143831   2.216   4.569  16.884  0.4109 -0.3443  0.4370
 7472TIP3    H243832   2.358   4.614  16.911  0.3216  0.8312 -0.9093
 7473TIP3   OH243833   5.667   4.542  11.662  0.3352  0.0776  0.2213
 7473TIP3    H143834   5.628   4.601  11.727  0.5687 -0.2884  0.6974
 7473TIP3    H243835   5.716   4.600  11.604  1.1227  0.2988  1.0851
 7474TIP3   OH243836   5.026   6.746  16.594 -0.4220  0.3036  0.1118
 7474TIP3    H143837   5.039   6.794  16.512  3.2784 -0.6469 -0.0563
 7474TIP3    H243838   5.008   6.814  16.658  1.3651  1.6521 -0.7086
 7475TIP3   OH243839   2.364   6.025  11.730  0.5817 -0.5643 -0.4135
 7475TIP3    H143840   2.424   6.086  11.773 -2.4155  1.4112  1.4047
 7475TIP3    H243841   2.333   5.968  11.800 -3.4859  1.9210  0.1294
 7476TIP3   OH243842   4.873   1.160  13.751  0.1036  0.3150  0.3958
 7476TIP3    H143843   4.841   1.073  13.729  0.8640 -0.3464  1.7987
 7476TIP3    H243844   4.797   1.217  13.737 -0.1069 -0.3805 -1.5274
 7477TIP3   OH243845   4.414   0.952  12.602  0.0439 -0.0405 -0.0333
 7477TIP3    H143846   4.418   1.048  12.605 -0.5642  0.0105 -0.5905
 7477TIP3    H243847   4.473   0.923  12.672 -0.1270  0.7445  0.4451
 7478TIP3   OH243848   4.774   2.481  12.355  0.4479 -0.0016 -0.4950
 7478TIP3    H143849   4.794   2.559  12.302  2.7279  0.4466  0.8669
 7478TIP3    H243850   4.806   2.408  12.303  0.1699  0.1729 -0.9119
 7479TIP3   OH243851   3.147   4.347  15.791 -0.2074  0.5842 -0.1202
 7479TIP3    H143852   3.198   4.268  15.770 -1.8672  0.0692 -2.6615
 7479TIP3    H243853   3.212   4.418  15.790  1.0939 -0.5396  0.8532
 7480TIP3   OH243854   2.667   4.484  14.470  0.4190  0.0578 -0.6607
 7480TIP3    H143855   2.621   4.477  14.387  0.6590 -1.1130 -0.7018
 7480TIP3    H243856   2.628   4.417  14.526 -0.3874  1.4290  0.5095
 7481TIP3   OH243857   2.526   6.057  15.010 -0.3414 -0.6037 -0.3779
 7481TIP3    H143858   2.589   6.030  14.944  0.4727  1.4913 -0.5084
 7481TIP3    H243859   2.456   6.100  14.961  1.2849  2.9201  0.1295
 7482TIP3   OH243860   2.262   6.325  14.207 -0.1008  0.0853 -0.0710
 7482TIP3    H143861   2.318   6.249  14.223  0.6085  0.6821  0.3796
 7482TIP3    H243862   2.228   6.348  14.294 -0.0432  0.4851 -0.1547
 7483TIP3   OH243863   3.337   2.649   1.455 -0.0029 -0.4065 -0.7220
 7483TIP3    H143864   3.419   2.628   1.410  0.7880  0.6696  0.1573
 7483TIP3    H243865   3.296   2.564   1.472 -0.1652 -0.8672 -3.1273
 7484TIP3   OH243866   0.139   3.826   4.976  0.1099 -0.5286  0.6177
 7484TIP3    H143867   0.125   3.890   4.906  0.8596  0.0373  0.9717
 7484TIP3    H243868   0.170   3.747   4.931  0.1417 -0.3174  0.2665
 7485TIP3   OH243869   4.515   6.162   5.619 -0.0017  0.2519 -0.6032
 7485TIP3    H143870   4.496   6.074   5.651  0.7088 -0.1257 -1.1918
 7485TIP3    H243871   4.463   6.170   5.539 -1.1226  0.8860  0.1547
 7486TIP3   OH243872   3.584   0.067  13.805  0.8467 -0.0905 -0.1020
 7486TIP3    H143873   3.519   0.075  13.736  0.1951  0.1945  0.5362
 7486TIP3    H243874   3.604   0.157  13.829  0.9808 -0.1923  0.1672
 7487TIP3   OH243875   1.413   5.636  16.352  0.0869 -0.0735  0.0421
 7487TIP3    H143876   1.324   5.625  16.386  0.2148 -1.2864  0.0245
 7487TIP3    H243877   1.467   5.649  16.430 -0.0945  0.6506  0.0537
 7488TIP3   OH243878   2.636   2.331  16.722  0.0787  0.0119  0.2035
 7488TIP3    H143879   2.625   2.405  16.663  0.5081  1.1811  1.5246
 7488TIP3    H243880   2.731   2.320  16.730  0.0166 -0.7900 -0.1088
 7489TIP3   OH243881   5.558   4.207  14.329  0.5164  0.3469 -0.3568
 7489TIP3    H143882   5.511   4.240  14.253 -0.6063 -0.4605 -0.0290
 7489TIP3    H243883   5.650   4.210  14.303  0.2308  1.0490 -1.3562
 7490TIP3   OH243884   1.539   2.221   3.210 -0.2984 -0.2347  0.1063
 7490TIP3    H143885   1.444   2.223   3.216 -0.3043 -0.1314 -0.0190
 7490TIP3    H243886   1.560   2.269   3.130 -0.1903 -1.0731 -0.3785
 7491TIP3   OH243887   2.054   5.126   1.220 -0.1136 -0.1917 -0.3054
 7491TIP3    H143888   2.060   5.162   1.309  4.7529  0.0365 -0.4585
 7491TIP3    H243889   2.060   5.031   1.233 -0.7682 -0.2395 -0.3484
 7492TIP3   OH243890   0.603   2.889  11.903  0.7849 -0.8115  0.1367
 7492TIP3    H143891   0.615   2.970  11.855  1.1193 -1.1139 -0.2996
 7492TIP3    H243892   0.679   2.836  11.880  0.5305 -1.2780  0.3533
 7493TIP3   OH243893   5.312   3.342  12.561 -0.2351  0.1617  0.1083
 7493TIP3    H143894   5.289   3.312  12.649 -0.5258 -1.6089 -0.5306
 7493TIP3    H243895   5.303   3.437  12.565  0.2021  0.1717  2.1067
 7494TIP3   OH243896   3.390   1.737   1.206  0.1165  0.1824 -0.4231
 7494TIP3    H143897   3.416   1.826   1.230  1.5053 -0.2524 -0.2246
 7494TIP3    H243898   3.299   1.730   1.236  0.1132  1.4014 -0.0900
 7495TIP3   OH243899   3.938   2.396  15.932  0.2674  0.7089  0.0250
 7495TIP3    H143900   3.958   2.419  16.022  2.3422  0.5293 -0.3547
 7495TIP3    H243901   3.920   2.302  15.934  1.4327  0.4738  0.1053
 7496TIP3   OH243902   0.494   3.491   6.526 -0.2573  0.7273 -0.3990
 7496TIP3    H143903   0.410   3.475   6.569  0.9890  1.7351  2.7622
 7496TIP3    H243904   0.497   3.586   6.515 -0.5294  0.4948 -2.8973
 7497TIP3   OH243905   0.083   0.532   2.414 -0.1700  0.2571  0.1787
 7497TIP3    H143906   0.145   0.563   2.347  1.3575 -1.3353  0.7512
 7497TIP3    H243907   0.027   0.471   2.368 -0.6666  0.9327 -0.1272
 7498TIP3   OH243908   4.986   3.892  12.925  0.2704  0.1812  0.1011
 7498TIP3    H143909   5.045   3.881  13.001  0.2910 -0.5558 -0.0126
 7498TIP3    H243910   4.934   3.812  12.924  1.9255 -0.9819 -2.0937
 7499TIP3   OH243911   6.559   3.117  12.823 -0.0449 -0.4968  0.2510
 7499TIP3    H143912   6.563   3.141  12.915  0.9556  1.2546 -0.2104
 7499TIP3    H243913   6.552   3.021  12.823  2.3424 -0.7669  2.1300
 7500TIP3   OH243914   2.641   4.619  11.746 -0.1671 -0.3699 -0.3219
 7500TIP3    H143915   2.685   4.665  11.675  0.0025  1.5222  0.9238
 7500TIP3    H243916   2.602   4.541  11.705  0.8768  0.0593 -2.2206
 7501TIP3   OH243917   1.540   5.907  13.583 -0.4233 -0.3108 -0.2379
 7501TIP3    H143918   1.583   5.968  13.523 -2.5179 -0.7072 -2.2873
 7501TIP3    H243919   1.601   5.833  13.590  0.8277  0.7121 -0.0802
 7502TIP3   OH243920   2.602   3.914  14.756 -1.0670 -0.5132  0.3887
 7502TIP3    H143921   2.572   3.827  14.782 -3.1414 -0.4606 -1.5388
 7502TIP3    H243922   2.555   3.933  14.675 -0.4901  2.3244  0.5987
 7503TIP3   OH243923   3.202   0.220  13.862  0.0204  0.2844  0.3402
 7503TIP3    H143924   3.212   0.302  13.813 -1.3551  0.1931 -0.1493
 7503TIP3    H243925   3.138   0.170  13.810 -0.1047 -0.5615  1.2987
 7504TIP3   OH243926   2.192   3.592  12.338  0.5033  0.2438  0.4362
 7504TIP3    H143927   2.109   3.632  12.313  0.4692  0.2123  0.4983
 7504TIP3    H243928   2.198   3.514  12.282 -0.7214 -1.1730  2.1528
 7505TIP3   OH243929   4.646   5.011   4.148  0.5570 -0.4091  0.0624
 7505TIP3    H143930   4.722   4.979   4.098  0.8008  0.3728 -0.0849
 7505TIP3    H243931   4.581   5.031   4.081 -0.1541 -1.9818  0.2439
 7506TIP3   OH243932   4.712   3.562  16.211 -0.3866  0.5159  0.0018
 7506TIP3    H143933   4.679   3.482  16.251  1.7834 -0.4881 -0.0587
 7506TIP3    H243934   4.732   3.619  16.285 -0.4243  0.3535  0.1393
 7507TIP3   OH243935   0.905   5.689  15.786  0.1587  0.2717  0.2312
 7507TIP3    H143936   0.913   5.594  15.777  2.7808  0.3359  1.0236
 7507TIP3    H243937   0.826   5.701  15.839 -0.3550 -1.4353 -0.0598
 7508TIP3   OH243938   4.472   6.137   0.282 -0.0339  0.1852 -0.0237
 7508TIP3    H143939   4.408   6.198   0.244  1.0803  1.0651 -0.5351
 7508TIP3    H243940   4.547   6.141   0.222  0.6004 -0.6269  0.7080
 7509TIP3   OH243941   0.430   3.635   6.271  1.0017  0.0079 -0.4137
 7509TIP3    H143942   0.415   3.695   6.344  1.0972  1.0384 -1.2279
 7509TIP3    H243943   0.386   3.554   6.297  3.5493 -0.7367  2.1762
 7510TIP3   OH243944   1.365   3.124   1.549  0.2577  0.4151 -0.3756
 7510TIP3    H143945   1.286   3.096   1.596  2.0883 -2.7011  1.1146
 7510TIP3    H243946   1.366   3.071   1.470 -0.4564  2.4544 -1.8556
 7511TIP3   OH243947   4.559   0.315  10.446  0.2230 -0.1282  0.1029
 7511TIP3    H143948   4.493   0.347  10.507  0.0451 -2.7787  1.4701
 7511TIP3    H243949   4.511   0.298  10.365 -0.5798 -1.0388  0.7527
 7512TIP3   OH243950   1.660   5.641  15.378  0.2409  0.2897 -0.4879
 7512TIP3    H143951   1.732   5.584  15.404  3.1567  2.3968 -3.1923
 7512TIP3    H243952   1.649   5.624  15.284 -1.1813  1.7639 -0.6253
 7513TIP3   OH243953   1.559   6.313  14.698 -0.4059  0.3071 -1.0350
 7513TIP3    H143954   1.538   6.390  14.753  0.1994 -1.5361  2.0324
 7513TIP3    H243955   1.482   6.257  14.706  1.0810 -1.6088  1.1383
 7514TIP3   OH243956   2.418   1.828   4.723  0.6642 -0.8481  0.0500
 7514TIP3    H143957   2.474   1.753   4.704 -0.9445 -1.8513 -0.9618
 7514TIP3    H243958   2.379   1.851   4.639  1.3054  1.3270  0.2804
 7515TIP3   OH243959   2.908   4.794  12.362 -0.1021  0.8867 -0.1727
 7515TIP3    H143960   2.986   4.849  12.356  1.2046 -0.9342 -0.6467
 7515TIP3    H243961   2.905   4.768  12.454  1.2112 -0.8387 -0.5624
 7516TIP3   OH243962   0.969   4.410  16.071  0.2763  0.5076  0.7047
 7516TIP3    H143963   1.016   4.494  16.068  1.5111 -0.1863 -0.3534
 7516TIP3    H243964   0.967   4.380  15.980 -1.6017  0.1404  0.8292
 7517TIP3   OH243965   5.316   3.033  16.230  0.8103 -0.5220 -0.5623
 7517TIP3    H143966   5.278   3.042  16.317 -2.4558  1.3081 -2.0085
 7517TIP3    H243967   5.285   2.948  16.199 -1.1933  0.3958 -1.2328
 7518TIP3   OH243968   0.959   6.713  13.149  0.2493  0.5957 -0.4650
 7518TIP3    H143969   1.051   6.733  13.133  0.5384  3.3678  3.2403
 7518TIP3    H243970   0.954   6.618  13.149  2.4407  0.3465 -3.3824
 7519TIP3   OH243971   1.399   0.716  15.659 -0.2187 -0.2114 -0.0643
 7519TIP3    H143972   1.360   0.634  15.629  1.0354 -0.1961 -1.8790
 7519TIP3    H243973   1.468   0.689  15.720 -1.5158 -0.3240  1.4483
 7520TIP3   OH243974   1.712   1.255  14.274  0.5223 -0.3588 -0.2670
 7520TIP3    H143975   1.721   1.328  14.335  1.2900  1.3059 -2.2412
 7520TIP3    H243976   1.801   1.240  14.242  0.1850 -1.3523 -0.7880
 7521TIP3   OH243977   1.117   5.802  11.400  0.0065 -0.4322  0.1436
 7521TIP3    H143978   1.187   5.739  11.383  0.1913 -0.4613  1.0076
 7521TIP3    H243979   1.149   5.856  11.472 -0.7901 -0.3386  0.4416
 7522TIP3   OH243980   4.895   4.752  14.065  0.2152 -0.3615  0.5232
 7522TIP3    H143981   4.938   4.689  14.122 -1.2043 -0.8575  1.1070
 7522TIP3    H243982   4.817   4.779  14.114 -0.9256 -0.6282 -1.0409
 7523TIP3   OH243983   3.941   6.728  16.898  0.0699  0.2612  0.1337
 7523TIP3    H143984   3.891   6.692  16.971  0.3031 -0.7743 -0.1902
 7523TIP3    H243985   3.988   6.802  16.935  0.3721 -0.3919  1.1062
 7524TIP3   OH243986   4.225   0.261  16.601  0.2346 -0.1618  0.3841
 7524TIP3    H143987   4.222   0.206  16.679  2.3683  0.7371  1.1853
 7524TIP3    H243988   4.319   0.274  16.585 -0.1848  1.0257 -1.3656
 7525TIP3   OH243989   6.438   2.695   5.154  0.0367  0.8602  0.0378
 7525TIP3    H143990   6.450   2.728   5.243  2.6701  1.0801 -0.3260
 7525TIP3    H243991   6.432   2.600   5.165 -0.3295  0.9339  0.5042
 7526TIP3   OH243992   3.885   6.236   5.872  0.4915 -0.1552  0.4433
 7526TIP3    H143993   3.824   6.215   5.801  0.4898  1.3760 -0.0305
 7526TIP3    H243994   3.829   6.249   5.948  0.1561  1.5183 -0.0509
 7527TIP3   OH243995   0.315   4.668   5.329 -0.1373 -0.0179 -0.0158
 7527TIP3    H143996   0.302   4.574   5.339  0.6683  0.0096  1.6834
 7527TIP3    H243997   0.370   4.677   5.251  0.8098 -1.0664  0.5082
 7528TIP3   OH243998   3.446   3.784   5.494  0.3740  0.4160  0.4094
 7528TIP3    H143999   3.511   3.716   5.516  2.0559  2.5368  2.5122
 7528TIP3    H244000   3.441   3.838   5.573 -2.8827  1.2575 -0.2653
 7529TIP3   OH244001   6.321   0.275  16.259 -0.1689  0.7759  0.3505
 7529TIP3    H144002   6.289   0.244  16.343  0.0754  1.4416  0.6919
 7529TIP3    H244003   6.411   0.240  16.254 -0.4741  0.0187 -0.0228
 7530TIP3   OH244004   4.450   5.109   1.246 -0.2904 -0.6165  0.4575
 7530TIP3    H144005   4.448   5.192   1.199 -0.9259 -0.0599  1.4282
 7530TIP3    H244006   4.541   5.098   1.273  0.0421 -0.8611 -0.7363
 7531TIP3   OH244007   1.450   3.861  12.698  0.5968  0.1847 -0.1175
 7531TIP3    H144008   1.396   3.860  12.619 -0.2723  0.3958  0.4563
 7531TIP3    H244009   1.473   3.769  12.712 -0.2698 -0.0189  0.0513
 7532TIP3   OH244010   1.444   1.433  13.422 -0.8458 -0.5873  0.0689
 7532TIP3    H144011   1.416   1.350  13.462  0.8028 -0.8970  0.6702
 7532TIP3    H244012   1.452   1.493  13.495 -1.9238  0.0926 -0.3561
 7533TIP3   OH244013   3.196   3.936   4.437 -0.1579  0.0261  0.0789
 7533TIP3    H144014   3.147   3.930   4.520 -1.0703 -0.4295 -0.4755
 7533TIP3    H244015   3.214   4.030   4.427 -3.7278  0.7418 -1.2197
 7534TIP3   OH244016   4.978   1.149   1.703 -0.1635  0.1079  0.0641
 7534TIP3    H144017   4.961   1.061   1.735 -0.7320 -0.3698 -1.4476
 7534TIP3    H244018   5.019   1.136   1.617  0.7014  1.3126  0.2759
 7535TIP3   OH244019   0.703   2.341  15.960 -0.8480 -0.0080  0.0224
 7535TIP3    H144020   0.776   2.400  15.946 -0.6553 -0.6791 -2.2004
 7535TIP3    H244021   0.665   2.369  16.043  0.2522  2.1231 -0.1198
 7536TIP3   OH244022   1.411   5.234   5.552  0.7005  0.0881  0.1752
 7536TIP3    H144023   1.328   5.275   5.528 -0.1144 -1.0993  0.8739
 7536TIP3    H244024   1.478   5.298   5.526 -0.4177  1.0316 -0.4587
 7537TIP3   OH244025   5.223   0.639   3.441  0.8363 -0.0236 -0.0967
 7537TIP3    H144026   5.165   0.715   3.437  0.0641 -0.6178 -0.5041
 7537TIP3    H244027   5.228   0.618   3.535 -0.3202 -0.4866 -0.1269
 7538TIP3   OH244028   6.490   0.775   5.668 -0.0054 -0.0803  0.1056
 7538TIP3    H144029   6.410   0.807   5.712  0.7191  1.4740  0.3666
 7538TIP3    H244030   6.543   0.739   5.739  0.7720  1.6087  0.4475
 7539TIP3   OH244031   0.888   2.816  13.363  0.3937  0.1727  0.4142
 7539TIP3    H144032   0.929   2.743  13.409 -0.5129  0.5085  1.8215
 7539TIP3    H244033   0.949   2.889  13.374  1.0866 -0.2328 -0.6059
 7540TIP3   OH244034   6.505   4.124  14.866 -0.0591  0.1449 -0.3252
 7540TIP3    H144035   6.592   4.163  14.879 -0.0398 -0.2539  0.9049
 7540TIP3    H244036   6.484   4.142  14.775  1.1431  0.6045 -0.5325
 7541TIP3   OH244037   5.991   4.713   1.822  0.1593  0.1465 -0.7740
 7541TIP3    H144038   5.916   4.692   1.877  1.6470 -0.2460  1.1877
 7541TIP3    H244039   6.050   4.638   1.831  0.9925  0.6229 -1.9525
 7542TIP3   OH244040   0.114   2.683   4.498  0.2915 -0.1861  0.5659
 7542TIP3    H144041   0.037   2.644   4.539  0.1563  0.2994  0.7758
 7542TIP3    H244042   0.084   2.709   4.411  0.5085 -0.9742  0.2434
 7543TIP3   OH244043   2.513   4.427   5.403  0.4402  0.4689  0.2265
 7543TIP3    H144044   2.450   4.357   5.415  0.6950  0.0181 -0.9255
 7543TIP3    H244045   2.573   4.419   5.477  0.8450 -0.9440 -0.2272
 7544TIP3   OH244046   1.848   1.959  12.030  0.2777  0.3310 -0.1943
 7544TIP3    H144047   1.850   1.864  12.015 -2.3722  0.3486 -1.3519
 7544TIP3    H244048   1.902   1.995  11.960 -0.0909 -0.2695 -0.8061
 7545TIP3   OH244049   6.662   5.725   4.422  0.5233 -0.5066  0.4991
 7545TIP3    H144050   6.707   5.810   4.418 -0.1041 -0.2089 -1.1682
 7545TIP3    H244051   6.720   5.665   4.376 -0.8970  0.0074 -2.2118
 7546TIP3   OH244052   3.145   4.839  16.789  0.4686 -0.3199  0.0416
 7546TIP3    H144053   3.160   4.790  16.708 -0.9162 -0.6812 -0.0051
 7546TIP3    H244054   3.086   4.785  16.841  0.7177  0.2687  0.9667
 7547TIP3   OH244055   4.511   3.417   0.454 -0.1620 -0.1304 -0.0148
 7547TIP3    H144056   4.469   3.432   0.369  1.5241  0.1896 -0.8326
 7547TIP3    H244057   4.442   3.377   0.508 -0.7324 -2.3723 -2.1891
 7548TIP3   OH244058   2.734   4.387  12.995  0.3897 -0.0083 -0.3069
 7548TIP3    H144059   2.826   4.374  12.971 -0.0513 -0.3979 -1.9085
 7548TIP3    H244060   2.685   4.359  12.918 -1.0061  2.2090 -0.3100
 7549TIP3   OH244061   4.580   3.160   0.022 -0.1645 -0.1510  0.1270
 7549TIP3    H144062   4.519   3.164  -0.051  1.2333  0.9414 -1.0530
 7549TIP3    H244063   4.585   3.250   0.054  0.1988 -0.3819  0.7331
 7550TIP3   OH244064   2.229   4.257   3.378  0.0244  0.0967 -0.2345
 7550TIP3    H144065   2.186   4.216   3.303  0.1192 -0.5980  0.0892
 7550TIP3    H244066   2.257   4.184   3.434  0.1745  0.5954  0.3585
 7551TIP3   OH244067   2.904   1.586  11.910 -0.7157 -0.0058 -0.5438
 7551TIP3    H144068   2.986   1.563  11.953 -1.9158 -0.6292  1.5775
 7551TIP3    H244069   2.919   1.566  11.817  0.8915 -1.9849  0.0599
 7552TIP3   OH244070   0.909   4.437   6.105 -0.6901 -0.9593 -0.3042
 7552TIP3    H144071   1.000   4.408   6.093 -0.2131  0.1816  0.3122
 7552TIP3    H244072   0.917   4.531   6.125 -1.8661 -1.2121  1.5903
 7553TIP3   OH244073   4.548   5.399  16.165  0.0598 -0.3324 -0.0021
 7553TIP3    H144074   4.572   5.422  16.076  1.1170 -1.2113  0.0337
 7553TIP3    H244075   4.608   5.329  16.189 -1.2842 -1.2630  0.8205
 7554TIP3   OH244076   2.833   1.846  14.532  0.6983 -0.1002  0.0757
 7554TIP3    H144077   2.784   1.922  14.565 -0.1772 -0.4011 -0.4882
 7554TIP3    H244078   2.773   1.804  14.470  1.9225 -0.0949 -1.1699
 7555TIP3   OH244079   5.702   1.173  13.483 -0.0568  0.2217 -0.6924
 7555TIP3    H144080   5.622   1.150  13.437 -0.7146 -0.2972  0.6559
 7555TIP3    H244081   5.761   1.099  13.467  0.6759  1.1739 -2.7498
 7556TIP3   OH244082   3.993   0.462  12.398 -0.5513  0.0260 -0.0453
 7556TIP3    H144083   4.017   0.554  12.399 -1.4898  0.2842  0.5746
 7556TIP3    H244084   3.978   0.440  12.490  1.8892 -1.3831  0.0986
 7557TIP3   OH244085   4.212   4.917   0.981  0.2854 -0.8308  0.3442
 7557TIP3    H144086   4.282   4.853   0.973  2.1309  1.1244 -0.2042
 7557TIP3    H244087   4.220   4.950   1.071  1.4649  0.8030 -0.3037
 7558TIP3   OH244088   0.725   0.550   3.518  0.0747  0.4366 -0.0941
 7558TIP3    H144089   0.648   0.494   3.526  1.0263 -1.0354 -0.8248
 7558TIP3    H244090   0.717   0.590   3.431 -0.9213  1.9899  0.6675
 7559TIP3   OH244091   2.792   5.701  16.202 -0.1044 -0.1246  0.0216
 7559TIP3    H144092   2.858   5.698  16.270  0.3117  0.0035 -0.3720
 7559TIP3    H244093   2.802   5.787  16.161 -2.4713  1.1591  1.8647
 7560TIP3   OH244094   3.135   3.645  15.038 -0.2380 -0.1530  0.5608
 7560TIP3    H144095   3.124   3.555  15.008  1.7105  0.1492 -1.3427
 7560TIP3    H244096   3.050   3.686  15.022 -1.0599 -1.5571  1.1824
 7561TIP3   OH244097   5.346   3.342   5.234  0.0806  0.5186 -0.3853
 7561TIP3    H144098   5.431   3.378   5.209  0.1921  1.2629  0.9775
 7561TIP3    H244099   5.339   3.260   5.184  2.0088 -0.0394  0.1881
 7562TIP3   OH244100   3.350   5.340  11.435 -0.8939 -0.2593  0.0809
 7562TIP3    H144101   3.317   5.291  11.360 -2.3149  0.3316  0.3013
 7562TIP3    H244102   3.412   5.402  11.396 -0.3465 -1.0732 -0.3918
 7563TIP3   OH244103   3.321   4.524   5.925 -0.4588 -0.3198 -0.0614
 7563TIP3    H144104   3.355   4.498   6.010  0.6418 -0.2214 -0.4510
 7563TIP3    H244105   3.233   4.487   5.921  0.9809 -4.0509 -0.5713
 7564TIP3   OH244106   6.619   2.773  12.764 -0.3334  0.2143  0.3205
 7564TIP3    H144107   6.560   2.710  12.806 -0.0165 -0.2114  0.1342
 7564TIP3    H244108   6.663   2.723  12.696  1.0508  0.2451  1.1739
 7565TIP3   OH244109   1.304   1.890  15.529 -0.3334 -0.1583  0.7844
 7565TIP3    H144110   1.355   1.885  15.448  1.7856  1.2545  1.9119
 7565TIP3    H244111   1.219   1.923  15.502  0.6064  1.1396 -0.8034
 7566TIP3   OH244112   6.255   5.598  15.847  0.8063 -0.1118  0.1907
 7566TIP3    H144113   6.249   5.576  15.754  1.4904  1.0462 -0.1472
 7566TIP3    H244114   6.270   5.692  15.848 -0.1394  0.0506  1.5161
 7567TIP3   OH244115   0.113   2.996   4.989 -0.5489  0.6501 -0.2081
 7567TIP3    H144116   0.102   3.003   5.084  1.3895 -0.2467  0.1185
 7567TIP3    H244117   0.152   2.910   4.975 -1.5674  0.4219 -1.9196
 7568TIP3   OH244118   5.739   2.223   0.984  0.2479 -0.2095  0.4111
 7568TIP3    H144119   5.807   2.167   1.021  1.9492  1.4347 -0.0571
 7568TIP3    H244120   5.744   2.209   0.890  0.0371  0.0442  0.3606
 7569TIP3   OH244121   5.215   2.081  12.038  0.4082 -0.0460  0.2608
 7569TIP3    H144122   5.231   2.129  12.119  1.8096  0.2498 -0.1645
 7569TIP3    H244123   5.268   2.002  12.046  1.6824  0.6399 -0.9203
 7570TIP3   OH244124   5.242   4.422   1.877  0.3262 -0.3833 -0.4477
 7570TIP3    H144125   5.177   4.354   1.859 -0.0809  0.4530 -2.4005
 7570TIP3    H244126   5.196   4.485   1.932  0.3482 -1.0947  0.4082
 7571TIP3   OH244127   1.012   1.910   1.582 -0.8719  0.3597  0.7932
 7571TIP3    H144128   1.031   2.000   1.557  1.4203 -0.2395  0.1117
 7571TIP3    H244129   1.086   1.884   1.637 -1.8728 -0.8752  1.6320
 7572TIP3   OH244130   5.432   3.378   4.547  0.0880 -0.0046 -0.0449
 7572TIP3    H144131   5.526   3.368   4.532 -0.0922  1.2122 -2.4210
 7572TIP3    H244132   5.393   3.304   4.500 -0.2736  1.6288 -2.5006
 7573TIP3   OH244133   4.334   4.975  16.649  0.4912  0.0386 -0.2447
 7573TIP3    H144134   4.311   4.936  16.733  0.0135  0.1742 -0.3065
 7573TIP3    H244135   4.384   5.054  16.671  0.6274 -0.0881 -0.0984
 7574TIP3   OH244136   3.106   2.933  16.358  0.0001  0.1222  0.3738
 7574TIP3    H144137   3.033   2.990  16.333 -0.2811 -0.9087 -1.3457
 7574TIP3    H244138   3.127   2.958  16.448 -2.4323  0.4935  0.8949
 7575TIP3   OH244139   6.476   1.964  11.244 -0.3279 -0.0237  0.0031
 7575TIP3    H144140   6.411   2.033  11.230  0.3014  1.2261  2.5559
 7575TIP3    H244141   6.432   1.884  11.216 -2.4541  0.9656  0.3058
 7576TIP3   OH244142   1.689   5.428   1.766 -0.4157  0.1673  0.1278
 7576TIP3    H144143   1.634   5.379   1.827 -2.2889  0.9763 -0.8382
 7576TIP3    H244144   1.652   5.410   1.680  1.2690  0.2182 -0.6504
 7577TIP3   OH244145   4.219   1.955   1.223 -0.0546  0.1398  0.2454
 7577TIP3    H144146   4.256   1.893   1.160  0.1856 -1.6925  2.0675
 7577TIP3    H244147   4.295   1.990   1.269 -0.3224 -0.9128  1.5650
 7578TIP3   OH244148   3.173   3.729   1.306  0.1649  0.2853  0.5173
 7578TIP3    H144149   3.118   3.785   1.362  0.2188  0.4926  0.3646
 7578TIP3    H244150   3.138   3.641   1.318 -1.1878  0.6132 -0.7570
 7579TIP3   OH244151   0.853   6.122   0.465 -0.6910  0.4935  0.3036
 7579TIP3    H144152   0.778   6.115   0.524 -0.4129 -0.2377  0.5817
 7579TIP3    H244153   0.837   6.055   0.398 -0.9526  1.2459 -0.4044
 7580TIP3   OH244154   3.610   4.292   5.618 -0.2330 -0.4876 -0.6330
 7580TIP3    H144155   3.563   4.371   5.645 -1.7683 -1.4371 -0.4208
 7580TIP3    H244156   3.541   4.227   5.602  1.0517 -2.4389  1.2780
 7581TIP3   OH244157   0.119   2.895  12.708 -0.0405 -0.2013  0.2449
 7581TIP3    H144158   0.035   2.858  12.735  0.3105 -1.6457 -0.5225
 7581TIP3    H244159   0.153   2.833  12.643  1.3778  0.6251  0.1458
 7582TIP3   OH244160   5.500   1.399   1.835  0.7654 -0.5027 -0.3088
 7582TIP3    H144161   5.463   1.481   1.867  1.3141 -0.1627 -0.5411
 7582TIP3    H244162   5.425   1.340   1.828  0.3138  0.0889 -0.4956
 7583TIP3   OH244163   3.121   2.676   1.023 -0.5276  0.4064 -0.2730
 7583TIP3    H144164   3.161   2.604   0.974  1.1735  2.1514 -1.6292
 7583TIP3    H244165   3.028   2.670   1.004 -0.2862 -0.7998 -1.2032
 7584TIP3   OH244166   1.058   0.749  10.625 -0.6420  0.2784  0.0502
 7584TIP3    H144167   1.017   0.693  10.691  1.1152 -1.4224 -0.2001
 7584TIP3    H244168   1.145   0.711  10.613 -0.2140  1.7288 -1.8292
 7585TIP3   OH244169   2.561   0.459   3.683 -0.4485 -0.5624 -0.2303
 7585TIP3    H144170   2.516   0.436   3.602  0.3201  1.0158 -1.1642
 7585TIP3    H244171   2.590   0.549   3.669 -0.0139 -0.3577  1.6878
 7586TIP3   OH244172   3.406   4.393  16.086  0.4501 -0.4626  0.4924
 7586TIP3    H144173   3.426   4.337  16.161  0.7616 -1.0372 -0.0048
 7586TIP3    H244174   3.444   4.347  16.011  1.2266  0.6937  0.1411
 7587TIP3   OH244175   5.812   5.081  16.626  0.0095 -0.1817  0.0986
 7587TIP3    H144176   5.849   5.055  16.541 -1.4531  1.9717 -1.2854
 7587TIP3    H244177   5.870   5.150  16.657  1.3115 -1.8521  1.5897
 7588TIP3   OH244178   3.424   2.446   1.289 -0.0606  0.1808  0.1671
 7588TIP3    H144179   3.469   2.367   1.319 -3.0158 -1.5461  0.4400
 7588TIP3    H244180   3.449   2.454   1.197  1.3947 -0.2047  0.5048
 7589TIP3   OH244181   5.328   1.960   1.363 -0.2746  0.5362  0.0376
 7589TIP3    H144182   5.251   1.920   1.322 -0.8346 -0.1913  1.6915
 7589TIP3    H244183   5.359   2.024   1.299 -2.5301  1.1794 -0.5260
 7590TIP3   OH244184   5.363   4.390  11.966  0.0062 -0.3389 -0.2811
 7590TIP3    H144185   5.310   4.390  12.046  1.2024  1.7259  0.5844
 7590TIP3    H244186   5.321   4.456  11.910  0.7287  0.1634 -0.2376
 7591TIP3   OH244187   2.089   2.753   3.408 -0.6710  0.7127 -0.2618
 7591TIP3    H144188   2.153   2.700   3.360 -0.9235 -0.6494  0.8302
 7591TIP3    H244189   2.140   2.822   3.449  0.0005  0.0877 -0.0204
 7592TIP3   OH244190   3.356   3.210   2.711  0.5056 -0.3618 -0.0686
 7592TIP3    H144191   3.333   3.126   2.672 -1.4533  0.0826  0.0634
 7592TIP3    H244192   3.391   3.262   2.638  0.3700 -0.7914 -0.4407
 7593TIP3   OH244193   1.409   2.928   1.339  0.8423  0.3706 -0.0668
 7593TIP3    H144194   1.458   2.917   1.257  1.4908  1.1444  0.2151
 7593TIP3    H244195   1.380   2.839   1.360 -0.7682  0.3599 -2.0041
 7594TIP3   OH244196   5.190   5.407  12.090  0.2987  0.3384  0.4214
 7594TIP3    H144197   5.267   5.366  12.051  1.8411  0.2951  3.2737
 7594TIP3    H244198   5.122   5.340  12.085  1.0537 -0.4038 -0.2174
 7595TIP3   OH244199   0.565   2.947   4.179  0.0879 -0.7154 -0.0012
 7595TIP3    H144200   0.609   3.020   4.137 -0.8237 -0.6545 -0.9030
 7595TIP3    H244201   0.548   2.977   4.268 -1.0655  0.5622 -0.5999
 7596TIP3   OH244202   3.335   4.942   4.986  0.0519  0.1447  0.5577
 7596TIP3    H144203   3.359   4.927   4.895 -0.9315 -0.7853  0.4275
 7596TIP3    H244204   3.363   4.863   5.032  0.4757  0.5742  1.0519
 7597TIP3   OH244205   4.687   5.871  16.723 -0.2269 -0.4426 -0.0682
 7597TIP3    H144206   4.770   5.846  16.763 -0.1801 -1.5549 -0.8200
 7597TIP3    H244207   4.650   5.937  16.783  1.5328  0.6581 -0.1314
 7598TIP3   OH244208   6.001   0.809   2.720 -0.3363 -0.4406  0.4045
 7598TIP3    H144209   6.071   0.744   2.713 -0.9169 -1.1478  1.0544
 7598TIP3    H244210   5.984   0.835   2.629  0.9609 -0.0351  0.2599
 7599TIP3   OH244211   5.616   5.741  11.638 -0.3378  0.0638 -0.2266
 7599TIP3    H144212   5.590   5.708  11.551  1.3017 -1.8010 -0.0760
 7599TIP3    H244213   5.534   5.742  11.688 -1.1372  0.1774 -1.4929
 7600TIP3   OH244214   4.486   5.375   0.458 -0.1905  0.1423  0.2512
 7600TIP3    H144215   4.496   5.293   0.410  0.9353  1.7402 -2.5012
 7600TIP3    H244216   4.542   5.437   0.411 -0.2486  2.2874  2.7786
 7601TIP3   OH244217   0.829   1.003  12.877  0.1229 -1.3207 -0.6035
 7601TIP3    H144218   0.856   0.960  12.796  0.1445 -0.6969 -0.9307
 7601TIP3    H244219   0.768   1.071  12.849  0.8272 -0.4982 -0.1989
 7602TIP3   OH244220   5.394   4.634  16.161 -0.0838  0.1688  0.1708
 7602TIP3    H144221   5.339   4.688  16.218 -0.1593  0.2069  0.0623
 7602TIP3    H244222   5.345   4.626  16.080  0.3818  0.7855 -0.1819
 7603TIP3   OH244223   3.059   4.285   0.727  0.4723 -0.8311 -0.0930
 7603TIP3    H144224   2.999   4.211   0.729 -1.7874  0.8331 -1.3022
 7603TIP3    H244225   3.089   4.289   0.636  0.3640 -0.1188 -0.1040
 7604TIP3   OH244226   2.774   1.190  11.426  0.0740 -0.0532  0.3148
 7604TIP3    H144227   2.801   1.104  11.458  2.5375  1.3237  2.2684
 7604TIP3    H244228   2.856   1.238  11.413 -1.2189  2.1061 -0.4580
 7605TIP3   OH244229   6.464   5.595  15.329  0.0082 -0.5437  0.1594
 7605TIP3    H144230   6.486   5.544  15.251 -1.8729 -1.2924  0.0638
 7605TIP3    H244231   6.368   5.592  15.334  0.0079  0.6002  1.7660
 7606TIP3   OH244232   4.726   6.082   2.808  0.4840 -0.4398  0.2302
 7606TIP3    H144233   4.678   6.007   2.841 -0.8672  1.0850  1.9481
 7606TIP3    H244234   4.698   6.091   2.717 -3.1769  0.7355  1.2829
 7607TIP3   OH244235   4.206   4.693   3.339 -0.2966  0.2174  0.3359
 7607TIP3    H144236   4.186   4.625   3.403  0.5555 -0.8306 -0.4681
 7607TIP3    H244237   4.281   4.740   3.376 -0.1380 -0.0462  0.3478
 7608TIP3   OH244238   3.233   5.277  14.761  0.7639  0.1294  0.1365
 7608TIP3    H144239   3.310   5.306  14.809  0.9180 -0.8636  0.5285
 7608TIP3    H244240   3.160   5.291  14.822  0.3940  2.4228 -0.7578
 7609TIP3   OH244241   1.102   0.438   6.278  0.3023  0.4190 -0.5792
 7609TIP3    H144242   1.166   0.391   6.331 -0.0777 -2.1772 -2.2648
 7609TIP3    H244243   1.035   0.466   6.340  1.6146  0.6512  0.7847
 7610TIP3   OH244244   0.669   2.523  14.680  0.1542 -0.7252  0.2654
 7610TIP3    H144245   0.639   2.577  14.606  1.0207  0.6589  0.8830
 7610TIP3    H244246   0.689   2.438  14.641 -0.8244 -0.4798 -0.8256
 7611TIP3   OH244247   2.724   2.665  14.265  0.5491 -0.4115 -0.1937
 7611TIP3    H144248   2.808   2.710  14.270 -0.2792  1.5014 -2.1114
 7611TIP3    H244249   2.700   2.666  14.173 -0.8157 -2.4726  0.0478
 7612TIP3   OH244250   5.297   6.361   5.732 -0.4122 -0.1662 -0.2781
 7612TIP3    H144251   5.390   6.352   5.711 -0.5763  0.3023 -1.2569
 7612TIP3    H244252   5.279   6.289   5.792  0.8731  0.4968  0.9565
 7613TIP3   OH244253   2.824   4.761  11.930  0.3708  0.2051  0.0156
 7613TIP3    H144254   2.770   4.722  11.861 -0.1907  0.2547  0.4183
 7613TIP3    H244255   2.783   4.845  11.948 -0.5942 -0.5850  1.6831
 7614TIP3   OH244256   4.447   6.265   2.778  0.8928  0.6074  0.6077
 7614TIP3    H144257   4.510   6.333   2.753  0.9964  0.9990  1.8641
 7614TIP3    H244258   4.494   6.211   2.841 -0.6216  2.2330  3.3880
 7615TIP3   OH244259   4.533   0.382  15.141 -0.4315 -0.5292  0.1737
 7615TIP3    H144260   4.591   0.325  15.191  0.2473  1.1022  1.3357
 7615TIP3    H244261   4.446   0.345  15.154  0.2549 -2.8162 -1.3131
 7616TIP3   OH244262   4.276   1.765  15.015 -1.1182  0.7594  0.6026
 7616TIP3    H144263   4.351   1.782  14.958 -1.6348  1.4193  0.1183
 7616TIP3    H244264   4.316   1.750  15.101 -0.3634  0.1230  0.1620
 7617TIP3   OH244265   1.523   1.892  14.009  0.4395  0.1050 -0.1208
 7617TIP3    H144266   1.491   1.805  13.985 -0.4617  0.3653  0.0816
 7617TIP3    H244267   1.443   1.943  14.024  0.9611  0.8604  0.1349
 7618TIP3   OH244268   6.615   2.812   4.990 -0.6580 -0.4693 -0.0626
 7618TIP3    H144269   6.664   2.856   5.059  0.9946 -0.0841 -1.4162
 7618TIP3    H244270   6.537   2.777   5.034  0.0085  0.3194  1.8360
 7619TIP3   OH244271   2.795   6.051  12.908 -0.2912  0.1801 -0.0364
 7619TIP3    H144272   2.782   6.049  12.813 -1.7669 -1.1293  0.1629
 7619TIP3    H244273   2.717   6.009  12.944  0.2157  0.7186  1.7719
 7620TIP3   OH244274   3.892   0.440   4.284  0.0340  0.0577  0.1838
 7620TIP3    H144275   3.959   0.475   4.342  1.2305 -2.8522  0.7280
 7620TIP3    H244276   3.930   0.447   4.196 -0.5374  1.7235  0.0321
 7621TIP3   OH244277   3.876   5.147  11.371 -0.0618 -0.4114  0.2890
 7621TIP3    H144278   3.887   5.180  11.281 -1.3545 -1.0385 -0.1252
 7621TIP3    H244279   3.864   5.226  11.424  0.6975 -0.0333 -0.0903
 7622TIP3   OH244280   3.134   5.256   5.257  0.8297  0.4056  1.3248
 7622TIP3    H144281   3.145   5.196   5.331 -2.8532 -1.9911  0.1938
 7622TIP3    H244282   3.069   5.319   5.287 -0.1865 -0.1767  0.4172
 7623TIP3   OH244283   4.620   3.525  16.738  0.2196 -0.1664 -0.7397
 7623TIP3    H144284   4.675   3.595  16.774  0.7806 -0.7596 -0.4241
 7623TIP3    H244285   4.564   3.569  16.674 -0.5462  0.8640  0.5790
 7624TIP3   OH244286   4.857   2.729  12.219  0.0851 -0.1490 -0.0064
 7624TIP3    H144287   4.875   2.817  12.254 -1.1804 -0.0389  0.4348
 7624TIP3    H244288   4.938   2.680  12.233 -0.2338 -0.0103  2.7920
 7625TIP3   OH244289   5.960   0.488  12.226  0.5413 -0.0109  0.0359
 7625TIP3    H144290   5.890   0.427  12.203  0.9895 -1.0757  1.3693
 7625TIP3    H244291   5.935   0.521  12.312  2.3901 -1.5911  1.2522
 7626TIP3   OH244292   4.282   1.210   0.276 -0.1754  0.4488  0.4073
 7626TIP3    H144293   4.327   1.158   0.343  1.4441 -1.1223 -1.7565
 7626TIP3    H244294   4.197   1.166   0.264  0.3688 -0.5364  0.0190
 7627TIP3   OH244295   4.342   2.342   2.661 -0.0975  0.1052 -0.3574
 7627TIP3    H144296   4.340   2.394   2.580  0.6979 -0.5824 -0.8294
 7627TIP3    H244297   4.432   2.351   2.693  0.1276 -1.1793 -0.5833
 7628TIP3   OH244298   0.586   6.497  12.709 -0.3890  0.3571 -0.8137
 7628TIP3    H144299   0.671   6.470  12.673  0.1015  1.6808 -0.6864
 7628TIP3    H244300   0.608   6.546  12.788 -1.3151  0.1858 -0.4366
 7629TIP3   OH244301   0.440   2.097   4.451 -0.1578 -0.4759  0.5449
 7629TIP3    H144302   0.405   2.149   4.379  0.0873 -0.3821  0.4926
 7629TIP3    H244303   0.378   2.026   4.462 -1.7981  1.0927  2.1394
 7630TIP3   OH244304   0.762   6.361  12.271  0.4682 -0.5809  0.8621
 7630TIP3    H144305   0.814   6.360  12.191  0.6141  0.6538  0.9202
 7630TIP3    H244306   0.682   6.313  12.248  0.1652  0.4084 -0.2877
 7631TIP3   OH244307   1.506   4.140  14.731 -0.2041 -0.1175  0.3596
 7631TIP3    H144308   1.568   4.213  14.740 -2.2019  1.4877  2.4242
 7631TIP3    H244309   1.461   4.158  14.649  0.4332  0.0330  0.0317
 7632TIP3   OH244310   3.318   3.530   0.818  0.0042  0.0871  0.1111
 7632TIP3    H144311   3.369   3.486   0.885 -3.0528 -2.6206  0.9222
 7632TIP3    H244312   3.265   3.594   0.867 -0.3993 -0.0905 -0.0900
 7633TIP3   OH244313   5.390   1.993   3.129 -0.0680 -0.0191  0.2503
 7633TIP3    H144314   5.305   1.949   3.139 -0.2716  0.3295  0.0562
 7633TIP3    H244315   5.438   1.968   3.208  0.2349 -1.4974 -0.3580
 7634TIP3   OH244316   2.352   4.640   0.077  0.1746  0.4435 -0.8333
 7634TIP3    H144317   2.277   4.688   0.112  0.6653  1.3577 -0.9938
 7634TIP3    H244318   2.422   4.656   0.141  0.0056 -1.1701 -0.1906
 7635TIP3   OH244319   2.890   0.883   3.847  0.3973 -0.1777 -0.0726
 7635TIP3    H144320   2.879   0.904   3.755  1.0979 -0.3956 -0.2126
 7635TIP3    H244321   2.926   0.963   3.886  0.2065 -0.1215 -0.0145
 7636TIP3   OH244322   0.714   4.720   3.115 -0.4127  0.0182 -0.5517
 7636TIP3    H144323   0.664   4.668   3.178  0.0762  0.1594 -0.0367
 7636TIP3    H244324   0.801   4.727   3.154 -0.1546  0.2666 -1.1602
 7637TIP3   OH244325   2.172   2.633  12.074  0.0490  0.6141 -0.4423
 7637TIP3    H144326   2.157   2.542  12.047 -0.5064  0.4641  0.3229
 7637TIP3    H244327   2.210   2.675  11.997 -1.2400  0.1603 -1.3569
 7638TIP3   OH244328   6.563   3.162   4.172 -0.3165  0.2081  0.5200
 7638TIP3    H144329   6.581   3.175   4.079 -0.5595 -2.6225 -0.0093
 7638TIP3    H244330   6.647   3.175   4.215  0.4710 -1.3775 -0.4842
 7639TIP3   OH244331   3.663   2.355  13.344  0.2406  0.7283  0.2078
 7639TIP3    H144332   3.595   2.296  13.378 -0.3800  0.6942 -1.0217
 7639TIP3    H244333   3.665   2.428  13.406 -0.0726  0.1628  0.9061
 7640TIP3   OH244334   4.858   4.937  17.181  0.6222  0.7770 -0.5864
 7640TIP3    H144335   4.824   5.010  17.131  1.6116  0.5036 -1.7096
 7640TIP3    H244336   4.781   4.884  17.202  0.1636  0.9415 -1.7619
 7641TIP3   OH244337   6.109   6.393   2.380  0.0925  0.0368 -0.1062
 7641TIP3    H144338   6.133   6.485   2.371 -3.7240  1.1480 -0.3625
 7641TIP3    H244339   6.152   6.365   2.461 -0.0859  2.5880  0.9546
 7642TIP3   OH244340   4.256   5.574   1.606 -0.1132 -0.4371 -0.4216
 7642TIP3    H144341   4.179   5.519   1.591  0.3224 -0.8704 -1.0957
 7642TIP3    H244342   4.235   5.623   1.686 -2.3998  1.7656 -2.1848
 7643TIP3   OH244343   3.878   4.224   0.095  0.0406  0.0466  0.1215
 7643TIP3    H144344   3.933   4.277   0.153 -2.7445  2.2792  0.9365
 7643TIP3    H244345   3.891   4.262   0.008  1.4920 -0.9861 -0.1510
 7644TIP3   OH244346   2.283   0.064   0.101  0.3241 -0.0064 -0.5191
 7644TIP3    H144347   2.353   0.128   0.111  0.3331  0.2624 -2.1704
 7644TIP3    H244348   2.236   0.090   0.022  0.7085 -2.3642 -1.6177
 7645TIP3   OH244349   1.809   0.148   1.041  0.3657  0.0325 -0.0148
 7645TIP3    H144350   1.874   0.215   1.022  2.1351 -2.0383 -1.7553
 7645TIP3    H244351   1.846   0.099   1.114  0.2938 -0.5541 -0.3661
 7646TIP3   OH244352   5.884   3.924  15.084 -0.5145  0.0848 -0.5286
 7646TIP3    H144353   5.890   3.910  14.990  0.7812 -1.3992 -0.2628
 7646TIP3    H244354   5.955   3.871  15.121 -3.5411 -2.9222  1.6028
 7647TIP3   OH244355   4.358   3.181  12.205 -0.2471 -0.2725  0.2940
 7647TIP3    H144356   4.352   3.215  12.116 -0.2403  1.3450  0.8899
 7647TIP3    H244357   4.390   3.091  12.194  3.4940  1.0218 -1.1852
 7648TIP3   OH244358   3.236   3.372   1.158 -0.3581  0.0658  0.4063
 7648TIP3    H144359   3.214   3.288   1.198 -0.5619 -0.8527 -1.5174
 7648TIP3    H244360   3.321   3.395   1.194 -0.0640 -1.2319  0.5724
 7649TIP3   OH244361   2.053   4.215   2.326 -0.2212  0.2695 -0.4141
 7649TIP3    H144362   2.122   4.262   2.279 -0.4578  0.2131 -0.8235
 7649TIP3    H244363   2.089   4.128   2.343 -0.5410 -0.0843 -1.4839
 7650TIP3   OH244364   3.180   3.087  16.133 -0.4560  0.2322  0.3832
 7650TIP3    H144365   3.181   3.039  16.216  0.6027  1.6024  1.2021
 7650TIP3    H244366   3.267   3.071  16.096 -0.4577  0.6767  0.1818
 7651TIP3   OH244367   5.787   4.842   5.796 -0.0835  0.0899  0.3401
 7651TIP3    H144368   5.732   4.901   5.744  1.6077 -0.0744 -1.7628
 7651TIP3    H244369   5.873   4.885   5.797  1.1419 -2.1706 -1.0697
 7652TIP3   OH244370   2.112   3.811  15.999  0.2904  0.4146 -0.4125
 7652TIP3    H144371   2.091   3.868  15.925  3.1180  0.3006 -1.4413
 7652TIP3    H244372   2.202   3.835  16.022 -0.1609 -0.2314  2.4096
 7653TIP3   OH244373   5.970   5.637  15.806  0.2000  0.2840  0.8090
 7653TIP3    H144374   6.011   5.707  15.857  2.7137  0.1768 -0.8268
 7653TIP3    H244375   5.965   5.562  15.865  2.6452  0.2750  1.1050
 7654TIP3   OH244376   5.864   6.511  17.199  0.0798 -0.4161 -0.7584
 7654TIP3    H144377   5.958   6.527  17.184  0.0841 -0.5033 -0.8206
 7654TIP3    H244378   5.851   6.420  17.173 -0.3086  0.0110 -2.1158
 7655TIP3   OH244379   4.327   0.817   0.969 -0.8051  0.7619  0.1089
 7655TIP3    H144380   4.421   0.829   0.957 -0.6963 -0.3214 -0.2000
 7655TIP3    H244381   4.304   0.747   0.908 -1.0052 -2.0742  3.1478
 7656TIP3   OH244382   4.577   5.313   2.285  0.1762 -0.3514 -0.1168
 7656TIP3    H144383   4.645   5.372   2.252 -0.5060  0.7976  0.4631
 7656TIP3    H244384   4.503   5.326   2.225 -0.5998  0.7522  1.0231
 7657TIP3   OH244385   3.102   3.068  15.650  0.0390  0.0505 -0.2578
 7657TIP3    H144386   3.072   3.075  15.740 -0.4973 -1.2025 -0.3141
 7657TIP3    H244387   3.056   2.991  15.615 -0.9072  1.3460 -2.0543
 7658TIP3   OH244388   3.615   0.473   1.706  0.0860 -0.1265 -0.4856
 7658TIP3    H144389   3.668   0.512   1.637 -1.0760  1.2611 -0.6642
 7658TIP3    H244390   3.667   0.482   1.786  0.1928  1.1120 -0.6738
 7659TIP3   OH244391   6.410   0.500  14.868 -0.8469 -0.1460 -0.1821
 7659TIP3    H144392   6.384   0.413  14.838  1.2111 -1.0447  0.4872
 7659TIP3    H244393   6.470   0.531  14.800  0.2023 -0.2384  0.6849
 7660TIP3   OH244394   4.420   6.670  11.202  0.3387  0.1103 -0.3528
 7660TIP3    H144395   4.508   6.649  11.170  0.7999 -0.6917  1.3328
 7660TIP3    H244396   4.362   6.612  11.153  1.1043 -1.6451  0.7053
 7661TIP3   OH244397   5.257   4.217  14.512 -0.3364 -0.0286  0.6792
 7661TIP3    H144398   5.312   4.181  14.581  2.1813 -1.8058 -2.0118
 7661TIP3    H244399   5.169   4.186  14.533  0.7223 -2.5301  1.8987
 7662TIP3   OH244400   0.279   6.221  12.538  0.6187 -0.1580  0.2028
 7662TIP3    H144401   0.374   6.227  12.544  0.5077  0.6865  1.2675
 7662TIP3    H244402   0.249   6.311  12.527 -0.1137 -0.3338  0.7080
 7663TIP3   OH244403   3.745   0.864  12.728 -0.6288 -0.2644 -0.3820
 7663TIP3    H144404   3.794   0.836  12.805 -0.7099  0.0851 -0.2044
 7663TIP3    H244405   3.771   0.955  12.715 -2.3407  0.4023  0.5975
 7664TIP3   OH244406   0.051   3.797  12.099  0.0920 -0.0819 -0.1244
 7664TIP3    H144407  -0.030   3.782  12.051  0.4476  0.5468 -0.9476
 7664TIP3    H244408   0.061   3.720  12.155  0.0111 -1.1481 -1.5427
 7665TIP3   OH244409   3.354   6.113   0.554 -0.7479 -0.9217  0.0176
 7665TIP3    H144410   3.324   6.193   0.597 -0.2077 -0.7459  0.0745
 7665TIP3    H244411   3.448   6.124   0.545 -0.6345 -1.6369  0.2144
 7666TIP3   OH244412   3.664   1.015   2.703 -0.3160 -0.0199 -0.9918
 7666TIP3    H144413   3.580   0.977   2.727 -0.7672  1.4063 -0.2254
 7666TIP3    H244414   3.657   1.107   2.728  2.4335 -0.3780  1.6946
 7667TIP3   OH244415   5.578   0.323   1.157  0.2399  0.1297 -0.0882
 7667TIP3    H144416   5.493   0.363   1.174  0.4669 -0.1679  2.0405
 7667TIP3    H244417   5.567   0.231   1.181  1.2358  0.1509  0.5166
 7668TIP3   OH244418   3.513   0.640  12.155  0.9224  0.6907 -0.2169
 7668TIP3    H144419   3.509   0.635  12.060  0.1149  0.9627 -0.2083
 7668TIP3    H244420   3.600   0.606  12.178  1.0333  0.4153 -1.0281
 7669TIP3   OH244421   2.072   1.887  15.011 -0.3383  0.0564 -0.0058
 7669TIP3    H144422   1.998   1.930  14.969 -1.1682  0.3661  1.7359
 7669TIP3    H244423   2.082   1.930  15.095  2.7968  1.0490 -0.7233
 7670TIP3   OH244424   4.545   5.692   1.320 -0.4031  1.1853 -0.0848
 7670TIP3    H144425   4.557   5.638   1.398 -2.3985 -0.0366 -0.5528
 7670TIP3    H244426   4.450   5.701   1.312 -0.2061  1.9387 -1.9565
 7671TIP3   OH244427   0.012   2.220   1.494 -0.1100 -0.3689 -0.1731
 7671TIP3    H144428  -0.024   2.135   1.469  0.5128 -0.6484 -0.1437
 7671TIP3    H244429   0.102   2.219   1.460 -0.4536  0.7480 -1.2203
 7672TIP3   OH244430   2.733   5.025   1.221  0.0868 -0.1390  0.3000
 7672TIP3    H144431   2.699   5.025   1.311 -0.4422 -0.6912  0.1028
 7672TIP3    H244432   2.714   4.938   1.188  1.5786 -0.4224  0.1348
 7673TIP3   OH244433   4.546   2.594  14.862  0.0513 -0.3390 -0.6390
 7673TIP3    H144434   4.584   2.527  14.920  0.6457  0.4556 -0.0933
 7673TIP3    H244435   4.452   2.593  14.882  0.0426 -1.0490 -0.6882
 7674TIP3   OH244436   3.666   2.601   5.879 -0.3584 -0.3823  0.4788
 7674TIP3    H144437   3.659   2.610   5.974  1.2987 -1.6130  0.7582
 7674TIP3    H244438   3.734   2.663   5.854 -0.4635 -0.3950  0.1565
 7675TIP3   OH244439   0.042   4.261   4.675  0.9281 -0.0858  0.1903
 7675TIP3    H144440   0.030   4.177   4.718  0.1656 -0.2854 -0.3879
 7675TIP3    H244441  -0.025   4.262   4.606  2.3088  0.0526 -1.2242
 7676TIP3   OH244442   2.557   5.342  16.000  0.2246  0.2075  0.0283
 7676TIP3    H144443   2.580   5.351  16.093 -1.0523  0.1292  0.3715
 7676TIP3    H244444   2.557   5.432  15.966  1.8326  0.1507 -0.2133
 7677TIP3   OH244445   1.051   1.773  11.725 -0.3973 -0.2993  0.0671
 7677TIP3    H144446   1.106   1.813  11.792  1.6135 -2.8679  0.1007
 7677TIP3    H244447   1.056   1.833  11.651  1.4831  0.1824  0.5224
 7678TIP3   OH244448   3.236   6.270  17.023  0.0667  0.1200  0.6745
 7678TIP3    H144449   3.268   6.266  17.113 -0.7911  1.4493  1.0635
 7678TIP3    H244450   3.220   6.363  17.007  2.9770  0.3749 -1.8822
 7679TIP3   OH244451   5.802   1.430  16.300  0.1936 -0.1490 -0.2920
 7679TIP3    H144452   5.873   1.398  16.244  0.6803  0.7809 -0.2317
 7679TIP3    H244453   5.739   1.469  16.239 -0.8661 -1.9948 -0.4533
 7680TIP3   OH244454   3.311   5.718  11.377 -0.3957 -0.2149 -0.4599
 7680TIP3    H144455   3.342   5.808  11.391 -0.4358 -0.1679 -0.6705
 7680TIP3    H244456   3.389   5.669  11.351 -0.5595 -0.0182 -1.3477
 7681TIP3   OH244457   5.223   0.477   3.005 -0.3255  0.1796  0.4095
 7681TIP3    H144458   5.212   0.428   3.087 -0.6692 -0.3781  0.0351
 7681TIP3    H244459   5.178   0.561   3.021 -2.7950 -0.9483 -0.0980
 7682TIP3   OH244460   5.169   5.188   0.164 -0.3704 -0.3614 -0.2703
 7682TIP3    H144461   5.189   5.205   0.072  1.9727 -0.2368  0.2085
 7682TIP3    H244462   5.212   5.104   0.183  0.6684  0.4379  1.1245
 7683TIP3   OH244463   3.862   4.859   2.075 -0.6110 -0.1899  0.3385
 7683TIP3    H144464   3.814   4.900   2.147  0.7962  1.3304  0.4785
 7683TIP3    H244465   3.797   4.807   2.029 -2.1876  1.0482  1.0635
 7684TIP3   OH244466   1.648   0.457   1.037  0.1949  0.1489  0.1159
 7684TIP3    H144467   1.617   0.371   1.065  1.0224  0.0237  0.6912
 7684TIP3    H244468   1.651   0.452   0.942 -0.6077 -0.1538  0.1031
 7685TIP3   OH244469   5.559   3.313  12.149  0.3739 -0.3928  0.1788
 7685TIP3    H144470   5.650   3.328  12.174  1.0528 -1.9370 -1.1514
 7685TIP3    H244471   5.548   3.362  12.067 -0.1179  0.0956  0.5310
 7686TIP3   OH244472   3.600   4.304   2.185  0.1800 -0.4070  0.1528
 7686TIP3    H144473   3.632   4.330   2.099  2.3945  2.0505  1.6119
 7686TIP3    H244474   3.663   4.239   2.215 -1.0504 -1.8878 -0.3267
 7687TIP3   OH244475   2.659   2.555   0.485 -0.0385  0.1310 -0.5601
 7687TIP3    H144476   2.752   2.560   0.463  0.5021 -0.8966  1.3511
 7687TIP3    H244477   2.633   2.468   0.457 -0.3574  0.2865 -0.7573
 7688TIP3   OH244478   4.820   5.521   3.269 -0.3187  0.1910 -0.3978
 7688TIP3    H144479   4.887   5.457   3.246  0.2803  0.2557  1.0945
 7688TIP3    H244480   4.815   5.579   3.193  2.7091  1.3496  0.1784
 7689TIP3   OH244481   4.211   5.234   0.272  0.0609  0.4419  0.3978
 7689TIP3    H144482   4.194   5.242   0.365  0.6307 -1.4275  0.6948
 7689TIP3    H244483   4.137   5.278   0.230 -1.3462 -0.5720  1.7230
 7690TIP3   OH244484   2.937   3.187   4.550  0.0194  0.2704  0.1834
 7690TIP3    H144485   2.989   3.168   4.628 -1.8099 -2.9193  0.8336
 7690TIP3    H244486   2.980   3.137   4.481 -1.4176 -1.4700  0.4809
 7691TIP3   OH244487   6.587   0.011   2.810 -0.3389 -0.5500 -0.0134
 7691TIP3    H144488   6.630   0.057   2.883  0.9229 -0.5794 -0.7020
 7691TIP3    H244489   6.528   0.076   2.773  0.4922  0.1202 -0.1896
 7692TIP3   OH244490   4.074   0.910   1.821 -0.3683  0.4599 -0.4351
 7692TIP3    H144491   4.019   0.839   1.853 -0.4008  0.4937 -0.4156
 7692TIP3    H244492   4.152   0.907   1.877  0.1026 -0.2272 -1.1127
 7693TIP3   OH244493   1.488   3.065  16.713  0.0131 -0.0592  0.1406
 7693TIP3    H144494   1.412   3.007  16.714  0.1410 -0.2367 -0.4503
 7693TIP3    H244495   1.528   3.052  16.799 -0.9157  0.4348  0.6676
 7694TIP3   OH244496   1.389   5.552  12.684 -0.1409  0.6020  0.3543
 7694TIP3    H144497   1.455   5.556  12.754  1.5211  1.1263 -1.1517
 7694TIP3    H244498   1.441   5.553  12.603 -1.8351 -2.4177 -0.9221
 7695TIP3   OH244499   2.886   2.860  15.967  0.1660  0.5643 -0.0378
 7695TIP3    H144500   2.961   2.820  15.924  0.0853 -0.2364  0.5422
 7695TIP3    H244501   2.887   2.823  16.056 -0.4173  1.1925  0.2366
 7696TIP3   OH244502   0.805   3.413  16.181 -0.8314  0.5213 -0.5388
 7696TIP3    H144503   0.751   3.491  16.173 -0.7127  0.6193 -0.4010
 7696TIP3    H244504   0.743   3.340  16.179 -1.0293  0.6602  0.2836
 7697TIP3   OH244505   0.744   4.096   3.609 -0.0421 -0.1580  0.0997
 7697TIP3    H144506   0.665   4.045   3.629  0.3557 -1.1037 -0.6474
 7697TIP3    H244507   0.749   4.097   3.513  1.4212 -1.0556  0.1285
 7698TIP3   OH244508   4.319   4.546  12.295  0.1521  0.6638 -0.3771
 7698TIP3    H144509   4.264   4.622  12.275  0.5835  0.9022 -0.6769
 7698TIP3    H244510   4.399   4.583  12.332  0.3742  0.3566 -0.5454
 7699TIP3   OH244511   3.076   4.549  17.059 -0.8002 -0.2725 -0.1731
 7699TIP3    H144512   2.986   4.574  17.081 -0.8352  1.0988 -1.7170
 7699TIP3    H244513   3.127   4.629  17.073 -0.1889 -0.4506 -1.2612
 7700TIP3   OH244514   5.197   1.757  12.408  0.5043 -0.0280 -0.0724
 7700TIP3    H144515   5.114   1.758  12.359  1.3330 -3.1146 -1.8057
 7700TIP3    H244516   5.170   1.760  12.500 -1.4100  0.5581 -0.5964
 7701TIP3   OH244517   6.104   0.676  12.871  0.2801  0.5883 -0.8672
 7701TIP3    H144518   6.195   0.701  12.856  0.3279  0.8133 -0.2210
 7701TIP3    H244519   6.089   0.605  12.809  1.3161 -0.3812 -0.0589
 7702TIP3   OH244520   5.514   1.434  11.521 -0.7898  0.3591 -0.6329
 7702TIP3    H144521   5.439   1.436  11.580  0.7705  1.6960  1.4521
 7702TIP3    H244522   5.569   1.506  11.549  2.5581 -2.0865 -0.2539
 7703TIP3   OH244523   3.666   2.186   0.100 -0.2089 -0.2781 -0.4200
 7703TIP3    H144524   3.758   2.208   0.085 -0.7825  2.2655 -0.5662
 7703TIP3    H244525   3.661   2.167   0.193  0.4427 -0.3801 -0.3983
 7704TIP3   OH244526   2.520   0.897  16.898  0.6266 -0.2043 -0.0889
 7704TIP3    H144527   2.569   0.977  16.881  0.4202 -0.1535 -0.4518
 7704TIP3    H244528   2.588   0.830  16.912  0.8319  0.4499  2.4166
 7705TIP3   OH244529   3.585   2.093  13.004  0.0720  0.9336 -0.0534
 7705TIP3    H144530   3.577   2.005  13.040 -1.2306  0.4553 -1.4067
 7705TIP3    H244531   3.643   2.083  12.929  0.8333  1.4580  0.4545
 7706TIP3   OH244532   2.868   5.296   2.183 -0.5329 -0.1885  0.1323
 7706TIP3    H144533   2.943   5.244   2.156 -1.6032 -0.9601 -1.5502
 7706TIP3    H244534   2.809   5.234   2.226 -1.3101 -0.1872 -0.8689
 7707TIP3   OH244535   5.710   5.565   5.973 -0.3182  0.1314 -0.0291
 7707TIP3    H144536   5.627   5.589   6.015 -0.9877  0.1630 -1.3299
 7707TIP3    H244537   5.766   5.641   5.988 -0.7094  0.3477  0.3864
 7708TIP3   OH244538   4.399   4.560   4.920  0.5816 -0.4346  0.4653
 7708TIP3    H144539   4.315   4.530   4.884  0.4523 -0.3204  0.6709
 7708TIP3    H244540   4.464   4.503   4.878  0.3197 -1.1683  1.0182
 7709TIP3   OH244541   4.770   6.421   5.736 -0.0019  0.5545 -0.0763
 7709TIP3    H144542   4.757   6.385   5.824 -1.2735  0.6403 -0.2027
 7709TIP3    H244543   4.837   6.366   5.697  2.5972  2.1368  1.8478
 7710TIP3   OH244544   0.687   4.518  16.090  0.0286 -0.6640 -0.1595
 7710TIP3    H144545   0.700   4.426  16.113  0.9294 -1.2300 -2.6511
 7710TIP3    H244546   0.628   4.551  16.158 -0.5684 -3.1447  0.6413
 7711TIP3   OH244547   5.661   2.361   2.388 -0.0595  0.4706  0.1508
 7711TIP3    H144548   5.711   2.431   2.430 -0.0605 -0.4024  1.6906
 7711TIP3    H244549   5.722   2.320   2.327  0.5424  0.6131  0.6439
 7712TIP3   OH244550   3.181   1.816  13.186 -0.7099  0.2524 -0.5294
 7712TIP3    H144551   3.166   1.813  13.281 -0.8851  0.8722 -0.5358
 7712TIP3    H244552   3.145   1.734  13.154  1.1457 -0.9211  0.1813
 7713TIP3   OH244553   5.702   3.525   5.401 -0.3308 -0.3578 -0.8082
 7713TIP3    H144554   5.682   3.614   5.431 -1.4823 -1.6784  2.7523
 7713TIP3    H244555   5.672   3.524   5.310 -0.4997  2.7978 -0.9002
 7714TIP3   OH244556   1.492   0.442  16.238  0.2536 -0.1912 -0.0336
 7714TIP3    H144557   1.434   0.482  16.303  0.3576  1.2888 -0.8142
 7714TIP3    H244558   1.504   0.352  16.269 -0.0407  0.3472  1.7635
 7715TIP3   OH244559   1.995   1.037   1.379  0.3672  0.7346 -0.4722
 7715TIP3    H144560   1.922   1.000   1.330  0.1865  2.5803 -1.6853
 7715TIP3    H244561   1.975   1.015   1.470 -1.4626  0.7714 -0.8171
 7716TIP3   OH244562   1.840   2.455   3.278 -0.2929  0.1959  0.2238
 7716TIP3    H144563   1.806   2.541   3.253 -0.6845  0.1380  0.5521
 7716TIP3    H244564   1.878   2.468   3.365 -1.6426 -0.2677  0.9166
 7717TIP3   OH244565   5.060   3.056  17.220 -0.4043  0.0218  0.5472
 7717TIP3    H144566   5.084   2.976  17.267 -0.9243  0.5967  1.8273
 7717TIP3    H244567   4.991   3.095  17.273 -1.8484  0.1185 -1.3242
 7718TIP3   OH244568   4.124   5.864  12.748 -0.5052  0.7765  0.0745
 7718TIP3    H144569   4.163   5.949  12.731 -0.4879  1.1020  1.6268
 7718TIP3    H244570   4.188   5.818  12.802 -0.5118 -0.2361 -0.7451
 7719TIP3   OH244571   5.489   4.315   1.830 -0.1780  0.3124  0.2640
 7719TIP3    H144572   5.399   4.346   1.840 -0.5314 -0.8558  0.9379
 7719TIP3    H244573   5.502   4.311   1.735 -0.6985  0.8578  0.1619
 7720TIP3   OH244574   0.453   1.059  12.706 -0.0814 -0.0428  0.0356
 7720TIP3    H144575   0.463   1.047  12.611 -0.1353  0.9581 -0.1082
 7720TIP3    H244576   0.465   0.971  12.742  2.1780 -0.1123 -0.7184
 7721TIP3   OH244577   0.129   3.151  15.845  0.2804 -0.1382  0.5537
 7721TIP3    H144578   0.217   3.123  15.817  0.8631  2.7555 -0.9054
 7721TIP3    H244579   0.113   3.103  15.926  2.7756 -1.5340  0.3164
 7722TIP3   OH244580   2.714   2.693  11.736  0.1081  0.6733  0.2065
 7722TIP3    H144581   2.692   2.652  11.653  0.1042  0.8886  0.0994
 7722TIP3    H244582   2.688   2.630  11.802  0.5309  0.3014  0.0291
 7723TIP3   OH244583   0.064   1.402  15.206 -0.1273 -0.8154 -0.2534
 7723TIP3    H144584   0.103   1.420  15.120  0.6144 -0.0137  0.2302
 7723TIP3    H244585  -0.007   1.466  15.213  1.3497  0.8248  0.7021
 7724TIP3   OH244586   5.248   4.914  11.516  0.5121  0.3776 -0.3304
 7724TIP3    H144587   5.209   4.934  11.431  0.2637  0.7168 -0.1384
 7724TIP3    H244588   5.313   4.846  11.497  0.3979  0.3891 -0.7766
 7725TIP3   OH244589   6.291   2.971   5.393 -0.0328 -0.4124 -0.4905
 7725TIP3    H144590   6.198   2.978   5.413 -0.2731  3.3637 -2.0749
 7725TIP3    H244591   6.294   2.933   5.305 -0.2538  1.1026 -1.1790
 7726TIP3   OH244592   1.940   2.689  12.197 -0.4379 -0.0556  0.1142
 7726TIP3    H144593   1.913   2.598  12.208  2.0008 -1.2180 -2.2825
 7726TIP3    H244594   2.030   2.683  12.163 -0.4518  3.2308 -0.8108
 7727TIP3   OH244595   5.365   2.541   3.768  0.3532 -0.0218  0.0321
 7727TIP3    H144596   5.274   2.572   3.762  0.8172  1.1876 -1.3467
 7727TIP3    H244597   5.365   2.480   3.842 -1.4357  0.4538  0.4673
 7728TIP3   OH244598   3.038   3.255   2.981 -0.1002 -0.0127  0.2636
 7728TIP3    H144599   2.971   3.298   3.034 -0.8813  1.3367 -1.7053
 7728TIP3    H244600   3.023   3.162   2.996 -2.0701  0.2608  0.3083
 7729TIP3   OH244601   2.633   2.016  12.433 -0.4350  0.2067  0.2520
 7729TIP3    H144602   2.589   1.933  12.451 -0.2937 -0.1698 -1.0372
 7729TIP3    H244603   2.577   2.082  12.473 -2.6315 -0.1794 -1.9245
 7730TIP3   OH244604   0.966   2.406   0.954  0.9890  0.0440  0.4605
 7730TIP3    H144605   0.930   2.318   0.948  2.1041 -0.5272  1.6966
 7730TIP3    H244606   0.902   2.456   1.004  0.7759 -0.3122  0.5404
 7731TIP3   OH244607   1.544   0.411   2.983  0.4179 -0.6631  0.0661
 7731TIP3    H144608   1.534   0.430   2.890  0.9029 -1.5059 -0.1721
 7731TIP3    H244609   1.633   0.440   3.005 -0.0880  0.5898  0.5559
 7732TIP3   OH244610   2.582   1.575   1.422  0.4518 -0.8187  0.4491
 7732TIP3    H144611   2.536   1.645   1.376 -0.4275 -1.3518  0.4854
 7732TIP3    H244612   2.537   1.569   1.507  0.8189 -1.1055  0.6250
 7733TIP3   OH244613   5.071   1.917  15.046 -0.1545 -0.0888  0.4081
 7733TIP3    H144614   5.064   2.008  15.076 -1.4040 -0.1317  0.2975
 7733TIP3    H244615   5.110   1.871  15.120  0.4793  0.5147  0.4717
 7734TIP3   OH244616   3.602   4.064  13.896  1.2319 -0.1467 -0.1725
 7734TIP3    H144617   3.563   4.138  13.851  0.4286 -0.6393 -0.2994
 7734TIP3    H244618   3.694   4.065  13.869  1.8838  2.2527  1.7156
 7735TIP3   OH244619   3.628   6.260  13.566 -0.0662 -0.1272 -0.4608
 7735TIP3    H144620   3.699   6.267  13.502  0.9742 -1.3251  0.5223
 7735TIP3    H244621   3.568   6.331  13.542  1.4112  0.8837 -1.3574
 7736TIP3   OH244622   0.120   2.762  14.041 -0.2870  0.2175  0.3645
 7736TIP3    H144623   0.036   2.796  14.074 -1.0907 -0.4916 -0.8482
 7736TIP3    H244624   0.124   2.673  14.074 -1.8115 -1.0320 -2.4422
 7737TIP3   OH244625   0.207   5.642  13.595  0.1677  0.1218  0.7465
 7737TIP3    H144626   0.185   5.724  13.551 -0.0803  0.9403  2.3137
 7737TIP3    H244627   0.302   5.636  13.589  0.1090  0.0381 -0.1876
 7738TIP3   OH244628   3.219   6.194  13.389 -0.0311  0.4825 -0.5176
 7738TIP3    H144629   3.197   6.151  13.471  0.0833  0.8783 -0.2774
 7738TIP3    H244630   3.315   6.192  13.385 -0.0616 -0.5196 -1.1761
 7739TIP3   OH244631   1.235   4.663   2.563  0.1102  0.2249  0.5007
 7739TIP3    H144632   1.269   4.654   2.652 -0.5481  0.7991  0.8219
 7739TIP3    H244633   1.232   4.758   2.549 -0.1866  0.1436  0.0209
 7740TIP3   OH244634   4.674   0.590   0.202  0.4571  0.3241  0.1876
 7740TIP3    H144635   4.715   0.504   0.203 -0.0441  0.0708 -0.3991
 7740TIP3    H244636   4.624   0.594   0.284 -0.2544 -0.3218 -0.2016
 7741TIP3   OH244637   4.734   1.769  13.342  0.1972 -0.0406 -0.0237
 7741TIP3    H144638   4.715   1.788  13.250  2.8284 -0.8051 -0.8097
 7741TIP3    H244639   4.813   1.820  13.362  0.1885 -0.5779  1.5511
 7742TIP3   OH244640   0.066   0.567  15.417 -0.4176 -0.2986 -0.4063
 7742TIP3    H144641   0.082   0.586  15.509 -2.1049 -0.6860 -0.0008
 7742TIP3    H244642  -0.005   0.626  15.392 -0.1259 -0.3541 -1.4071
 7743TIP3   OH244643   5.425   4.719  11.448  0.3123 -0.7209  0.3088
 7743TIP3    H144644   5.420   4.700  11.542 -1.0169 -0.8792  0.2234
 7743TIP3    H244645   5.403   4.636  11.406  1.3163 -0.7636 -0.1657
 7744TIP3   OH244646   6.478   2.324  16.009  0.0261 -0.1782 -0.1132
 7744TIP3    H144647   6.552   2.384  16.003 -0.6288  0.6596 -0.0111
 7744TIP3    H244648   6.516   2.242  16.039  1.1140 -0.1586 -1.3396
 7745TIP3   OH244649   1.364   2.762   4.894  0.1056 -0.5009 -0.5594
 7745TIP3    H144650   1.305   2.808   4.835  0.6746  0.8168 -0.1300
 7745TIP3    H244651   1.444   2.814   4.894 -0.0369 -0.1592  1.7659
 7746TIP3   OH244652   1.434   1.590   4.298  0.3297 -0.0935  0.0625
 7746TIP3    H144653   1.527   1.612   4.296  0.2920  0.5772  2.3544
 7746TIP3    H244654   1.431   1.495   4.293  1.2327 -0.1972  1.2200
 7747TIP3   OH244655   0.600   2.955  11.278  0.2280 -0.3242 -0.2106
 7747TIP3    H144656   0.645   2.962  11.362  0.9685  0.7156 -0.6741
 7747TIP3    H244657   0.507   2.966  11.300  0.5399  1.6900  0.3075
 7748TIP3   OH244658   4.221   5.432  14.720 -0.3901  0.1396  0.1317
 7748TIP3    H144659   4.254   5.410  14.633  1.8382  0.3725  0.8726
 7748TIP3    H244660   4.127   5.449  14.706 -0.0633  0.3250 -2.2326
 7749TIP3   OH244661   1.889   0.620  12.100  0.6795 -0.1351 -0.0073
 7749TIP3    H144662   1.876   0.555  12.031  0.7377  0.2061 -0.3493
 7749TIP3    H244663   1.819   0.603  12.162  0.8944 -0.7350  0.0791
 7750TIP3   OH244664   4.310   4.330   2.566 -0.0003  0.0525 -0.3374
 7750TIP3    H144665   4.385   4.282   2.530 -1.0725 -1.3863 -0.7810
 7750TIP3    H244666   4.339   4.359   2.652  1.6293  1.0299 -1.1643
 7751TIP3   OH244667   0.645   1.385   2.642  0.0538 -0.0805 -0.3857
 7751TIP3    H144668   0.720   1.437   2.671  0.1760  0.5632 -1.7629
 7751TIP3    H244669   0.591   1.376   2.720  1.5310 -0.5340  0.6400
 7752TIP3   OH244670   1.257   5.370   4.745 -0.1885  0.5038 -0.0797
 7752TIP3    H144671   1.289   5.327   4.666  0.3323 -0.1625  0.4887
 7752TIP3    H244672   1.324   5.435   4.766 -1.0873  1.8121 -1.0751
 7753TIP3   OH244673   4.744   6.293   4.100 -0.1344 -0.0186  0.4957
 7753TIP3    H144674   4.785   6.359   4.045  0.2877 -1.2959 -0.7806
 7753TIP3    H244675   4.805   6.281   4.174  0.7537 -0.3530 -0.2726
 7754TIP3   OH244676   2.904   2.047   5.310  0.0595  0.0783 -0.0236
 7754TIP3    H144677   2.809   2.047   5.315 -0.2297 -0.7179 -3.3119
 7754TIP3    H244678   2.925   2.106   5.238  1.9393 -0.8247 -0.2844
 7755TIP3   OH244679   3.826   0.476  11.709  0.4468  0.1200 -0.4262
 7755TIP3    H144680   3.827   0.571  11.695  2.8614 -0.0421 -2.0414
 7755TIP3    H244681   3.845   0.465  11.802 -0.5196  1.1902 -0.0751
 7756TIP3   OH244682   5.867   4.499  14.478 -0.2705 -0.0216 -0.3778
 7756TIP3    H144683   5.944   4.553  14.498  1.3885 -2.2689 -0.3598
 7756TIP3    H244684   5.886   4.414  14.518 -3.5090 -0.2430  1.0300
 7757TIP3   OH244685   2.000   6.179  14.926 -0.1530  0.1175 -0.1447
 7757TIP3    H144686   1.987   6.263  14.971  0.9213  0.8896 -1.2128
 7757TIP3    H244687   1.924   6.171  14.868 -1.0976 -0.4640  1.1344
 7758TIP3   OH244688   0.083   2.412   2.802  0.2088  0.2517  0.9549
 7758TIP3    H144689   0.066   2.499   2.839 -0.7633  0.4323  0.1108
 7758TIP3    H244690   0.147   2.374   2.862  1.4612  1.9365  0.7735
 7759TIP3   OH244691   0.220   5.532  17.328 -0.4874  0.2167  0.0198
 7759TIP3    H144692   0.247   5.578  17.407 -1.3691 -0.4498  0.7300
 7759TIP3    H244693   0.126   5.518  17.340 -0.9425  1.3608 -1.7887
 7760TIP3   OH244694   5.639   6.598  13.113  0.0377  0.3066 -0.6694
 7760TIP3    H144695   5.555   6.552  13.108  0.2188  0.0071 -1.0088
 7760TIP3    H244696   5.700   6.533  13.147 -0.0415  0.7767  0.3954
 7761TIP3   OH244697   2.842   6.200   5.348 -0.0593  0.1461  0.0505
 7761TIP3    H144698   2.930   6.166   5.365 -0.2778  0.2030  1.4230
 7761TIP3    H244699   2.838   6.210   5.253  1.8809  1.3808  0.0489
 7762TIP3   OH244700   6.232   4.335   4.718 -0.2348  0.3095  0.1257
 7762TIP3    H144701   6.173   4.295   4.655 -1.2404  0.6091  0.8599
 7762TIP3    H244702   6.302   4.271   4.729 -1.9141 -1.4238  1.4467
 7763TIP3   OH244703   1.558   6.382  10.986  0.4837 -0.2871 -0.2434
 7763TIP3    H144704   1.598   6.298  11.007 -1.0490 -0.4424  2.5086
 7763TIP3    H244705   1.632   6.439  10.964  2.1967 -0.9738  3.0444
 7764TIP3   OH244706   2.414   6.034   2.656  0.8542 -0.0540 -0.5079
 7764TIP3    H144707   2.372   6.106   2.704  0.1800 -0.4516 -0.4858
 7764TIP3    H244708   2.503   6.064   2.640  1.7297 -0.6131  2.6350
 7765TIP3   OH244709   1.509   2.737  12.005 -0.0254 -0.6024  0.3533
 7765TIP3    H144710   1.435   2.741  11.944 -0.8649 -0.3688  1.3507
 7765TIP3    H244711   1.540   2.827  12.011  0.0643 -0.6272  0.2598
 7766TIP3   OH244712   1.725   0.938  16.624  0.3966  0.6466  0.2516
 7766TIP3    H144713   1.768   0.917  16.541  1.6092  2.7884  0.2845
 7766TIP3    H244714   1.665   0.865  16.638  0.0688  0.2517 -2.5582
 7767TIP3   OH244715   4.067   2.988  15.214 -0.1959  0.5627  0.3324
 7767TIP3    H144716   4.082   2.897  15.189 -3.4906  0.3608 -1.6450
 7767TIP3    H244717   4.058   2.986  15.309 -0.5217 -1.2886  0.3015
 7768TIP3   OH244718   0.522   1.421   0.362 -0.2746 -0.1897  0.2458
 7768TIP3    H144719   0.479   1.437   0.279  2.8773 -0.0814 -1.5084
 7768TIP3    H244720   0.531   1.326   0.367 -1.5879 -0.2954  1.1516
 7769TIP3   OH244721   1.720   3.771   3.207  0.3478 -0.5114 -0.0924
 7769TIP3    H144722   1.752   3.857   3.178  2.1691 -0.9284  0.5650
 7769TIP3    H244723   1.760   3.709   3.146 -2.7816 -0.8259 -2.0296
 7770TIP3   OH244724   6.340   2.559  15.676 -0.0868 -0.4855  0.2258
 7770TIP3    H144725   6.262   2.557  15.620  0.7132 -0.5208 -0.9186
 7770TIP3    H244726   6.399   2.495  15.637  0.4581 -0.5709  1.1766
 7771TIP3   OH244727   6.275   2.123  10.590 -0.1749 -0.5242  0.0982
 7771TIP3    H144728   6.355   2.160  10.554 -0.4836  0.0133 -0.0561
 7771TIP3    H244729   6.302   2.043  10.634  0.5321 -0.0394  0.5567
 7772TIP3   OH244730   6.322   0.989  17.194  0.4058 -0.1846  0.4355
 7772TIP3    H144731   6.371   1.071  17.197  0.2661 -0.0138 -1.1904
 7772TIP3    H244732   6.384   0.923  17.226  1.0486  0.3112  0.2277
 7773TIP3   OH244733   3.360   4.531   5.263  0.0905 -0.0001 -0.0417
 7773TIP3    H144734   3.433   4.591   5.247 -0.6583  0.7701 -0.6437
 7773TIP3    H244735   3.399   4.458   5.312  1.4990 -0.1835 -1.3809
 7774TIP3   OH244736   3.976   5.606   4.876 -0.0024  0.0330 -0.1912
 7774TIP3    H144737   4.025   5.574   4.800 -0.3801 -0.9095 -0.0482
 7774TIP3    H244738   4.018   5.690   4.897  0.7989 -0.1994 -0.7776
 7775TIP3   OH244739   2.768   3.368   3.375 -0.0952  0.4037 -0.2962
 7775TIP3    H144740   2.806   3.446   3.416  2.0192 -1.4421  1.5210
 7775TIP3    H244741   2.690   3.349   3.428  0.3224  0.3566  0.3055
 7776TIP3   OH244742   5.218   1.224   5.464 -0.5503  0.2385  0.3014
 7776TIP3    H144743   5.223   1.311   5.424 -1.9180  1.0984  1.8430
 7776TIP3    H244744   5.206   1.242   5.557 -0.5769 -1.6267  0.6889
 7777TIP3   OH244745   3.448   2.966   3.971  0.0260 -0.2153  0.5129
 7777TIP3    H144746   3.400   2.912   3.907 -2.6035 -0.0576  2.2103
 7777TIP3    H244747   3.497   3.029   3.917 -2.1170 -0.0515 -1.3944
 7778TIP3   OH244748   0.055   3.363  14.436  0.4381 -0.0434 -0.4675
 7778TIP3    H144749   0.118   3.428  14.469 -0.3056  1.7014 -2.2553
 7778TIP3    H244750  -0.002   3.346  14.510  1.8682 -0.2265  0.6434
 7779TIP3   OH244751   1.159   0.196   4.359 -0.2873 -0.4095 -0.0219
 7779TIP3    H144752   1.069   0.172   4.384 -0.4081  0.0531 -0.0051
 7779TIP3    H244753   1.202   0.112   4.345 -0.2115 -0.7219  1.7539
 7780TIP3   OH244754   1.937   5.041  13.505 -0.3303 -0.0281 -0.1006
 7780TIP3    H144755   2.022   5.029  13.464 -0.4774 -1.7101  0.0149
 7780TIP3    H244756   1.944   4.995  13.589 -2.2254 -2.8696 -1.3518
 7781TIP3   OH244757   5.552   1.881  16.819  0.2418  0.2025  0.1786
 7781TIP3    H144758   5.622   1.817  16.814 -1.6078 -1.9634  0.2377
 7781TIP3    H244759   5.498   1.851  16.893 -1.4533  0.9921 -0.6933
 7782TIP3   OH244760   2.402   4.759  11.828 -0.2627  0.1064 -0.1731
 7782TIP3    H144761   2.446   4.821  11.887 -0.4438  1.7003 -1.6221
 7782TIP3    H244762   2.468   4.693  11.809  0.7757  1.2012 -0.4911
 7783TIP3   OH244763   2.337   1.557   4.404 -0.1113 -0.2086  0.6130
 7783TIP3    H144764   2.343   1.536   4.498  0.9474  0.8861  0.8144
 7783TIP3    H244765   2.243   1.574   4.390 -0.2519 -0.1349  1.5374
 7784TIP3   OH244766   3.517   3.500   3.437  0.1683  0.4808  0.1088
 7784TIP3    H144767   3.488   3.476   3.349 -0.6749  2.3258 -0.1807
 7784TIP3    H244768   3.602   3.541   3.424  1.2145 -1.4883  0.4932
 7785TIP3   OH244769   6.494   2.734  12.373  0.3941  0.6167 -0.1238
 7785TIP3    H144770   6.428   2.777  12.318 -2.1143  0.0716  2.2187
 7785TIP3    H244771   6.525   2.803  12.431 -0.9634  0.1415  1.2376
 7786TIP3   OH244772   0.528   5.083   4.267  0.1206  0.4104 -0.0669
 7786TIP3    H144773   0.595   5.020   4.244  1.7503  0.9498  2.7585
 7786TIP3    H244774   0.543   5.158   4.209  1.5958  0.2736  0.1255
 7787TIP3   OH244775   5.749   2.424   5.823  0.4370  1.0405  0.7954
 7787TIP3    H144776   5.742   2.506   5.775 -0.7116 -0.3226 -1.5109
 7787TIP3    H244777   5.662   2.412   5.862 -0.3464 -0.4132 -1.2713
 7788TIP3   OH244778   0.088   1.680   4.874 -0.5538  0.2529  0.2961
 7788TIP3    H144779   0.049   1.665   4.788  0.1439  2.7255 -0.5421
 7788TIP3    H244780   0.099   1.775   4.879  1.9729 -0.0331  1.9562
 7789TIP3   OH244781   2.969   5.845  13.318 -0.9862  0.2466 -0.2195
 7789TIP3    H144782   3.004   5.763  13.352 -2.5476 -0.1911  0.4484
 7789TIP3    H244783   2.874   5.833  13.318 -1.2588  2.0162 -0.2058
 7790TIP3   OH244784   2.282   5.222  15.979  0.2346  0.1813  0.1523
 7790TIP3    H144785   2.249   5.304  15.942 -0.3802  0.2814  0.8937
 7790TIP3    H244786   2.372   5.242  16.006 -0.9867  1.7429  3.6023
 7791TIP3   OH244787   1.897   3.988   6.260 -0.1103 -0.0295  0.5236
 7791TIP3    H144788   1.976   3.936   6.245 -0.2725 -0.4262  0.9829
 7791TIP3    H244789   1.888   3.989   6.356  0.6108  1.9502  0.6065
 7792TIP3   OH244790   3.507   6.137  17.100 -0.0354 -0.1886  0.0856
 7792TIP3    H144791   3.487   6.197  17.172  0.0301  0.8623 -0.7681
 7792TIP3    H244792   3.518   6.192  17.023  2.6981 -1.0089 -0.2310
 7793TIP3   OH244793   4.485   1.847  16.951 -0.1153 -0.0302  0.3693
 7793TIP3    H144794   4.548   1.891  17.007  1.7280 -0.7292 -1.0460
 7793TIP3    H244795   4.437   1.918  16.909  1.2030  0.6038 -0.1208
 7794TIP3   OH244796   4.696   1.024  13.157 -0.3213  0.1413 -0.2539
 7794TIP3    H144797   4.615   0.984  13.123 -1.0794  0.5877  0.9614
 7794TIP3    H244798   4.765   0.963  13.130 -1.2606 -1.1634  0.1429
 7795TIP3   OH244799   3.748   1.141  15.873  0.4508 -0.0483 -0.3286
 7795TIP3    H144800   3.752   1.053  15.911 -0.5880  0.1605  0.2912
 7795TIP3    H244801   3.688   1.132  15.799  2.2465 -0.3889 -1.8393
 7796TIP3   OH244802   0.764   4.103   0.826  0.1988 -0.5127 -0.2025
 7796TIP3    H144803   0.818   4.150   0.890  0.1172  0.6699 -0.9716
 7796TIP3    H244804   0.822   4.033   0.794  0.6495 -0.3794  0.2996
 7797TIP3   OH244805   1.777   3.933  13.217 -0.2762 -0.1022  0.8334
 7797TIP3    H144806   1.721   3.889  13.154  1.1050 -0.5508 -0.1306
 7797TIP3    H244807   1.805   4.013  13.173  1.4056 -0.8460  0.4810
 7798TIP3   OH244808   0.868   6.274   4.401 -0.3304  0.0738  0.0617
 7798TIP3    H144809   0.850   6.319   4.319  0.8807  0.3090 -0.0982
 7798TIP3    H244810   0.865   6.343   4.467  0.6416  0.2424 -0.0616
 7799TIP3   OH244811   1.229   5.600  12.406 -0.2399  0.6556 -0.6317
 7799TIP3    H144812   1.218   5.520  12.458  2.7952  0.6235  0.1691
 7799TIP3    H244813   1.189   5.669  12.458  0.1540  0.1576  0.3498
 7800TIP3   OH244814   6.110   2.325   4.656 -0.1587 -0.1025 -0.1157
 7800TIP3    H144815   6.187   2.293   4.609 -0.1168 -0.0610 -0.0754
 7800TIP3    H244816   6.043   2.258   4.641 -0.0859 -0.1844 -0.0729
 7801TIP3   OH244817   3.070   1.724   0.522 -0.2963 -0.3206  0.3016
 7801TIP3    H144818   3.076   1.820   0.513  0.8719 -0.4651 -0.6982
 7801TIP3    H244819   2.989   1.701   0.476 -0.3296  0.1322  0.1266
 7802TIP3   OH244820   2.718   6.597  11.441  0.4177 -0.7335 -0.0336
 7802TIP3    H144821   2.625   6.577  11.446  0.1356  0.6769  0.9814
 7802TIP3    H244822   2.751   6.579  11.530  0.9083 -0.3358 -0.1303
 7803TIP3   OH244823   3.641   1.739  14.101 -0.1280  0.0637 -0.2956
 7803TIP3    H144824   3.591   1.699  14.029  1.2148 -3.6181  0.6117
 7803TIP3    H244825   3.726   1.761  14.062 -0.2153  0.2765 -0.3660
 7804TIP3   OH244826   2.476   1.858   0.808 -0.2751  0.1493  0.0132
 7804TIP3    H144827   2.394   1.822   0.840  0.5333 -2.4026 -0.5341
 7804TIP3    H244828   2.519   1.893   0.886 -0.6300 -1.1837  0.8551
 7805TIP3   OH244829   4.010   6.299  12.446 -0.1345 -0.1980  0.1301
 7805TIP3    H144830   3.933   6.249  12.471 -1.2017  0.6264 -1.3523
 7805TIP3    H244831   4.054   6.245  12.381 -0.8931  0.4382 -0.9349
 7806TIP3   OH244832   0.479   3.993  15.451  0.0499  0.0354  0.1736
 7806TIP3    H144833   0.536   4.060  15.414 -1.6595  1.2569 -0.3438
 7806TIP3    H244834   0.392   4.032  15.451 -1.2369 -2.5612 -1.1445
 7807TIP3   OH244835   4.073   0.085   3.777 -0.6341 -0.4385 -0.5125
 7807TIP3    H144836   3.996   0.037   3.747  0.9544 -2.7696 -1.0511
 7807TIP3    H244837   4.056   0.102   3.869 -2.2615  0.0976 -0.8821
 7808TIP3   OH244838   4.926   2.972   6.007 -0.0258  0.3640  0.3284
 7808TIP3    H144839   4.922   2.899   6.070 -0.4254 -0.3522 -0.5117
 7808TIP3    H244840   5.019   2.990   5.998  0.0643  0.1256  0.7370
 7809TIP3   OH244841   4.554   4.160  11.542  0.6851  0.5182  0.2182
 7809TIP3    H144842   4.486   4.227  11.543 -0.3415 -0.4596  2.1672
 7809TIP3    H244843   4.616   4.189  11.475 -1.5581  1.5189 -1.5689
 7810TIP3   OH244844   1.830   3.767  13.762 -0.3510  0.0072  0.0873
 7810TIP3    H144845   1.786   3.685  13.738 -0.0645 -0.1898  0.2207
 7810TIP3    H244846   1.863   3.751  13.850 -1.0097  0.5674  0.4394
 7811TIP3   OH244847   0.930   4.204  11.523  0.1713 -0.2539  0.6233
 7811TIP3    H144848   0.880   4.124  11.539 -0.1120 -0.4843 -1.1621
 7811TIP3    H244849   1.021   4.176  11.521  0.0825 -0.5213  0.1561
 7812TIP3   OH244850   2.718   1.304   4.256  0.7676 -0.6026 -0.1312
 7812TIP3    H144851   2.677   1.241   4.197 -0.5134 -1.1194  1.2249
 7812TIP3    H244852   2.672   1.386   4.240  1.1895 -0.4486 -0.6064
 7813TIP3   OH244853   6.356   1.832   6.206  0.3000 -0.2488  0.0639
 7813TIP3    H144854   6.307   1.900   6.254 -0.8947 -0.9860 -0.0677
 7813TIP3    H244855   6.424   1.804   6.268 -0.2217 -0.0749  0.7314
 7814TIP3   OH244856   0.537   3.609  12.943  0.0949  0.5830  0.0572
 7814TIP3    H144857   0.551   3.659  13.024 -1.0727  1.6141 -0.3570
 7814TIP3    H244858   0.450   3.571  12.953  0.2853  0.0214 -0.3684
 7815TIP3   OH244859   0.074   0.726  11.576  0.1574  0.0780 -0.0526
 7815TIP3    H144860   0.122   0.716  11.494 -1.9112 -1.3292 -1.1794
 7815TIP3    H244861  -0.016   0.744  11.549 -0.5008 -0.0159  1.9300
 7816TIP3   OH244862   6.064   2.156  16.528  0.7373 -0.2467  0.3329
 7816TIP3    H144863   6.021   2.147  16.612 -0.3903  2.5492  0.1469
 7816TIP3    H244864   6.150   2.192  16.549  0.7846 -0.3558  0.3286
 7817TIP3   OH244865   5.375   3.333   6.340  0.3160 -0.4749  0.4510
 7817TIP3    H144866   5.363   3.276   6.415 -1.8895 -0.5832  0.0753
 7817TIP3    H244867   5.328   3.413   6.362  1.7285  0.4870  0.1647
 7818TIP3   OH244868   6.659   3.481   5.953  0.2388 -0.3787 -0.2080
 7818TIP3    H144869   6.755   3.486   5.950  0.3249 -0.5671  1.5342
 7818TIP3    H244870   6.640   3.387   5.952  0.4546 -0.8095  5.3380
 7819TIP3   OH244871   2.629   0.412   1.438  0.2686  0.4733 -0.2300
 7819TIP3    H144872   2.710   0.372   1.471 -1.6868 -0.6828  3.7907
 7819TIP3    H244873   2.647   0.506   1.439  1.6295  0.2345  0.4955
 7820TIP3   OH244874   2.229   3.941  16.351 -0.2862 -0.0248 -0.1875
 7820TIP3    H144875   2.283   4.018  16.365 -0.1867 -0.2031  0.4289
 7820TIP3    H244876   2.262   3.902  16.270  0.9100 -0.4671  0.4941
 7821TIP3   OH244877   2.455   6.170  13.732  0.0246 -0.4769  0.7018
 7821TIP3    H144878   2.490   6.255  13.759 -0.7145 -0.1557  0.6716
 7821TIP3    H244879   2.363   6.172  13.759  0.1788 -1.5585  1.3608
 7822TIP3   OH244880   4.644   3.336  12.926  0.3738  0.1618  0.5814
 7822TIP3    H144881   4.671   3.300  13.011 -0.4187 -2.7699 -0.3165
 7822TIP3    H244882   4.726   3.356  12.881  0.8049  1.9123  2.0293
 7823TIP3   OH244883   0.476   5.395  15.066  0.0286 -0.0551 -0.4646
 7823TIP3    H144884   0.419   5.459  15.021  0.5217  0.5761 -0.2064
 7823TIP3    H244885   0.513   5.342  14.995  0.6887  0.8400 -0.8140
 7824TIP3   OH244886   4.716   5.643   2.874  0.6138  0.6150  0.1483
 7824TIP3    H144887   4.762   5.671   2.795 -0.4196 -0.4988 -0.8756
 7824TIP3    H244888   4.649   5.582   2.844 -1.1711  1.6971  1.6568
 7825TIP3   OH244889   3.638   6.453  16.764  0.0023 -0.2049  0.4265
 7825TIP3    H144890   3.573   6.503  16.812  1.1047  1.8100 -0.0774
 7825TIP3    H244891   3.605   6.363  16.765 -2.8726  0.7516  0.0294
 7826TIP3   OH244892   5.062   3.520   2.581 -0.1406  0.2049  0.0427
 7826TIP3    H144893   5.073   3.426   2.567  0.8398  0.4552 -1.0370
 7826TIP3    H244894   5.137   3.545   2.635  0.1387  0.5290 -0.4892
 7827TIP3   OH244895   4.551   3.199  14.839  0.0961  0.5192 -0.2261
 7827TIP3    H144896   4.629   3.211  14.784 -0.4154  0.0227 -1.0729
 7827TIP3    H244897   4.575   3.129  14.899  0.3625  0.4802 -0.3764
 7828TIP3   OH244898   3.835   3.782  16.263 -0.1172  0.0392 -0.0514
 7828TIP3    H144899   3.817   3.696  16.301 -2.1991 -0.4384 -1.8897
 7828TIP3    H244900   3.842   3.765  16.169  2.4914  1.4920 -0.2190
 7829TIP3   OH244901   4.363   1.845  15.513 -0.6525  0.0199  0.0310
 7829TIP3    H144902   4.373   1.750  15.507  0.5298  0.1867 -1.2548
 7829TIP3    H244903   4.450   1.876  15.535 -0.9909  0.8218  0.2534
 7830TIP3   OH244904   0.230   6.472  14.612  0.5359 -0.3966 -0.7682
 7830TIP3    H144905   0.265   6.408  14.674  0.1011 -0.3433 -0.4736
 7830TIP3    H244906   0.173   6.529  14.664  1.2272  0.4865 -0.9454
 7831TIP3   OH244907   5.882   6.407   3.507  0.3339 -0.0967 -0.1392
 7831TIP3    H144908   5.806   6.465   3.515  0.6504  0.2482  0.4671
 7831TIP3    H244909   5.852   6.323   3.542  0.5248  0.3197  1.0746
 7832TIP3   OH244910   2.199   4.614  12.713 -0.0915 -0.2884 -0.1295
 7832TIP3    H144911   2.170   4.690  12.763  1.7740  0.8326 -0.6615
 7832TIP3    H244912   2.243   4.558  12.777 -2.0670 -1.3332  0.4026
 7833TIP3   OH244913   0.730   2.482   2.821 -0.0029 -0.0812 -0.1346
 7833TIP3    H144914   0.789   2.408   2.835 -0.8958 -0.6097  0.9849
 7833TIP3    H244915   0.670   2.452   2.753 -0.1517 -0.2665  0.0763
 7834TIP3   OH244916   4.861   4.023  15.565 -0.3107  0.3427 -0.2460
 7834TIP3    H144917   4.884   3.960  15.497  2.1790 -1.8573  2.3867
 7834TIP3    H244918   4.778   3.991  15.600 -0.7467  0.5237 -1.0751
 7835TIP3   OH244919   1.070   1.115   5.146  0.0474  0.2854 -0.1472
 7835TIP3    H144920   1.144   1.103   5.087 -0.8672  1.7129 -1.7026
 7835TIP3    H244921   0.993   1.095   5.093 -0.7569  0.0665  1.0463
 7836TIP3   OH244922   2.420   1.843   0.120 -0.4646  0.4674 -0.2513
 7836TIP3    H144923   2.397   1.751   0.105  1.4684 -0.0824 -0.0871
 7836TIP3    H244924   2.385   1.889   0.043  0.5289 -0.7638 -1.4853
 7837TIP3   OH244925   2.208   6.286  13.086  0.3096  0.0069 -0.3250
 7837TIP3    H144926   2.161   6.301  13.003 -0.7214 -0.4854  0.1521
 7837TIP3    H244927   2.148   6.316  13.154 -1.0364 -4.0233  0.5626
 7838TIP3   OH244928   4.563   4.561  17.211  0.6388  0.3612 -0.1523
 7838TIP3    H144929   4.519   4.483  17.178 -0.0652  0.6240  0.1604
 7838TIP3    H244930   4.562   4.622  17.138  0.1700  0.4959 -0.0350
 7839TIP3   OH244931   0.386   3.738   0.382 -0.3763  0.4647 -0.2637
 7839TIP3    H144932   0.378   3.658   0.330  1.4920  1.5570 -2.4166
 7839TIP3    H244933   0.306   3.787   0.363 -0.0484  0.5217 -1.5775
 7840TIP3   OH244934   1.231   1.876  16.658 -0.3295  0.3823  0.0564
 7840TIP3    H144935   1.277   1.796  16.633  0.6509  1.2959 -1.1585
 7840TIP3    H244936   1.284   1.913  16.729  0.3338  0.9701 -0.7347
 7841TIP3   OH244937   3.218   2.050   0.199 -0.5746 -0.1763 -0.1690
 7841TIP3    H144938   3.135   2.054   0.246 -0.9413 -0.1800 -0.8006
 7841TIP3    H244939   3.221   2.131   0.148 -0.1527 -0.1380 -0.0909
 7842TIP3   OH244940   1.413   1.458   4.898  0.0639  0.1576 -0.3837
 7842TIP3    H144941   1.368   1.423   4.974  1.7948 -1.6801 -0.1236
 7842TIP3    H244942   1.477   1.519   4.933  0.1072  0.1620 -0.4689
 7843TIP3   OH244943   0.137   0.872   2.417  0.1331  0.4938  0.0385
 7843TIP3    H144944   0.092   0.838   2.339  1.9627 -0.1073 -0.8103
 7843TIP3    H244945   0.100   0.959   2.429 -0.0354  0.7102 -1.6910
 7844TIP3   OH244946   1.490   1.946   1.973 -0.8867  0.5684 -0.2964
 7844TIP3    H144947   1.537   2.019   2.012 -0.3261 -0.1859  0.4658
 7844TIP3    H244948   1.548   1.913   1.905 -0.4271 -0.1485  0.4187
 7845TIP3   OH244949   6.278   5.547   1.770  0.2549  0.1171 -0.3840
 7845TIP3    H144950   6.192   5.553   1.729  0.5746 -0.0518 -1.0908
 7845TIP3    H244951   6.279   5.460   1.810  0.2525 -0.0521 -0.7458
 7846TIP3   OH244952   2.694   1.490   3.509 -0.4662 -0.1163  0.2671
 7846TIP3    H144953   2.620   1.445   3.551 -0.1718 -0.4637  0.4242
 7846TIP3    H244954   2.717   1.560   3.571 -0.5687 -0.0979  0.2852
 7847TIP3   OH244955   3.193   1.995  12.975  0.5339 -0.8609 -0.7395
 7847TIP3    H144956   3.202   1.943  13.055  0.6918 -0.7732 -0.7007
 7847TIP3    H244957   3.138   1.941  12.918 -1.8838  0.2249  0.4234
 7848TIP3   OH244958   4.033   4.224  12.904  0.1720  0.3791  0.1885
 7848TIP3    H144959   4.055   4.217  12.811  1.0256 -1.1665  0.4656
 7848TIP3    H244960   3.986   4.142  12.923  2.8293 -0.8942  1.7817
 7849TIP3   OH244961   4.232   5.742  12.378  0.2175 -0.1079  0.0539
 7849TIP3    H144962   4.309   5.687  12.388  0.1878 -0.1187  0.2360
 7849TIP3    H244963   4.238   5.777  12.289  0.8575  0.5447  0.3408
 7850TIP3   OH244964   4.885   1.598  15.824 -0.1274  0.6224 -0.4416
 7850TIP3    H144965   4.873   1.625  15.733 -0.3665  0.7491 -0.3759
 7850TIP3    H244966   4.796   1.577  15.854  0.0716 -0.3308 -0.5153
 7851TIP3   OH244967   1.106   5.011  12.119 -0.3665  0.1307  0.7438
 7851TIP3    H144968   1.189   5.021  12.072  0.7103 -0.4870  2.4152
 7851TIP3    H244969   1.061   4.939  12.074 -0.5684  1.2635 -0.9209
 7852TIP3   OH244970   3.717   2.973   1.465 -0.0659  0.2141 -0.0961
 7852TIP3    H144971   3.669   3.015   1.393 -1.3122 -0.4384  0.3124
 7852TIP3    H244972   3.708   3.034   1.538 -1.1336 -0.3373  0.2525
 7853TIP3   OH244973   1.117   2.663  14.284  0.0916 -0.8688  0.1850
 7853TIP3    H144974   1.183   2.594  14.277 -0.1641 -1.0343 -0.6155
 7853TIP3    H244975   1.140   2.726  14.216 -1.5989 -1.8077 -1.3395
 7854TIP3   OH244976   3.862   0.449   3.644 -0.6468  0.3028 -0.4462
 7854TIP3    H144977   3.894   0.481   3.728 -1.1224 -0.6924  0.1260
 7854TIP3    H244978   3.770   0.429   3.659 -0.7931  0.3049 -1.2679
 7855TIP3   OH244979   2.758   1.276  12.826  0.0066 -0.2653 -0.1135
 7855TIP3    H144980   2.730   1.326  12.749 -1.3457  0.5681  0.8892
 7855TIP3    H244981   2.679   1.231  12.855  1.1330 -2.9452 -0.8767
 7856TIP3   OH244982   3.769   2.665  13.850 -0.2537 -0.3699  0.0073
 7856TIP3    H144983   3.807   2.686  13.935  1.0370  1.9107 -1.0311
 7856TIP3    H244984   3.677   2.689  13.858 -0.3456 -0.9928  0.9810
 7857TIP3   OH244985   2.276   0.916  15.944 -0.0638  0.1222  0.4470
 7857TIP3    H144986   2.279   0.977  16.017 -0.8237  1.4413 -0.5836
 7857TIP3    H244987   2.343   0.947  15.884 -1.7605  1.1973 -0.9821
 7858TIP3   OH244988   3.157   2.890  13.486 -0.5296 -0.2383 -0.1019
 7858TIP3    H144989   3.095   2.915  13.418 -0.0191 -0.1524 -0.5396
 7858TIP3    H244990   3.158   2.794  13.485 -1.9626 -0.3073  1.1043
 7859TIP3   OH244991   3.833   5.507   2.840 -0.0785  0.2311  0.3026
 7859TIP3    H144992   3.767   5.524   2.773  1.6927  1.1998 -1.3099
 7859TIP3    H244993   3.889   5.440   2.802  1.5885  1.5612  0.3064
 7860TIP3   OH244994   0.146   2.901   1.802  0.2816  0.6288  0.5728
 7860TIP3    H144995   0.054   2.882   1.784  0.5186  0.3022 -0.3220
 7860TIP3    H244996   0.153   2.996   1.793 -0.0463  0.7036  1.0453
 7861TIP3   OH244997   3.795   6.227   0.273 -0.3517  0.5170 -0.1439
 7861TIP3    H144998   3.823   6.317   0.260 -1.1718  0.8759  0.5462
 7861TIP3    H244999   3.869   6.174   0.240  0.4772  1.4260  0.2027
 7862TIP3   OH245000   6.336   2.261  16.912 -0.0937  0.0080 -0.6997
 7862TIP3    H145001   6.308   2.351  16.927  0.5708 -0.2202  2.5948
 7862TIP3    H245002   6.274   2.208  16.963  1.0345 -1.1974 -0.5335
 7863TIP3   OH245003   6.286   1.283  14.241 -0.9879  0.0004 -0.2704
 7863TIP3    H145004   6.221   1.329  14.188 -0.7792  1.3201  0.5732
 7863TIP3    H245005   6.368   1.330  14.225 -0.8514  0.1910  0.9254
 7864TIP3   OH245006   5.893   2.040  13.147  0.4114 -0.2527  0.4519
 7864TIP3    H145007   5.942   2.096  13.207 -0.6613  0.8922  0.3049
 7864TIP3    H245008   5.854   1.973  13.203  2.2551 -1.3164  0.5453
 7865TIP3   OH245009   1.411   0.224  13.560  0.0018 -0.8459  0.4046
 7865TIP3    H145010   1.339   0.269  13.516 -0.2755 -0.5605  1.1323
 7865TIP3    H245011   1.442   0.160  13.496  1.3721  1.3057 -1.2311
 7866TIP3   OH245012   3.044   6.724   2.670  0.1610  0.5431  0.2564
 7866TIP3    H145013   3.018   6.655   2.608 -0.2322  2.1921 -1.5161
 7866TIP3    H245014   3.132   6.749   2.643 -0.2425  1.6930 -0.0432
 7867TIP3   OH245015   0.577   2.648   1.551 -0.4028  0.7796  0.7159
 7867TIP3    H145016   0.585   2.676   1.642 -1.3706 -2.5927  1.9894
 7867TIP3    H245017   0.666   2.621   1.527 -0.6404 -0.9941  1.6976
 7868TIP3   OH245018   6.048   1.899   2.583 -0.0490  0.1619  0.1172
 7868TIP3    H145019   6.007   1.813   2.597 -1.0583  0.8045  1.2911
 7868TIP3    H245020   6.109   1.908   2.656  0.0502  0.4562 -0.0002
 7869TIP3   OH245021   2.652   0.135   1.197  0.0050 -0.1881 -0.1683
 7869TIP3    H145022   2.668   0.228   1.216  0.1146 -0.2642  0.1129
 7869TIP3    H245023   2.701   0.088   1.264 -1.0900 -0.4409  0.4794
 7870TIP3   OH245024   3.541   6.182  14.895  0.4824 -0.2218 -0.1384
 7870TIP3    H145025   3.596   6.106  14.878 -0.9418 -1.3152 -0.0249
 7870TIP3    H245026   3.538   6.229  14.812  0.0051 -1.2196 -0.6939
 7871TIP3   OH245027   3.453   3.438   3.166 -0.5023 -1.0157  0.2809
 7871TIP3    H145028   3.372   3.439   3.114 -0.1417  0.6153 -0.3003
 7871TIP3    H245029   3.516   3.487   3.113 -0.1635  0.9100  2.3296
 7872TIP3   OH245030   3.922   2.694   1.706 -0.0462 -0.2127  0.7271
 7872TIP3    H145031   3.826   2.697   1.698  0.0037  2.0323  0.2178
 7872TIP3    H245032   3.938   2.645   1.786 -1.6861  0.3091  1.4126
 7873TIP3   OH245033   2.861   6.085  13.182 -0.3322  0.0451 -0.0260
 7873TIP3    H145034   2.889   6.008  13.232 -1.2079  1.1340  2.3208
 7873TIP3    H245035   2.834   6.051  13.097  0.4285 -2.0548  0.5178
 7874TIP3   OH245036   5.603   6.313  14.619 -0.1495  0.4799  0.1354
 7874TIP3    H145037   5.664   6.274  14.681  0.2995  0.3137 -0.4028
 7874TIP3    H245038   5.517   6.298  14.658 -0.0744 -1.8608 -0.4743
 7875TIP3   OH245039   1.623   5.268  13.481 -0.1843  0.0821  0.2604
 7875TIP3    H145040   1.573   5.226  13.552  1.1240 -3.8899 -0.8766
 7875TIP3    H245041   1.713   5.268  13.513  0.1121  0.3130 -0.5673
 7876TIP3   OH245042   3.959   4.012  13.297 -0.2672 -0.2138  0.5594
 7876TIP3    H145043   3.946   3.918  13.315 -1.1594  0.0101  1.1558
 7876TIP3    H245044   3.927   4.056  13.376  0.5715  0.5792  0.4683
 7877TIP3   OH245045   1.315   0.612  16.541 -0.2276  0.0831 -0.0135
 7877TIP3    H145046   1.358   0.527  16.545 -0.4877 -0.3591 -3.3924
 7877TIP3    H245047   1.222   0.592  16.543 -0.2926  0.2309 -1.1252
 7878TIP3   OH245048   4.303   4.898   6.309 -0.1182 -0.1094  0.5794
 7878TIP3    H145049   4.322   4.824   6.250 -3.9212 -0.6389 -0.2620
 7878TIP3    H245050   4.269   4.857   6.388  0.1234  0.7270  1.1237
 7879TIP3   OH245051   2.315   0.257   5.593  0.0581  0.0326  0.2260
 7879TIP3    H145052   2.285   0.291   5.508  0.3642 -0.5398 -0.1196
 7879TIP3    H245053   2.257   0.298   5.657 -0.9760 -0.4836 -0.3621
 7880TIP3   OH245054   1.006   2.851  12.801 -0.2550  0.0615  0.4475
 7880TIP3    H145055   1.102   2.854  12.795 -0.2231 -0.4686  0.6321
 7880TIP3    H245056   0.988   2.849  12.895 -0.5060  1.6381  0.4456
 7881TIP3   OH245057   6.073   4.979  16.149  0.5700  0.0336  0.0375
 7881TIP3    H145058   6.119   4.951  16.070  2.6082  0.2938  1.0665
 7881TIP3    H245059   6.115   5.061  16.174  0.4143 -0.3583  1.7337
 7882TIP3   OH245060   2.992   2.144  13.855  0.2747  0.4406 -0.1490
 7882TIP3    H145061   3.046   2.221  13.842  0.3120  0.8392  2.0682
 7882TIP3    H245062   2.974   2.142  13.949 -0.0820 -2.0082 -0.1969
 7883TIP3   OH245063   2.932   2.228  15.783 -0.7589  0.0051  0.0861
 7883TIP3    H145064   2.874   2.153  15.793 -0.7768  0.0830  0.5512
 7883TIP3    H245065   2.889   2.300  15.829 -1.5223  0.7447 -1.6871
 7884TIP3   OH245066   3.891   2.807  14.077  0.1786  0.1265  0.4054
 7884TIP3    H145067   3.975   2.764  14.059  0.9642  1.3979  0.9061
 7884TIP3    H245068   3.904   2.850  14.161 -1.4290 -0.7107  1.1224
 7885TIP3   OH245069   5.927   6.710  11.519 -0.0887 -0.0435  0.4025
 7885TIP3    H145070   5.909   6.720  11.426 -0.8846  1.0378  0.6610
 7885TIP3    H245071   5.997   6.773  11.537  0.2570 -0.4461  0.4858
 7886TIP3   OH245072   4.722   5.681  13.523 -0.5557 -0.3037 -0.5609
 7886TIP3    H145073   4.712   5.602  13.469 -1.4991 -0.9472  0.5055
 7886TIP3    H245074   4.685   5.656  13.608  1.5655  0.4230  0.6388
 7887TIP3   OH245075   5.445   0.019  10.939  0.4769 -0.4584 -0.1613
 7887TIP3    H145076   5.434  -0.075  10.954 -0.8670 -0.4517 -0.8780
 7887TIP3    H245077   5.408   0.033  10.852 -0.1583  0.8689  0.2948
 7888TIP3   OH245078   0.265   2.311   2.289 -0.1070  0.0310  0.1050
 7888TIP3    H145079   0.171   2.326   2.296 -0.1546  1.1965 -2.1770
 7888TIP3    H245080   0.296   2.381   2.232  2.1210 -0.4890  0.5850
 7889TIP3   OH245081   2.648   3.792  16.238  0.1844 -0.1497  0.0614
 7889TIP3    H145082   2.560   3.756  16.245  0.5180 -1.4491 -1.5961
 7889TIP3    H245083   2.649   3.838  16.154  1.4991 -1.5093 -0.7183
 7890TIP3   OH245084   4.984   5.220  12.125 -0.1728 -0.1637  0.3431
 7890TIP3    H145085   4.930   5.170  12.186 -1.7347  0.5198 -0.4299
 7890TIP3    H245086   4.923   5.278  12.081  0.6156 -1.5733 -2.8946
 7891TIP3   OH245087   5.427   1.916  11.525 -0.0920  0.0966 -0.4451
 7891TIP3    H145088   5.389   1.957  11.603  0.9771 -0.5872  0.4644
 7891TIP3    H245089   5.352   1.885  11.475 -0.8055  0.7471  0.1945
 7892TIP3   OH245090   5.405   1.221   2.383  0.4736 -0.0507  0.2443
 7892TIP3    H145091   5.478   1.243   2.324  2.1375 -0.6989  1.9484
 7892TIP3    H245092   5.392   1.300   2.435  0.2740 -0.0924  0.2578
 7893TIP3   OH245093   5.525   3.114   1.969  0.0521  0.0182  0.0128
 7893TIP3    H145094   5.471   3.097   1.892 -0.9967  2.5662  0.0766
 7893TIP3    H245095   5.602   3.161   1.935  0.9552 -1.2327  0.2481
 7894TIP3   OH245096   4.322   3.828   2.782 -0.0787 -0.0998  0.1192
 7894TIP3    H145097   4.397   3.854   2.835 -0.2724 -0.9387  0.8511
 7894TIP3    H245098   4.346   3.742   2.747  0.4956  0.9230 -2.1069
 7895TIP3   OH245099   1.811   4.707   0.694 -0.2454 -0.0809 -0.0076
 7895TIP3    H145100   1.875   4.645   0.660 -1.8559 -1.2969 -0.9502
 7895TIP3    H245101   1.789   4.673   0.781 -0.4123 -0.2845 -0.1288
 7896TIP3   OH245102   1.773   4.437   1.114  0.9833 -0.1806  0.2179
 7896TIP3    H145103   1.717   4.378   1.163  0.4023 -0.9633 -1.3389
 7896TIP3    H245104   1.745   4.525   1.141 -1.9316 -0.4879 -1.4370
 7897TIP3   OH245105   4.658   6.338   5.445 -0.0838  0.4437 -0.2197
 7897TIP3    H145106   4.619   6.278   5.508  0.4626  1.1301  0.7995
 7897TIP3    H245107   4.583   6.377   5.399 -0.4615 -0.5233 -0.4564
 7898TIP3   OH245108   5.946   2.406   2.091  0.8223  0.3924  0.3303
 7898TIP3    H145109   5.893   2.446   2.022 -0.5017  0.2210  1.2107
 7898TIP3    H245110   5.975   2.480   2.146  1.1079  0.4375  0.1230
 7899TIP3   OH245111   1.164   3.500   5.752  0.0544 -0.4244  0.3028
 7899TIP3    H145112   1.195   3.585   5.719 -0.7184 -0.4885 -0.6605
 7899TIP3    H245113   1.076   3.518   5.786  0.3055 -0.6390  1.0754
 7900TIP3   OH245114   0.400   1.833  11.686  0.5127 -0.0442 -0.3255
 7900TIP3    H145115   0.457   1.855  11.760  0.8076  1.2518 -0.8958
 7900TIP3    H245116   0.343   1.910  11.677 -1.6093 -1.4461  0.4477
 7901TIP3   OH245117   6.116   4.985   3.893 -0.1122 -0.4205  0.6148
 7901TIP3    H145118   6.164   5.060   3.927  0.8252 -0.5401 -0.3805
 7901TIP3    H245119   6.025   4.999   3.920 -0.1352  1.5381 -0.3014
 7902TIP3   OH245120   1.149   4.734   5.323  0.1139  0.2314 -0.7391
 7902TIP3    H145121   1.147   4.828   5.307  0.3341  0.4744  0.5575
 7902TIP3    H245122   1.064   4.714   5.364  0.7723  0.2099  0.6667
 7903TIP3   OH245123   4.776   3.788  12.007  0.1642  0.2506  0.4380
 7903TIP3    H145124   4.753   3.706  11.962 -0.9617  0.6948  0.1835
 7903TIP3    H245125   4.693   3.822  12.040  0.8399  0.4244  2.0685
 7904TIP3   OH245126   4.268   2.252  16.977  0.3488  0.8070 -0.2304
 7904TIP3    H145127   4.347   2.295  17.011  0.9000  0.7931 -1.4648
 7904TIP3    H245128   4.299   2.200  16.903 -0.5476 -0.5884  0.3388
 7905TIP3   OH245129   6.163   5.939   6.190  0.1108 -0.6363  0.0788
 7905TIP3    H145130   6.188   5.988   6.112  0.8136 -0.9632  0.0890
 7905TIP3    H245131   6.244   5.933   6.241 -0.6312  0.7876  1.5051
 7906TIP3   OH245132   2.234   6.073   0.827  0.2118  0.1062  0.3156
 7906TIP3    H145133   2.243   6.142   0.762  0.8863 -0.3466 -0.0899
 7906TIP3    H245134   2.181   6.006   0.784 -0.3715  0.3252  0.6778
 7907TIP3   OH245135   6.602   6.131  14.173  0.3368 -0.0241  0.1084
 7907TIP3    H145136   6.651   6.137  14.255  1.5838  1.2628 -0.6675
 7907TIP3    H245137   6.666   6.097  14.110 -0.3151 -0.0799 -0.5392
 7908TIP3   OH245138   0.307   2.024   0.597  0.4035 -0.0941 -0.8747
 7908TIP3    H145139   0.277   2.019   0.688  2.1542  0.9265 -0.1938
 7908TIP3    H245140   0.227   2.036   0.546 -0.4471  1.5017  0.7469
 7909TIP3   OH245141   2.690   0.141   5.380 -0.6180 -0.3942  0.0645
 7909TIP3    H145142   2.785   0.140   5.394 -0.8511 -0.1893  1.9543
 7909TIP3    H245143   2.655   0.186   5.457 -2.4345 -2.8011  0.7701
 7910TIP3   OH245144   0.250   2.197  16.635  0.3846  0.3843 -0.3711
 7910TIP3    H145145   0.165   2.233  16.609 -0.0065 -0.1779  0.0921
 7910TIP3    H245146   0.233   2.151  16.717  1.2422  0.6654 -0.0247
 7911TIP3   OH245147   4.603   1.655   2.900 -0.1854  0.0251  0.5784
 7911TIP3    H145148   4.668   1.602   2.947  0.5564 -0.7508 -1.2159
 7911TIP3    H245149   4.572   1.597   2.830  0.6970  1.9245 -1.5055
 7912TIP3   OH245150   0.671   1.775   5.609 -0.2606  0.0864  0.0916
 7912TIP3    H145151   0.583   1.769   5.574  0.3356 -0.0742 -1.4808
 7912TIP3    H245152   0.687   1.690   5.650 -1.2976  0.5954  1.6709
 7913TIP3   OH245153   0.966   4.923  15.811  0.4771  0.7492 -0.4913
 7913TIP3    H145154   0.892   4.880  15.854  0.9094  0.6476  0.1623
 7913TIP3    H245155   0.971   5.009  15.851  2.4719 -0.2488  1.5767
 7914TIP3   OH245156   1.271   6.264  16.248 -0.0582 -0.6334 -0.8025
 7914TIP3    H145157   1.209   6.193  16.262  0.4286 -0.6062  2.1411
 7914TIP3    H245158   1.357   6.222  16.249  0.2331 -0.1036  0.9587
 7915TIP3   OH245159   5.014   4.217   1.996 -0.2548  0.0858  0.0712
 7915TIP3    H145160   4.967   4.299   1.980 -0.5753  0.1772  1.3664
 7915TIP3    H245161   4.959   4.149   1.957 -1.0023  0.2916  0.7378
 7916TIP3   OH245162   1.204   2.189  14.503  0.0173  0.0552  0.5392
 7916TIP3    H145163   1.272   2.199  14.569 -0.5513  2.4963  0.8507
 7916TIP3    H245164   1.249   2.205  14.420  0.1699 -0.2206  0.5648
 7917TIP3   OH245165   2.801   3.235  14.736  0.2025 -0.1958 -0.0842
 7917TIP3    H145166   2.776   3.219  14.645  0.1248 -1.7063  0.1712
 7917TIP3    H245167   2.749   3.173  14.787  1.2891 -0.3718  0.8590
 7918TIP3   OH245168   2.627   4.868   3.215  0.5257  0.0238 -0.1185
 7918TIP3    H145169   2.675   4.800   3.262 -1.3525 -1.5065 -0.2463
 7918TIP3    H245170   2.602   4.827   3.132 -1.7870  0.3159  0.3454
 7919TIP3   OH245171   4.416   2.531   1.078  0.0395  0.0104 -0.1864
 7919TIP3    H145172   4.368   2.554   1.157  1.3340  0.3695  0.5397
 7919TIP3    H245173   4.431   2.615   1.034 -0.6055 -0.1783 -0.7749
 7920TIP3   OH245174   4.590   1.893  15.327  0.0393 -0.1336  0.1607
 7920TIP3    H145175   4.521   1.827  15.328  0.4652 -0.5901  1.0548
 7920TIP3    H245176   4.585   1.934  15.414 -0.8123  1.6662 -0.6723
 7921TIP3   OH245177   2.789   5.053  10.697  0.6333 -0.0605  0.0562
 7921TIP3    H145178   2.848   4.979  10.685 -0.4174 -0.8852 -0.1724
 7921TIP3    H245179   2.825   5.122  10.641  2.7347  0.3047  1.7329
 7922TIP3   OH245180   6.483   5.860  16.351  1.1708  0.6180  0.2701
 7922TIP3    H145181   6.545   5.895  16.414 -0.2603 -0.9094  2.6909
 7922TIP3    H245182   6.405   5.915  16.360  1.3033  1.0444 -0.9871
 7923TIP3   OH245183   2.877   0.662   2.505 -0.6963 -0.2548 -0.0915
 7923TIP3    H145184   2.933   0.639   2.431 -1.3832 -1.0100 -0.3976
 7923TIP3    H245185   2.922   0.735   2.548 -0.6568  0.7238 -1.7035
 7924TIP3   OH245186   3.972   0.770   5.164  0.8710  0.0314 -0.3131
 7924TIP3    H145187   3.937   0.685   5.188  0.7425  0.7859  2.5968
 7924TIP3    H245188   3.894   0.824   5.147  0.6080  0.6518  2.2830
 7925TIP3   OH245189   0.688   6.313   1.761 -0.3284 -0.3369 -0.0995
 7925TIP3    H145190   0.726   6.365   1.832 -1.0592 -1.2647  1.0098
 7925TIP3    H245191   0.633   6.249   1.806 -0.8986 -0.8728 -1.5261
 7926TIP3   OH245192   4.366   5.983   2.842  0.7759 -0.2100  0.1170
 7926TIP3    H145193   4.375   6.028   2.758 -0.7588  1.7681  0.9454
 7926TIP3    H245194   4.452   5.944   2.857  1.2258 -0.2162 -2.1199
 7927TIP3   OH245195   1.638   0.856  13.245  0.2349  0.3317  0.0571
 7927TIP3    H145196   1.653   0.947  13.269 -0.5441  1.0462 -1.9154
 7927TIP3    H245197   1.724   0.815  13.246  0.4016  0.5739  2.6604
 7928TIP3   OH245198   5.411   1.204  14.965  0.4187  0.2379 -0.0825
 7928TIP3    H145199   5.391   1.289  15.005  1.1441  0.3628  0.0282
 7928TIP3    H245200   5.361   1.141  15.017  0.1495  0.5653  0.0579
 7929TIP3   OH245201   1.348   5.871  13.921  0.4572  0.3361 -0.5614
 7929TIP3    H145202   1.381   5.887  14.009 -1.5844 -0.0262  0.3400
 7929TIP3    H245203   1.372   5.780  13.903 -3.3101 -1.4179  1.8194
 7930TIP3   OH245204   5.709   1.434  17.344  0.7488 -0.1282  0.6200
 7930TIP3    H145205   5.725   1.519  17.303  1.0167 -0.6188 -0.3317
 7930TIP3    H245206   5.781   1.379  17.314 -0.0841 -1.0283  0.2154
 7931TIP3   OH245207   2.958   4.876  13.062  0.4384  0.3669 -0.7793
 7931TIP3    H145208   3.012   4.899  12.987 -0.7079  1.4386 -1.3081
 7931TIP3    H245209   2.909   4.799  13.033  0.9625 -0.0332 -0.6307
 7932TIP3   OH245210   5.824   2.659  14.626  0.7969 -0.8516 -0.0044
 7932TIP3    H145211   5.744   2.644  14.575  0.3549  1.0002  0.0794
 7932TIP3    H245212   5.834   2.579  14.678 -1.2737 -0.9547  0.3170
 7933TIP3   OH245213   2.034   1.841  15.449 -0.0168  0.1157 -0.5553
 7933TIP3    H145214   2.058   1.929  15.479  1.0293  0.0648 -1.1898
 7933TIP3    H245215   2.112   1.788  15.465  0.0051 -0.2771 -1.8133
 7934TIP3   OH245216   1.339   4.803   0.733 -0.1556 -0.2213  0.1196
 7934TIP3    H145217   1.365   4.722   0.688  0.2449 -0.8780  1.4846
 7934TIP3    H245218   1.244   4.803   0.728 -0.1574 -0.7176  0.0073
 7935TIP3   OH245219   4.335   6.524  12.994 -0.3779 -0.0203  0.0491
 7935TIP3    H145220   4.318   6.446  12.941 -0.3947 -1.5074  2.1243
 7935TIP3    H245221   4.427   6.517  13.018 -0.2537  0.8697 -0.1446
 7936TIP3   OH245222   3.762   4.086  14.815 -0.3004 -0.3377  0.2641
 7936TIP3    H145223   3.839   4.108  14.868  0.5110 -1.6075 -0.3397
 7936TIP3    H245224   3.698   4.053  14.878  0.1333 -0.5104  0.6210
 7937TIP3   OH245225   5.054   5.495   5.419 -0.2103  0.0769  0.6473
 7937TIP3    H145226   5.076   5.561   5.354  1.6829 -1.1842 -0.0644
 7937TIP3    H245227   5.109   5.516   5.494  1.5618 -1.4799 -0.1303
 7938TIP3   OH245228   5.346   6.714   0.237  0.8809 -0.3892  0.4119
 7938TIP3    H145229   5.344   6.742   0.146 -0.5393 -0.0935  0.5147
 7938TIP3    H245230   5.320   6.791   0.287 -1.2571 -1.3198  0.8309
 7939TIP3   OH245231   2.280   2.073  13.013 -0.2232  0.3208 -0.0239
 7939TIP3    H145232   2.225   1.997  12.996  0.5657  0.3921 -3.5150
 7939TIP3    H245233   2.243   2.142  12.959  1.9157  0.9812 -0.7368
 7940TIP3   OH245234   4.420   3.414   1.434  0.0508  0.0743 -0.6592
 7940TIP3    H145235   4.427   3.380   1.345 -1.1406 -1.4549 -0.2137
 7940TIP3    H245236   4.501   3.386   1.477 -0.7439 -2.0099 -0.4063
 7941TIP3   OH245237   5.032   1.157  11.031 -0.1791 -0.0040  0.2632
 7941TIP3    H145238   5.012   1.065  11.019  0.1945 -0.0475 -0.0565
 7941TIP3    H245239   5.127   1.160  11.042 -0.3302  0.1910  1.7322
 7942TIP3   OH245240   1.431   4.657  16.001  0.0906 -0.1855 -0.8855
 7942TIP3    H145241   1.390   4.744  16.010  0.6068 -0.1328  1.3802
 7942TIP3    H245242   1.525   4.675  16.005  0.1935 -0.9135  0.8062
 7943TIP3   OH245243   6.623   6.374  16.276  0.2583  0.7194 -0.7255
 7943TIP3    H145244   6.565   6.323  16.219 -1.6206  3.0497 -1.0955
 7943TIP3    H245245   6.642   6.316  16.349 -3.5317  0.0740 -0.0117
 7944TIP3   OH245246   1.108   3.842  13.905 -0.1503 -0.3598 -0.0949
 7944TIP3    H145247   1.105   3.757  13.948 -1.0435  1.5713  4.1302
 7944TIP3    H245248   1.018   3.874  13.909 -0.0421  0.4777 -2.5177
 7945TIP3   OH245249   5.378   6.253  15.535  0.2053  0.0011 -0.0260
 7945TIP3    H145250   5.421   6.264  15.450 -0.1692  0.2645 -0.1873
 7945TIP3    H245251   5.447   6.271  15.599 -0.2595  3.1937 -0.2694
 7946TIP3   OH245252   2.569   0.093  11.823 -0.0340  0.1476 -0.2176
 7946TIP3    H145253   2.625   0.116  11.749 -2.1454 -0.1463 -2.0354
 7946TIP3    H245254   2.542   0.003  11.806 -0.4288  0.0082  1.0241
 7947TIP3   OH245255   2.284   1.725   2.655  0.5531 -0.1445  0.0840
 7947TIP3    H145256   2.264   1.789   2.723 -0.1635  0.1267 -0.3748
 7947TIP3    H245257   2.224   1.746   2.583  1.4045 -0.3301 -0.6953
 7948TIP3   OH245258   4.734   0.221  15.473 -0.4846  0.0471 -0.1170
 7948TIP3    H145259   4.735   0.235  15.379 -0.0462  1.5714  0.0827
 7948TIP3    H245260   4.731   0.126  15.484 -0.9859 -0.1266 -1.6554
 7949TIP3   OH245261   2.271   1.222   4.346  0.2668 -0.1082  0.5202
 7949TIP3    H145262   2.347   1.249   4.396  0.9299  0.7193 -0.8751
 7949TIP3    H245263   2.277   1.126   4.342  0.5616 -0.1328  1.4184
 7950TIP3   OH245264   3.032   0.639   2.092 -0.4293 -0.6559  0.0596
 7950TIP3    H145265   3.004   0.727   2.068  0.1929  0.2388  2.3696
 7950TIP3    H245266   3.127   0.639   2.080 -0.3896 -0.9073  0.3475
 7951TIP3   OH245267   1.988   5.663  13.168 -0.0122 -0.2206  0.4742
 7951TIP3    H145268   2.011   5.621  13.085  1.6833 -0.8462  1.2338
 7951TIP3    H245269   1.975   5.591  13.229  2.0830  0.2790  1.5785
 7952TIP3   OH245270   5.968   3.077   5.758 -0.4225 -0.4522  0.1063
 7952TIP3    H145271   5.985   3.172   5.759 -1.4075 -0.2502 -0.5104
 7952TIP3    H245272   5.945   3.056   5.849 -0.6097 -0.0112  0.1658
 7953TIP3   OH245273   4.344   0.421   4.269  1.0546 -0.2592  0.0231
 7953TIP3    H145274   4.283   0.483   4.231  2.3777 -0.0751 -1.9614
 7953TIP3    H245275   4.342   0.345   4.210  0.8083 -1.3739  1.3941
 7954TIP3   OH245276   3.871   2.559  16.703 -0.6278 -0.1398 -0.3203
 7954TIP3    H145277   3.897   2.488  16.762 -1.4614 -0.3692 -0.2184
 7954TIP3    H245278   3.789   2.592  16.740 -1.1402 -0.2561 -1.3216
 7955TIP3   OH245279   0.993   6.133  16.481  0.1786 -0.4163 -0.0831
 7955TIP3    H145280   1.000   6.128  16.386 -0.7601  0.3676 -0.1985
 7955TIP3    H245281   0.916   6.187  16.498  0.3133 -0.5621  1.1260
 7956TIP3   OH245282   1.603   4.041  15.547 -0.2292  0.2231 -0.6413
 7956TIP3    H145283   1.573   3.955  15.516 -2.1875 -0.4639  2.6064
 7956TIP3    H245284   1.671   4.021  15.612  0.3798  1.2365 -0.9495
 7957TIP3   OH245285   0.008   2.433  15.699 -0.2404  0.3237  0.1562
 7957TIP3    H145286   0.015   2.388  15.783  1.8672 -0.2429 -0.2600
 7957TIP3    H245287   0.066   2.384  15.641 -1.8310  0.5562 -1.7220
 7958TIP3   OH245288   6.411   1.587   3.279  0.2250  0.7950 -0.3584
 7958TIP3    H145289   6.453   1.664   3.318 -1.0125  1.8744 -1.0551
 7958TIP3    H245290   6.374   1.540   3.354  0.9695  0.8889  0.0740
 7959TIP3   OH245291   4.933   2.091  16.109 -0.4442  0.0465  0.0313
 7959TIP3    H145292   4.904   2.009  16.069 -1.7370  1.0768 -1.2710
 7959TIP3    H245293   5.018   2.108  16.068  0.9895 -1.7478  2.0393
 7960TIP3   OH245294   4.401   2.708  15.407 -0.0177 -0.2121 -0.4943
 7960TIP3    H145295   4.407   2.658  15.488 -0.5413 -0.2179 -0.4558
 7960TIP3    H245296   4.474   2.675  15.354  1.6673  1.3089  0.7675
 7961TIP3   OH245297   2.252   1.607   2.168 -0.6725  0.1220 -0.1407
 7961TIP3    H145298   2.215   1.519   2.169 -0.6232  0.1000 -0.1986
 7961TIP3    H245299   2.339   1.596   2.129 -1.2671  0.4154 -1.6548
 7962TIP3   OH245300   6.057   5.068  13.293  0.1244  0.2826 -0.2447
 7962TIP3    H145301   5.981   5.049  13.348 -0.6947  2.8739 -0.3732
 7962TIP3    H245302   6.022   5.068  13.204  0.5822  0.1095 -0.4253
 7963TIP3   OH245303   2.732   1.516  11.417 -0.1588 -1.0346  0.2638
 7963TIP3    H145304   2.655   1.478  11.374 -0.2908 -0.0575 -0.3862
 7963TIP3    H245305   2.793   1.536  11.346 -0.6078  1.1182  0.3956
 7964TIP3   OH245306   5.178   1.924   1.642 -0.0471 -0.0411 -0.3771
 7964TIP3    H145307   5.256   1.933   1.587  0.5345  2.1951  0.6706
 7964TIP3    H245308   5.192   1.842   1.690  1.5782  0.1919 -0.3770
 7965TIP3   OH245309   4.772   0.848  11.130 -0.2151  0.0107 -0.3903
 7965TIP3    H145310   4.713   0.829  11.057  0.1775  2.0061 -1.2873
 7965TIP3    H245311   4.857   0.864  11.088  0.0054  1.2662  0.4784
 7966TIP3   OH245312   1.595   4.745   5.692 -0.5846  0.3389 -0.9175
 7966TIP3    H145313   1.643   4.706   5.619 -2.3178 -0.1910 -1.8345
 7966TIP3    H245314   1.531   4.678   5.716 -0.4733  0.7674  0.6874
 7967TIP3   OH245315   3.513   5.930   0.333 -0.7868 -0.0755 -0.2378
 7967TIP3    H145316   3.555   5.952   0.417  0.9085 -3.3431 -0.0591
 7967TIP3    H245317   3.583   5.890   0.282 -1.9724  1.1717 -3.0369
 7968TIP3   OH245318   1.842   3.656  12.980  0.1736 -0.0092 -0.3776
 7968TIP3    H145319   1.786   3.727  13.012 -2.2311 -1.2897 -1.4825
 7968TIP3    H245320   1.907   3.644  13.049  0.7806  3.2999 -0.1970
 7969TIP3   OH245321   4.995   3.555   4.275 -0.0257 -0.1391 -0.2968
 7969TIP3    H145322   5.026   3.466   4.260  1.1255  0.3473 -0.9610
 7969TIP3    H245323   4.918   3.545   4.330  0.5375 -1.5011  0.2919
 7970TIP3   OH245324   4.063   5.421   1.453 -0.0608 -0.4072 -0.0014
 7970TIP3    H145325   3.972   5.398   1.472 -0.1759  0.2723  0.2771
 7970TIP3    H245326   4.059   5.510   1.419  0.6986  0.4343  1.9744
 7971TIP3   OH245327   1.017   6.382   0.194 -0.4848 -0.2562  0.2640
 7971TIP3    H145328   0.959   6.309   0.173 -0.0447 -0.8958  1.2519
 7971TIP3    H245329   1.104   6.344   0.199 -0.2706  0.3023  0.9422
 7972TIP3   OH245330   2.309   0.155  11.877 -0.1971  0.3902 -0.0201
 7972TIP3    H145331   2.287   0.143  11.784 -1.1260  0.9856  0.1097
 7972TIP3    H245332   2.404   0.148  11.880 -0.2654 -1.5963 -0.7209
 7973TIP3   OH245333   3.312   6.105   0.250  0.0645  0.0223  0.0646
 7973TIP3    H145334   3.401   6.075   0.229  0.2609  0.1952  0.6247
 7973TIP3    H245335   3.302   6.085   0.343 -1.1043 -1.5468 -0.3498
 7974TIP3   OH245336   1.496   3.453   0.144 -0.2557 -0.4623 -0.6565
 7974TIP3    H145337   1.425   3.498   0.099  0.9440  0.3142 -1.8794
 7974TIP3    H245338   1.558   3.431   0.074  1.0901 -0.3698  0.4685
 7975TIP3   OH245339   0.643   1.166   0.208  0.0845 -0.1675  0.3416
 7975TIP3    H145340   0.560   1.130   0.175  0.9697 -0.4570 -1.7170
 7975TIP3    H245341   0.681   1.095   0.260 -1.9885  0.7715  3.4079
 7976TIP3   OH245342   1.991   5.859   0.303 -0.0361 -0.1637 -0.2664
 7976TIP3    H145343   1.907   5.873   0.259 -0.2730 -0.1268  0.1988
 7976TIP3    H245344   1.969   5.823   0.389  0.4670 -1.1908 -0.5447
 7977TIP3   OH245345   0.347   3.108   6.365 -0.0480 -0.0122 -0.3772
 7977TIP3    H145346   0.347   3.133   6.458 -0.0646 -1.8387  0.1519
 7977TIP3    H245347   0.256   3.117   6.338 -0.1574 -0.0821 -0.0399
 7978TIP3   OH245348   2.852   0.171   5.689  0.3028  0.7738 -0.1232
 7978TIP3    H145349   2.757   0.174   5.673  0.4089  1.1021 -0.6946
 7978TIP3    H245350   2.873   0.256   5.727  0.0161 -0.0630  2.1095
 7979TIP3   OH245351   4.386   3.415   0.770 -0.6694 -0.0892  0.0406
 7979TIP3    H145352   4.397   3.343   0.707  0.2265  0.8366 -0.8843
 7979TIP3    H245353   4.302   3.454   0.746 -1.9791 -1.7792  1.5812
 7980TIP3   OH245354   0.961   6.437  13.169 -0.3290 -0.2014 -0.2494
 7980TIP3    H145355   0.912   6.438  13.251  0.3217 -0.2538  0.1475
 7980TIP3    H245356   0.987   6.346  13.157 -0.3573 -0.1809 -0.4790
 7981TIP3   OH245357   5.834   3.689   2.997 -0.1926 -0.6268 -0.6949
 7981TIP3    H145358   5.871   3.754   2.936 -0.6389  1.4908  1.1805
 7981TIP3    H245359   5.742   3.713   3.006  0.0426 -0.3382  1.4407
 7982TIP3   OH245360   2.361   0.556  11.106  0.0576 -0.3545 -0.3227
 7982TIP3    H145361   2.299   0.619  11.070 -0.4537 -0.3490  0.5659
 7982TIP3    H245362   2.326   0.471  11.082 -0.9661 -0.3972  1.2145
 7983TIP3   OH245363   0.980   3.609  13.647  0.0554 -0.0243  0.0503
 7983TIP3    H145364   0.896   3.631  13.689 -0.2456 -1.3282  0.1834
 7983TIP3    H245365   0.984   3.666  13.571 -1.0969 -0.1229 -0.1116
 7984TIP3   OH245366   0.167   0.886   0.026 -0.1782  0.3973  0.3808
 7984TIP3    H145367   0.174   0.961  -0.032 -2.0077  0.2513 -0.1140
 7984TIP3    H245368   0.251   0.841   0.018 -0.2448  0.5625 -1.9399
 7985TIP3   OH245369   5.142   3.795  10.965  0.1000 -0.0021 -0.4756
 7985TIP3    H145370   5.201   3.869  10.951  1.4696 -0.4854  2.0812
 7985TIP3    H245371   5.189   3.720  10.928  0.9966 -0.3256  1.2299
 7986TIP3   OH245372   2.225   1.769   0.523 -0.0993  0.6418  0.0824
 7986TIP3    H145373   2.202   1.779   0.431  0.4378  0.6362 -0.0563
 7986TIP3    H245374   2.145   1.736   0.564 -0.5309  1.2312 -0.2647
 7987TIP3   OH245375   0.522   0.684  12.730 -0.2580 -0.0866  0.6068
 7987TIP3    H145376   0.580   0.687  12.806  1.0601  0.3188 -0.3826
 7987TIP3    H245377   0.524   0.592  12.702 -0.9136 -0.2820  1.1568
 7988TIP3   OH245378   4.212   3.692   5.040 -0.0589 -0.4566 -0.1023
 7988TIP3    H145379   4.180   3.646   4.962  2.0775  0.4148 -1.5956
 7988TIP3    H245380   4.202   3.628   5.111 -2.7716 -1.0024 -0.8801
 7989TIP3   OH245381   0.173   2.371  11.572  0.0736  0.3066 -0.6032
 7989TIP3    H145382   0.110   2.326  11.628 -1.1590  1.1819 -1.2490
 7989TIP3    H245383   0.212   2.302  11.519 -0.7523 -0.1732 -0.5958
 7990TIP3   OH245384   4.061   3.430  12.908  0.0036 -0.4526  0.2913
 7990TIP3    H145385   4.008   3.385  12.974  1.5903 -3.1019 -0.0773
 7990TIP3    H245386   4.137   3.463  12.957  1.0979 -2.2736 -0.0603
 7991TIP3   OH245387   2.484   4.850  16.021 -0.0264  0.2054 -0.1819
 7991TIP3    H145388   2.568   4.831  16.062 -0.1847  1.5588  0.8353
 7991TIP3    H245389   2.499   4.931  15.972  0.1118 -1.2586 -2.7423
 7992TIP3   OH245390   6.183   6.048  14.074 -0.5175  0.1374  0.6503
 7992TIP3    H145391   6.146   6.115  14.131 -0.6107  0.5964  0.0623
 7992TIP3    H245392   6.263   6.020  14.118  1.4713  3.1100 -0.6743
 7993TIP3   OH245393   1.089   5.015  16.526 -0.8933 -0.2670 -0.0396
 7993TIP3    H145394   1.069   4.932  16.569  0.6997 -0.5899  0.1175
 7993TIP3    H245395   1.061   5.003  16.435 -1.5100 -0.6410  0.1946
 7994TIP3   OH245396   5.972   2.088  11.657 -0.1016 -0.3225  0.6990
 7994TIP3    H145397   5.924   2.027  11.714 -1.0361 -0.8351 -0.5644
 7994TIP3    H245398   5.919   2.091  11.577  0.9580  0.6791  0.0116
 7995TIP3   OH245399   5.934   0.120   5.573  0.5533  0.3196  0.3539
 7995TIP3    H145400   5.925   0.069   5.493 -0.6627  0.0107  0.6624
 7995TIP3    H245401   5.849   0.162   5.585  0.7384  0.4346  1.4236
 7996TIP3   OH245402   1.613   5.670   1.135 -0.3024 -0.6817 -0.1310
 7996TIP3    H145403   1.535   5.616   1.142 -2.0831  1.7891  0.5457
 7996TIP3    H245404   1.629   5.700   1.225 -1.4433  2.4910 -0.8503
 7997TIP3   OH245405   5.827   3.190   0.237 -0.4076 -0.0881  0.0270
 7997TIP3    H145406   5.916   3.222   0.256 -0.5505  0.4156 -0.1206
 7997TIP3    H245407   5.813   3.120   0.300  0.1369 -0.2450 -0.0146
 7998TIP3   OH245408   1.565   5.348   0.868  0.3732  0.4289 -0.3646
 7998TIP3    H145409   1.528   5.351   0.957 -0.2441 -0.4301 -0.5748
 7998TIP3    H245410   1.649   5.392   0.876  1.7210 -2.2246  1.3515
 7999TIP3   OH245411   3.972   5.922   0.761  0.0979  0.0245 -0.5435
 7999TIP3    H145412   3.923   5.860   0.814 -0.6193 -0.6749 -1.9902
 7999TIP3    H245413   3.935   6.007   0.784 -0.3262 -0.2778 -0.0821
 8000TIP3   OH245414   2.779   0.469  10.736 -0.0168 -0.6280 -0.2716
 8000TIP3    H145415   2.745   0.503  10.819  1.8381  0.4923  0.0874
 8000TIP3    H245416   2.775   0.374  10.745 -0.2630 -0.5164  0.9272
 8001TIP3   OH245417   4.523   1.171   2.987 -0.1731  0.5493 -0.7040
 8001TIP3    H145418   4.487   1.154   2.900  2.1844  1.2296 -1.9018
 8001TIP3    H245419   4.460   1.230   3.029 -1.8053 -0.5105 -1.5436
 8002TIP3   OH245420   2.269   5.061   3.323 -0.0465  0.4526  0.1665
 8002TIP3    H145421   2.337   5.020   3.376  1.7747  1.1174 -1.5434
 8002TIP3    H245422   2.264   5.151   3.356 -0.4164  0.2803  0.5830
 8003TIP3   OH245423   5.018   0.971  15.720 -0.0100 -0.3900  0.0863
 8003TIP3    H145424   5.112   0.984  15.728 -0.2076  0.4008  1.1477
 8003TIP3    H245425   4.981   1.059  15.715 -0.6604 -0.6994 -0.8666
 8004TIP3   OH245426   4.823   6.449  16.248  0.1260 -0.2030  0.0157
 8004TIP3    H145427   4.899   6.473  16.301  0.6291  0.1571 -0.8465
 8004TIP3    H245428   4.748   6.459  16.307  0.5932  0.9702  0.4373
 8005TIP3   OH245429   5.776   2.503  10.895  0.2230  0.1896 -0.0857
 8005TIP3    H145430   5.726   2.585  10.885  1.3792  0.8109 -1.0160
 8005TIP3    H245431   5.855   2.517  10.843  0.5910 -1.4167  0.0006
 8006TIP3   OH245432   3.422   0.021  13.579 -0.0673  0.0860  0.0888
 8006TIP3    H145433   3.506  -0.001  13.540 -0.1239 -0.0271  0.0298
 8006TIP3    H245434   3.398   0.105  13.539  0.3618  0.4921  0.6482
 8007TIP3   OH245435   5.237   2.186   3.460 -0.1200  0.5606 -0.0375
 8007TIP3    H145436   5.305   2.195   3.526 -0.8869 -0.9878  1.0571
 8007TIP3    H245437   5.208   2.095   3.469 -1.0503  0.6471 -1.7407
 8008TIP3   OH245438   3.765   1.672  11.590 -0.0384  0.4016 -0.0961
 8008TIP3    H145439   3.705   1.690  11.663 -1.0690  0.4902 -0.9350
 8008TIP3    H245440   3.749   1.743  11.528  1.0649  0.5112 -0.2657
 8009TIP3   OH245441   3.091   4.770  10.989  0.8978  0.2940 -0.0538
 8009TIP3    H145442   3.121   4.695  11.040  1.0842  0.2281 -0.2563
 8009TIP3    H245443   3.024   4.735  10.931 -0.8209  0.7702  1.5782
 8010TIP3   OH245444   3.716   2.263   0.380  0.3616 -0.2930  0.1731
 8010TIP3    H145445   3.643   2.320   0.406  0.7052 -0.0887  0.7059
 8010TIP3    H245446   3.715   2.192   0.443 -0.4656 -1.2424 -0.8768
 8011TIP3   OH245447   5.019   0.182   1.101 -0.3310  0.2244  0.8408
 8011TIP3    H145448   5.077   0.187   1.177  1.8142 -0.3453 -0.6819
 8011TIP3    H245449   4.931   0.184   1.139  0.6029  1.9877  3.1918
 8012TIP3   OH245450   5.607   6.270   1.162  0.3009 -0.3438 -0.2572
 8012TIP3    H145451   5.557   6.310   1.233  0.6399 -0.7523  0.2194
 8012TIP3    H245452   5.554   6.285   1.084  0.3659  0.9114 -0.0728
 8013TIP3   OH245453   2.232   6.324  12.631 -0.0622  0.7647 -0.4075
 8013TIP3    H145454   2.278   6.333  12.548 -0.3319 -0.5641 -0.7281
 8013TIP3    H245455   2.153   6.377  12.621  0.4477  1.4974 -0.5794
 8014TIP3   OH245456   4.700   2.898  12.051  0.3198  0.2215 -0.6971
 8014TIP3    H145457   4.747   2.832  12.101  1.9488  1.6524 -0.2549
 8014TIP3    H245458   4.617   2.909  12.097  0.0667 -1.3836 -0.7170
 8015TIP3   OH245459   4.228   6.407   3.503  0.4805 -0.5921 -0.1657
 8015TIP3    H145460   4.292   6.341   3.529  0.4304  0.0183  1.6547
 8015TIP3    H245461   4.256   6.435   3.416  3.4843  0.5920  1.0761
 8016TIP3   OH245462   3.995   4.428  15.209  0.1360  0.4647  0.0552
 8016TIP3    H145463   3.987   4.496  15.143  0.7931 -0.9655 -1.5651
 8016TIP3    H245464   3.931   4.451  15.276  0.1243  2.4712 -0.5999
 8017TIP3   OH245465   1.346   5.879  16.805  0.2770 -0.1879  0.7788
 8017TIP3    H145466   1.363   5.785  16.800  0.6756 -0.0555 -0.9899
 8017TIP3    H245467   1.433   5.919  16.812  0.3011  0.1479 -1.0836
 8018TIP3   OH245468   5.648   6.227  13.938  0.1726  0.0340  0.1322
 8018TIP3    H145469   5.740   6.215  13.959 -0.4409 -1.5773  2.1937
 8018TIP3    H245470   5.612   6.139  13.933 -1.3972  0.6370  0.0047
 8019TIP3   OH245471   4.958   2.126  13.483  0.4249 -0.1869  0.1671
 8019TIP3    H145472   5.038   2.137  13.534  1.0113  0.8501 -0.9248
 8019TIP3    H245473   4.954   2.204  13.427  0.0940 -1.5159 -1.7374
 8020TIP3   OH245474   0.792   1.093   3.554  0.0609 -0.0172  0.8066
 8020TIP3    H145475   0.839   1.036   3.493  0.4945  0.9532  0.2017
 8020TIP3    H245476   0.853   1.106   3.626  0.4852  0.6823  0.3449
 8021TIP3   OH245477   5.666   4.714   5.453  0.5761  0.3293  0.0257
 8021TIP3    H145478   5.657   4.809   5.466  0.0600  0.2215  0.5280
 8021TIP3    H245479   5.576   4.681   5.459  0.8246 -0.2723  0.5596
 8022TIP3   OH245480   1.066   5.260  16.368 -0.1931  0.5045  0.5930
 8022TIP3    H145481   1.129   5.258  16.296 -0.7006 -0.0574  0.1517
 8022TIP3    H245482   1.099   5.198  16.432 -0.0161  0.6137  0.6079
 8023TIP3   OH245483   0.014   0.229  11.915 -0.2221  0.0293  0.0428
 8023TIP3    H145484   0.096   0.276  11.904  0.3305 -0.5109  1.6371
 8023TIP3    H245485   0.039   0.136  11.920 -0.8269 -0.1003  1.1593
 8024TIP3   OH245486   0.823   4.018   2.462  0.3581 -0.5757  0.0564
 8024TIP3    H145487   0.851   4.098   2.506  1.7502 -0.2775 -1.2947
 8024TIP3    H245488   0.761   4.046   2.396  1.7570 -0.4139 -1.2360
 8025TIP3   OH245489   3.323   4.737  14.952  0.1859 -0.0309 -0.0383
 8025TIP3    H145490   3.307   4.680  14.877 -1.7262  1.4873 -0.8690
 8025TIP3    H245491   3.368   4.682  15.015 -0.0052 -1.9355 -1.4869
 8026TIP3   OH245492   1.669   0.668   0.779 -0.4992 -0.6688 -0.3216
 8026TIP3    H145493   1.665   0.743   0.718  0.6622 -0.0880  0.2833
 8026TIP3    H245494   1.592   0.616   0.757 -0.8321  0.2208 -1.3941
 8027TIP3   OH245495   6.749   0.883  14.402 -0.5987  0.0995  0.1208
 8027TIP3    H145496   6.658   0.892  14.372 -0.2921  0.4726 -0.7407
 8027TIP3    H245497   6.798   0.943  14.346  0.0528  0.5944  1.2064
 8028TIP3   OH245498   2.767   4.747  14.487  0.0171 -0.3069 -0.0110
 8028TIP3    H145499   2.836   4.770  14.424 -0.8374 -1.9233 -1.6371
 8028TIP3    H245500   2.768   4.651  14.489  0.6166 -0.3285  3.2148
 8029TIP3   OH245501   6.635   0.834   1.104 -0.6297 -0.2587 -0.0150
 8029TIP3    H145502   6.690   0.860   1.179 -0.8258  1.7349 -0.4994
 8029TIP3    H245503   6.609   0.744   1.123  1.6680 -0.8005  0.9051
 8030TIP3   OH245504   1.869   6.527   4.876  0.2191 -0.2665  0.1861
 8030TIP3    H145505   1.939   6.551   4.815 -0.2561 -0.0399 -0.2810
 8030TIP3    H245506   1.869   6.596   4.942  0.6633 -0.4521  0.3860
 8031TIP3   OH245507   0.779   4.442  11.448  0.4607 -0.4065  0.7658
 8031TIP3    H145508   0.812   4.374  11.506 -1.1025 -2.3133 -0.4206
 8031TIP3    H245509   0.686   4.420  11.436  0.5253  0.3606 -1.7400
 8032TIP3   OH245510   5.681   4.105  15.162  0.6996  0.0601  0.1877
 8032TIP3    H145511   5.750   4.051  15.124 -1.1777 -1.3214 -1.4294
 8032TIP3    H245512   5.625   4.044  15.209 -0.2577  0.9089  0.1814
 8033TIP3   OH245513   2.627   4.524   4.051  0.2780 -0.0114 -0.3922
 8033TIP3    H145514   2.603   4.431   4.047  1.2443 -0.3513  1.0109
 8033TIP3    H245515   2.556   4.569   4.006 -0.2798 -1.4152 -0.9856
 8034TIP3   OH245516   4.282   1.868   5.499  0.0241 -0.7673 -0.1257
 8034TIP3    H145517   4.257   1.885   5.590  0.3399 -1.3369  0.0743
 8034TIP3    H245518   4.199   1.851   5.454 -0.1473 -0.3195  0.0148
 8035TIP3   OH245519   4.418   5.085  14.019 -0.2580 -0.8307 -0.2564
 8035TIP3    H145520   4.456   5.173  14.019 -1.3174 -0.3242  1.4104
 8035TIP3    H245521   4.369   5.080  13.938  1.5604 -0.7216 -1.4273
 8036TIP3   OH245522   1.766   6.062   4.818  0.8167  0.0356  0.3591
 8036TIP3    H145523   1.792   6.034   4.730  0.7158 -1.8941  0.9005
 8036TIP3    H245524   1.844   6.105   4.853  0.7279  1.2021 -0.7912
 8037TIP3   OH245525   0.338   4.745   3.611  0.4551  0.4374  0.3559
 8037TIP3    H145526   0.424   4.704   3.624 -0.1137 -1.4730 -1.4119
 8037TIP3    H245527   0.276   4.686   3.655 -0.1468  0.7070 -0.1152
 8038TIP3   OH245528   4.034   3.141  12.791 -0.7133  0.7022  0.4399
 8038TIP3    H145529   4.098   3.079  12.826 -0.7664  0.4845  0.1520
 8038TIP3    H245530   4.042   3.133  12.696  0.9648  2.8328  0.3258
 8039TIP3   OH245531   4.981   6.041  10.832  0.1599 -0.2470  0.2021
 8039TIP3    H145532   4.920   5.967  10.833 -0.7719  0.4661 -0.8582
 8039TIP3    H245533   5.031   6.029  10.751 -0.2900  0.4987 -0.1940
 8040TIP3   OH245534   2.265   5.683  15.278 -0.2736 -0.0622 -0.4094
 8040TIP3    H145535   2.218   5.747  15.225 -2.4279 -1.0210  0.2291
 8040TIP3    H245536   2.330   5.735  15.326 -1.2751  1.4856 -0.6582
 8041TIP3   OH245537   2.996   6.125   1.629  0.1566  0.2333  0.4788
 8041TIP3    H145538   3.022   6.147   1.718  0.2608  0.1054  0.4798
 8041TIP3    H245539   2.930   6.191   1.606 -0.3904 -0.1587  0.9029
 8042TIP3   OH245540   2.190   1.550   5.095  0.4657  0.0557 -0.3732
 8042TIP3    H145541   2.269   1.593   5.126  2.1549 -0.5611 -3.4810
 8042TIP3    H245542   2.122   1.618   5.098  1.4909  1.0574  0.7987
 8043TIP3   OH245543   4.689   1.790  12.093  0.0775 -0.4317 -0.1035
 8043TIP3    H145544   4.752   1.842  12.043  0.0379  0.9024  1.1693
 8043TIP3    H245545   4.720   1.700  12.084  0.6755 -0.1040 -1.6093
 8044TIP3   OH245546   5.087   0.401  16.670 -0.3347  0.1385  0.0536
 8044TIP3    H145547   5.072   0.454  16.592 -0.0565 -1.0376 -0.8282
 8044TIP3    H245548   5.004   0.355  16.685 -0.3851  0.3532  0.4432
 8045TIP3   OH245549   6.069   5.693   1.100  0.1179 -0.3263 -0.2783
 8045TIP3    H145550   6.023   5.646   1.170  2.5392 -2.7227 -0.1507
 8045TIP3    H245551   6.155   5.713   1.137  0.8491 -0.1356 -1.9777
 8046TIP3   OH245552   4.042   6.300   0.889 -0.0746  0.4405 -0.2829
 8046TIP3    H145553   4.009   6.266   0.806  1.3022 -2.2670  0.1638
 8046TIP3    H245554   3.967   6.294   0.949 -0.1122 -1.1249 -0.4462
 8047TIP3   OH245555   2.548   2.735   3.723 -0.5771  0.5268 -0.5611
 8047TIP3    H145556   2.551   2.824   3.758  0.9965  0.4268 -0.3647
 8047TIP3    H245557   2.634   2.721   3.684 -1.6379 -0.0156 -2.9199
 8048TIP3   OH245558   3.551   4.978   5.603  0.6897 -0.1258  0.2984
 8048TIP3    H145559   3.600   4.909   5.647  1.8375  0.9591  0.7840
 8048TIP3    H245560   3.571   4.967   5.510  0.5165 -0.6975  0.3270
 8049TIP3   OH245561   3.314   4.287   5.606 -0.5914 -0.1220 -0.3767
 8049TIP3    H145562   3.240   4.247   5.652 -0.5540  0.4384  0.1765
 8049TIP3    H245563   3.302   4.260   5.514 -2.1187  0.8947 -0.5006
 8050TIP3   OH245564   4.357   4.268  12.117  0.2728  0.3674 -0.4620
 8050TIP3    H145565   4.303   4.298  12.190  0.3351  1.1397 -0.7140
 8050TIP3    H245566   4.445   4.261  12.154  0.2743  0.5935 -0.4194
 8051TIP3   OH245567   2.410   6.433   2.349 -0.0893  0.2700 -0.6254
 8051TIP3    H145568   2.383   6.519   2.317  1.6694  1.8365  1.7209
 8051TIP3    H245569   2.401   6.439   2.444  1.2602 -1.7026 -0.2991
 8052TIP3   OH245570   4.851   6.534   4.343 -0.4841 -0.0350 -0.2732
 8052TIP3    H145571   4.938   6.568   4.319 -0.1773  1.3767  2.4242
 8052TIP3    H245572   4.868   6.443   4.369  0.6481  0.7853  2.1269
 8053TIP3   OH245573   0.764   1.911   1.302  0.2054 -0.1124  0.2031
 8053TIP3    H145574   0.748   1.866   1.385  1.2842  0.5599  0.7963
 8053TIP3    H245575   0.767   1.840   1.237 -2.4880 -0.5216  0.3786
 8054TIP3   OH245576   1.014   5.621   2.717  0.3867 -0.2119  0.0398
 8054TIP3    H145577   1.040   5.598   2.806 -0.9022 -1.6495  0.0938
 8054TIP3    H245578   0.952   5.693   2.728  0.7216  0.0476  0.2485
 8055TIP3   OH245579   1.187   0.504  16.225 -0.9522  0.0656 -0.0596
 8055TIP3    H145580   1.152   0.574  16.280 -0.6542  1.3526 -1.4100
 8055TIP3    H245581   1.139   0.426  16.250  1.1093 -0.1429  3.9951
 8056TIP3   OH245582   4.517   0.404  15.565 -0.5693  0.6873 -0.0602
 8056TIP3    H145583   4.467   0.386  15.646 -0.9725  0.7188 -0.2975
 8056TIP3    H245584   4.539   0.317  15.531 -2.2131  0.6056 -1.0199
 8057TIP3   OH245585   0.617   5.081  13.330 -0.0734  0.5189  0.4982
 8057TIP3    H145586   0.644   4.995  13.297 -0.8567  1.5080 -3.1088
 8057TIP3    H245587   0.667   5.091  13.412  1.9983 -2.2749 -0.2473
 8058TIP3   OH245588   3.210   2.808   4.821 -0.4555 -0.1310 -0.3533
 8058TIP3    H145589   3.159   2.763   4.889  1.9668  1.1594  2.5872
 8058TIP3    H245590   3.289   2.756   4.812  0.3441  1.0389 -0.3158
 8059TIP3   OH245591   1.852   4.360   2.515  0.4592  0.5031 -0.7570
 8059TIP3    H145592   1.890   4.323   2.435 -2.3269  0.5809 -2.2513
 8059TIP3    H245593   1.807   4.286   2.556 -0.7806  1.0908 -1.0052
 8060TIP3   OH245594   3.009   1.649  17.243 -0.2819  0.8421  0.0720
 8060TIP3    H145595   3.022   1.738  17.211 -1.0784  0.8216 -0.3204
 8060TIP3    H245596   2.941   1.613  17.187  0.0508 -0.0284  0.2084
 8061TIP3   OH245597   0.418   2.727   3.291  0.0687 -0.1373  0.0965
 8061TIP3    H145598   0.480   2.667   3.332 -0.8877  0.0833  1.9512
 8061TIP3    H245599   0.445   2.730   3.199  1.4232 -1.7566  0.3932
 8062TIP3   OH245600   1.962   4.919   5.182  0.8916 -0.0282  0.7413
 8062TIP3    H145601   1.928   4.980   5.248  1.7400  2.0809 -0.7130
 8062TIP3    H245602   1.912   4.838   5.198 -1.2942  1.4364  1.8243
 8063TIP3   OH245603   2.848   4.955   2.601  0.0283  0.0553 -0.0967
 8063TIP3    H145604   2.870   4.927   2.690  1.2847  0.2831 -0.3096
 8063TIP3    H245605   2.852   4.875   2.549 -1.5304 -0.2219  0.1789
 8064TIP3   OH245606   3.235   5.927  15.647  0.2142  0.2823 -0.1353
 8064TIP3    H145607   3.274   5.988  15.710 -1.3711  1.2778 -0.0533
 8064TIP3    H245608   3.175   5.981  15.595  0.3158 -0.8236 -1.4671
 8065TIP3   OH245609   5.659   3.534  14.549  0.0878 -0.0491  0.3082
 8065TIP3    H145610   5.639   3.456  14.497  3.0005 -1.2363  0.7863
 8065TIP3    H245611   5.613   3.518  14.632 -0.0458 -0.8406  0.0963
 8066TIP3   OH245612   0.593   0.091   0.460 -0.1552  0.4862  0.2937
 8066TIP3    H145613   0.652   0.047   0.522 -0.1728 -1.5683 -1.0659
 8066TIP3    H245614   0.651   0.140   0.402  0.2368 -1.2844 -0.8542
 8067TIP3   OH245615   3.824   2.039   5.329 -0.4270  0.1283 -0.4792
 8067TIP3    H145616   3.738   2.000   5.340 -0.0707 -0.5508  0.0324
 8067TIP3    H245617   3.809   2.120   5.282 -1.2545 -0.3810 -1.0996
 8068TIP3   OH245618   3.411   4.901  14.643 -0.2411 -0.1557  0.6012
 8068TIP3    H145619   3.391   4.852  14.564 -1.6972 -0.5779  1.1895
 8068TIP3    H245620   3.325   4.920  14.681 -0.1572  5.4533 -1.1043
 8069TIP3   OH245621   0.469   1.474   2.456 -0.5821 -0.4506  0.1644
 8069TIP3    H145622   0.500   1.515   2.375 -0.2235 -0.9421  0.0493
 8069TIP3    H245623   0.548   1.448   2.502 -0.7802  0.0807  0.8133
 8070TIP3   OH245624   1.947   5.634  14.542  0.4240  0.1758  0.6080
 8070TIP3    H145625   1.994   5.594  14.615 -0.6552 -2.4572 -0.0115
 8070TIP3    H245626   1.857   5.644  14.573  0.4687  1.2907  0.4188
 8071TIP3   OH245627   1.418   4.249  13.636  0.2083 -0.7837 -0.1363
 8071TIP3    H145628   1.342   4.290  13.678 -0.2964  0.0578 -1.7466
 8071TIP3    H245629   1.486   4.249  13.703  0.3627  3.0933 -0.0233
 8072TIP3   OH245630   5.989   1.553   5.899  0.1964 -0.0163 -0.1912
 8072TIP3    H145631   6.027   1.600   5.973  0.5200 -1.6661  0.7467
 8072TIP3    H245632   6.049   1.568   5.827 -0.6607  2.5016 -0.4999
 8073TIP3   OH245633   1.287   3.760   5.783  0.6264  0.0720 -0.4145
 8073TIP3    H145634   1.257   3.792   5.697 -0.1612 -0.0665 -0.2047
 8073TIP3    H245635   1.328   3.836   5.823 -2.0432  1.1888  0.4461
 8074TIP3   OH245636   5.030   1.437   0.671  0.7103 -0.7253  0.6191
 8074TIP3    H145637   4.970   1.510   0.652  0.9073 -0.6670  0.2185
 8074TIP3    H245638   5.115   1.478   0.683  0.8606 -0.9072  0.1945
 8075TIP3   OH245639   5.864   3.270  16.014  0.2435 -0.5913 -0.3182
 8075TIP3    H145640   5.894   3.289  16.103 -1.0203 -1.0629  0.2341
 8075TIP3    H245641   5.924   3.203  15.982  0.3998 -0.7968  0.3866
 8076TIP3   OH245642   6.343   2.946   1.213  0.4495  0.4251  0.1629
 8076TIP3    H145643   6.376   2.856   1.206  1.2075  0.7038  0.0326
 8076TIP3    H245644   6.418   3.000   1.188  0.4458  1.1551  1.6282
 8077TIP3   OH245645   3.175   3.422   2.157 -0.7159  0.3359 -0.0070
 8077TIP3    H145646   3.108   3.354   2.145 -1.1246  0.9285 -1.3254
 8077TIP3    H245647   3.257   3.378   2.136 -0.8604 -0.0242  0.1753
 8078TIP3   OH245648   0.679   3.712   5.571 -0.0636 -0.5783  0.2873
 8078TIP3    H145649   0.741   3.663   5.625 -0.1692  0.9792  1.9001
 8078TIP3    H245650   0.721   3.717   5.485  1.7262 -0.2221  1.1365
 8079TIP3   OH245651   5.757   0.307  11.194 -0.2501  0.2121 -0.1004
 8079TIP3    H145652   5.722   0.226  11.158 -3.6045  0.5780  1.8487
 8079TIP3    H245653   5.691   0.373  11.173 -0.3409  1.2442  2.8881
 8080TIP3   OH245654   5.366   3.635   4.508 -0.5107  0.0964  0.1643
 8080TIP3    H145655   5.389   3.543   4.524 -1.8300 -0.2972 -0.1038
 8080TIP3    H245656   5.450   3.680   4.506  0.1377 -1.0413  0.7024
 8081TIP3   OH245657   3.393   2.613  12.923 -0.0564 -0.2622  0.5584
 8081TIP3    H145658   3.348   2.646  12.846  0.7273  2.2391  1.0687
 8081TIP3    H245659   3.384   2.518  12.918 -1.3827 -0.0781 -1.7363
 8082TIP3   OH245660   6.474   6.155  13.515 -0.1444 -0.0171  0.0578
 8082TIP3    H145661   6.436   6.238  13.484  1.6683  1.3775  1.3223
 8082TIP3    H245662   6.541   6.182  13.578 -2.1925 -2.5581  3.6713
 8083TIP3   OH245663   0.877   0.125  13.849 -0.2420 -0.4522 -0.2444
 8083TIP3    H145664   0.805   0.072  13.813  0.9609 -1.5333 -1.1586
 8083TIP3    H245665   0.954   0.097  13.800  1.0559 -0.2499  1.5858
 8084TIP3   OH245666   0.051   3.874  16.819 -0.1568  0.2172  0.1946
 8084TIP3    H145667  -0.020   3.937  16.802 -2.1177 -2.1378 -1.0308
 8084TIP3    H245668   0.026   3.833  16.902 -1.4974 -2.0331 -1.2038
 8085TIP3   OH245669   1.840   2.272   3.069 -0.5761  0.1091  0.0738
 8085TIP3    H145670   1.891   2.199   3.105 -0.2797  0.0810 -0.3943
 8085TIP3    H245671   1.840   2.338   3.138  0.9940  0.5344 -0.2949
 8086TIP3   OH245672   2.177   6.735   2.622  0.6237  0.2970 -0.4558
 8086TIP3    H145673   2.155   6.652   2.580 -2.5748  0.0692  1.3581
 8086TIP3    H245674   2.170   6.717   2.716  1.6805  2.2023  0.0423
 8087TIP3   OH245675   5.696   2.728   3.997 -0.3314  0.1934 -0.9047
 8087TIP3    H145676   5.649   2.647   4.016 -0.4874 -0.0446 -2.1803
 8087TIP3    H245677   5.648   2.767   3.923  0.0202  1.2046 -0.6187
 8088TIP3   OH245678   1.358   4.450   5.934  0.3425  0.2883  0.2595
 8088TIP3    H145679   1.387   4.541   5.930  0.0900  0.5040  2.2916
 8088TIP3    H245680   1.316   4.434   5.849  0.5679  1.9935 -0.2066
 8089TIP3   OH245681   6.496   3.368  13.768 -0.2219  0.0537  0.4721
 8089TIP3    H145682   6.545   3.412  13.698  1.0221 -2.6779 -0.5447
 8089TIP3    H245683   6.564   3.339  13.829 -0.4912 -3.0197 -0.4997
 8090TIP3   OH245684   1.401   3.912   0.450  0.2074 -0.8777 -0.3899
 8090TIP3    H145685   1.417   3.818   0.454  0.8763 -0.7803 -0.5756
 8090TIP3    H245686   1.446   3.948   0.527  2.9105 -0.3510 -2.0623
 8091TIP3   OH245687   0.660   0.295  12.864 -0.2997  0.2277 -0.1157
 8091TIP3    H145688   0.736   0.261  12.817 -1.4975 -0.4032 -1.6470
 8091TIP3    H245689   0.625   0.363  12.807 -0.7471  0.6960  0.7011
 8092TIP3   OH245690   2.649   0.155   0.504  0.0221  0.0499  0.3310
 8092TIP3    H145691   2.646   0.208   0.584 -0.0005 -0.4634  0.6770
 8092TIP3    H245692   2.737   0.170   0.468  0.1956 -0.0717  0.7013
 8093TIP3   OH245693   5.441   4.985  14.546 -0.4484 -0.4435 -0.0759
 8093TIP3    H145694   5.454   5.002  14.453 -1.4983 -1.2852 -0.3986
 8093TIP3    H245695   5.346   4.975  14.555 -0.7966  2.9589  1.6799
 8094TIP3   OH245696   4.521   3.411  12.663  0.2986  0.2646 -0.0161
 8094TIP3    H145697   4.566   3.377  12.740  1.0338 -1.1774 -1.0403
 8094TIP3    H245698   4.429   3.391  12.678  0.6377 -1.7748 -0.3299
 8095TIP3   OH245699   0.812   4.561  15.702  0.1810 -0.2227  0.1263
 8095TIP3    H145700   0.737   4.504  15.719 -0.0032 -0.9633 -2.6708
 8095TIP3    H245701   0.887   4.502  15.703  0.1559 -0.3227 -1.3892
 8096TIP3   OH245702   3.154   2.939  13.166  0.2703  0.5233  0.2019
 8096TIP3    H145703   3.217   2.868  13.182  2.1438  1.8347 -1.0265
 8096TIP3    H245704   3.208   3.013  13.139 -1.8372  1.5643 -1.4027
 8097TIP3   OH245705   5.266   2.085   4.098 -0.0977  0.0178 -0.1254
 8097TIP3    H145706   5.270   2.180   4.108  0.7628  0.2310 -2.0516
 8097TIP3    H245707   5.205   2.056   4.166  0.7323  1.7720  1.4372
 8098TIP3   OH245708   4.483   0.142   0.877  0.2124 -0.2009  0.2939
 8098TIP3    H145709   4.393   0.136   0.908  0.2436 -0.6722  0.2998
 8098TIP3    H245710   4.525   0.063   0.911  0.4405 -0.3463 -0.3188
 8099TIP3   OH245711   6.057   5.449  11.518  0.1445  0.3139  0.3792
 8099TIP3    H145712   5.962   5.438  11.515  0.1849 -0.1360  0.6720
 8099TIP3    H245713   6.086   5.389  11.587  0.5792  0.8923  0.7097
 8100TIP3   OH245714   1.425   1.586  17.227  0.2189 -0.0348  0.2424
 8100TIP3    H145715   1.436   1.614  17.136  1.5391  0.1350  0.4345
 8100TIP3    H245716   1.481   1.509  17.236  1.9130  1.2246  1.4500
 8101TIP3   OH245717   5.382   5.965  17.273  0.3745  0.1453  0.5158
 8101TIP3    H145718   5.437   5.988  17.349  0.1209  1.0576  0.4436
 8101TIP3    H245719   5.365   6.049  17.230  0.1462 -0.3087 -0.3046
 8102TIP3   OH245720   0.062   3.619   0.476 -0.5710 -0.1579 -0.3061
 8102TIP3    H145721   0.034   3.648   0.389 -2.2089 -1.0440 -0.1230
 8102TIP3    H245722   0.009   3.671   0.536 -0.0879 -0.1856  0.1485
 8103TIP3   OH245723   4.832   4.027   1.577 -0.5846  0.2677 -0.2885
 8103TIP3    H145724   4.858   3.973   1.502  1.8714  0.0408  0.6283
 8103TIP3    H245725   4.815   3.964   1.647  0.2766  0.5528  0.2009
 8104TIP3   OH245726   3.570   0.234   2.870  0.1383  0.0103 -0.3368
 8104TIP3    H145727   3.607   0.205   2.787 -0.6599  0.8052 -0.9889
 8104TIP3    H245728   3.524   0.315   2.849  0.4687  0.5734  1.0163
 8105TIP3   OH245729   1.993   2.058   3.169 -0.2265  0.1993 -0.2901
 8105TIP3    H145730   2.027   1.991   3.110  0.9102  0.8224 -0.3721
 8105TIP3    H245731   2.062   2.070   3.234 -1.0537  0.2234  0.5968
 8106TIP3   OH245732   6.236   3.943  12.503 -0.3594  0.0701  0.1848
 8106TIP3    H145733   6.147   3.976  12.494 -0.5311 -0.1439  1.0732
 8106TIP3    H245734   6.236   3.860  12.455 -1.4212 -1.3245  2.4306
 8107TIP3   OH245735   3.372   3.025  16.552  0.3882  0.2105  0.2118
 8107TIP3    H145736   3.408   3.108  16.521 -2.0029  0.4850 -2.2141
 8107TIP3    H245737   3.434   2.959  16.523  0.6097  0.8976 -0.9239
 8108TIP3   OH245738   6.656   1.128   1.715 -0.3548  0.6147 -0.4273
 8108TIP3    H145739   6.714   1.071   1.663 -1.1943 -1.3992  0.7333
 8108TIP3    H245740   6.647   1.083   1.799 -1.0197  2.5400  0.5955
 8109TIP3   OH245741   6.328   2.539   3.573 -0.1530  0.4597 -0.0405
 8109TIP3    H145742   6.275   2.586   3.509 -1.4884  2.0840  2.1343
 8109TIP3    H245743   6.327   2.595   3.651  3.4281 -0.2340  0.6728
 8110TIP3   OH245744   3.118   0.841   3.431 -0.2509  0.4171  0.1691
 8110TIP3    H145745   3.196   0.861   3.379  0.0667  0.0879  0.5164
 8110TIP3    H245746   3.068   0.779   3.376 -0.5632  1.0816 -0.3081
 8111TIP3   OH245747   4.808   0.496  11.569 -0.0555 -0.3295 -0.2829
 8111TIP3    H145748   4.777   0.517  11.481 -0.3546 -0.2970 -0.1718
 8111TIP3    H245749   4.895   0.459  11.555  1.7644  3.4964 -0.2875
 8112TIP3   OH245750   3.428   2.491  10.916 -0.2779 -0.0499 -0.0745
 8112TIP3    H145751   3.450   2.505  10.823  0.8383 -0.3915  0.1263
 8112TIP3    H245752   3.511   2.501  10.962 -0.8918  0.4941  0.9475
 8113TIP3   OH245753   0.785   3.837   0.101  0.1253 -0.6612 -0.1421
 8113TIP3    H145754   0.705   3.784   0.099 -1.3696  1.4362 -1.1767
 8113TIP3    H245755   0.828   3.819   0.017 -0.3744 -0.3039 -0.4854
 8114TIP3   OH245756   0.221   1.406  12.701 -0.2214  0.2355  0.5226
 8114TIP3    H145757   0.138   1.426  12.656  0.7458  0.2655 -1.3543
 8114TIP3    H245758   0.281   1.475  12.673  1.1877 -1.2801 -0.3699
 8115TIP3   OH245759   4.282   5.933  12.137  0.3609  0.4572  0.4667
 8115TIP3    H145760   4.344   5.896  12.073 -1.7714 -0.0573 -1.4456
 8115TIP3    H245761   4.240   6.005  12.091 -1.1977  0.1223  1.2805
 8116TIP3   OH245762   5.809   3.344   5.010 -0.0562 -0.0637 -0.8660
 8116TIP3    H145763   5.781   3.391   4.931  0.3674  1.6197 -0.0637
 8116TIP3    H245764   5.902   3.366   5.019  0.9936 -3.3680 -1.9889
 8117TIP3   OH245765   1.233   1.357  15.500 -0.4279 -0.3711  0.6091
 8117TIP3    H145766   1.175   1.407  15.557 -0.0934  0.6477  0.0726
 8117TIP3    H245767   1.185   1.349  15.417  0.1361  0.3865  0.1970
 8118TIP3   OH245768   2.601   6.336  15.047 -0.5129  0.2600  0.7188
 8118TIP3    H145769   2.659   6.264  15.072 -0.2016  0.9088  1.9842
 8118TIP3    H245770   2.513   6.302  15.062 -0.4321 -0.3122 -0.0321
 8119TIP3   OH245771   5.080   3.983  14.547 -0.2656  0.0128 -0.2525
 8119TIP3    H145772   5.113   3.977  14.457 -0.1219  3.7350 -0.5992
 8119TIP3    H245773   4.990   4.015  14.537 -1.2360 -2.1532  0.9382
 8120TIP3   OH245774   2.111   1.759   0.267 -0.0884 -0.2427  0.5279
 8120TIP3    H145775   2.063   1.750   0.184  0.8205 -0.9900  0.0639
 8120TIP3    H245776   2.156   1.843   0.259  1.7258 -1.2768 -0.6957
 8121TIP3   OH245777   3.905   0.381   5.464  0.1209  0.5844 -0.1719
 8121TIP3    H145778   3.978   0.396   5.524 -1.2767  0.1964  1.7337
 8121TIP3    H245779   3.846   0.322   5.512 -1.3383  0.6995 -1.7143
 8122TIP3   OH245780   2.574   3.426   6.644  0.5581 -0.2616 -0.0478
 8122TIP3    H145781   2.556   3.332   6.636  0.3078 -0.2804  0.6678
 8122TIP3    H245782   2.489   3.464   6.667  0.6588  0.1385 -0.3420
 8123TIP3   OH245783   3.378   1.029   5.151  0.3688  0.6718  0.1637
 8123TIP3    H145784   3.334   1.113   5.139 -0.0498  0.4755  0.2799
 8123TIP3    H245785   3.428   1.016   5.071 -1.0667  0.1599 -0.6991
 8124TIP3   OH245786   5.161   5.836  15.930  0.1467 -0.2995 -0.5665
 8124TIP3    H145787   5.249   5.872  15.944 -0.2369  0.1280  0.9095
 8124TIP3    H245788   5.106   5.913  15.917 -0.1706 -0.5193 -0.5168
 8125TIP3   OH245789   1.960   2.815   3.893 -0.1904  0.1383  0.1778
 8125TIP3    H145790   1.933   2.795   3.804  3.0830 -0.5639 -0.8269
 8125TIP3    H245791   1.967   2.729   3.936  1.5776  0.0997 -0.0804
 8126TIP3   OH245792   0.184   5.564  12.855  0.4037  0.3687 -0.8244
 8126TIP3    H145793   0.247   5.628  12.890  0.3001  0.1192 -0.1765
 8126TIP3    H245794   0.217   5.545  12.767  0.8684  0.7408 -0.7386
 8127TIP3   OH245795   1.372   5.050   3.571  0.3087 -0.4272 -0.3426
 8127TIP3    H145796   1.368   5.007   3.657  0.3439 -0.5456 -0.3994
 8127TIP3    H245797   1.299   5.111   3.571 -0.5747 -1.4669 -0.7926
 8128TIP3   OH245798   0.884   2.530   6.135 -0.3247  0.7643 -0.0723
 8128TIP3    H145799   0.861   2.437   6.138 -0.0888  0.6738 -0.9448
 8128TIP3    H245800   0.799   2.575   6.142 -0.5117  0.4728 -0.4468
 8129TIP3   OH245801   2.148   2.818  12.483 -0.2030  0.1242  0.2001
 8129TIP3    H145802   2.096   2.739  12.498 -1.3408  0.5063 -1.4929
 8129TIP3    H245803   2.232   2.786  12.451  0.0587 -0.4472  1.4146
 8130TIP3   OH245804   5.622   4.919   0.289 -0.3306 -0.1468  0.4349
 8130TIP3    H145805   5.573   4.888   0.212 -2.8295 -0.3067  1.9650
 8130TIP3    H245806   5.633   5.013   0.273  2.4138 -0.6830 -1.6822
 8131TIP3   OH245807   5.115   4.466  15.641  0.1228  0.1766 -0.0294
 8131TIP3    H145808   5.081   4.419  15.718  0.3272  2.2574  1.4234
 8131TIP3    H245809   5.188   4.413  15.611  0.3464 -0.4652  1.5236
 8132TIP3   OH245810   0.190   5.836   2.262  0.5830 -0.5537  0.2189
 8132TIP3    H145811   0.136   5.806   2.336 -1.5620 -1.1157 -1.4725
 8132TIP3    H245812   0.248   5.762   2.244 -0.6329 -1.4340 -0.2146
 8133TIP3   OH245813   2.680   0.756   2.929 -0.0986  0.0059 -0.5663
 8133TIP3    H145814   2.686   0.845   2.892  1.7433  0.6092  1.0268
 8133TIP3    H245815   2.765   0.741   2.970 -0.4516 -2.4433 -0.5933
 8134TIP3   OH245816   1.107   0.995  14.076  0.1386  0.0240 -0.3116
 8134TIP3    H145817   1.071   0.957  13.996 -1.8008  0.6365  0.2262
 8134TIP3    H245818   1.041   1.057  14.106  0.2236 -1.0396  2.4062
 8135TIP3   OH245819   2.587   6.629  16.566  0.8107  0.2385  0.3650
 8135TIP3    H145820   2.671   6.668  16.589  0.6744  0.0932  1.1751
 8135TIP3    H245821   2.522   6.688  16.605  0.5526  0.1476  0.0761
 8136TIP3   OH245822   0.727   3.349   5.362 -0.0379 -0.3081  0.1182
 8136TIP3    H145823   0.751   3.256   5.363 -2.2691 -0.9425  1.6715
 8136TIP3    H245824   0.755   3.382   5.447  1.7085  0.7932 -0.8186
 8137TIP3   OH245825   3.664   3.370  12.868  0.8324 -0.0456  0.2585
 8137TIP3    H145826   3.640   3.462  12.862 -1.9534 -0.7918 -2.0788
 8137TIP3    H245827   3.639   3.343  12.956  1.1986  1.2697  0.7793
 8138TIP3   OH245828   2.071   0.980  15.703  0.6006 -0.5899 -0.1042
 8138TIP3    H145829   2.113   1.058  15.668  0.2787 -0.2378  0.2877
 8138TIP3    H245830   2.044   1.004  15.792 -0.7766 -0.6606 -0.4660
 8139TIP3   OH245831   2.939   5.316   4.939 -0.7875 -0.4251 -0.2399
 8139TIP3    H145832   2.885   5.243   4.970 -0.3802 -1.5433 -2.0217
 8139TIP3    H245833   3.029   5.289   4.957 -0.7011  0.4289  0.6673
 8140TIP3   OH245834   0.923   0.393  12.450 -0.2634  0.4945 -0.6609
 8140TIP3    H145835   0.931   0.418  12.542 -0.4683 -1.6894 -0.0049
 8140TIP3    H245836   1.007   0.351  12.429 -0.4437  0.4391 -1.3038
 8141TIP3   OH245837   4.062   3.136  12.519 -0.0374 -0.1190 -0.5292
 8141TIP3    H145838   4.130   3.179  12.467  1.1858 -1.1453  0.1550
 8141TIP3    H245839   4.062   3.045  12.489 -0.6387 -0.2760 -0.0727
 8142TIP3   OH245840   5.461   1.781   5.592  0.0711  0.1379 -0.0266
 8142TIP3    H145841   5.399   1.850   5.572 -1.2889 -0.4248  1.9657
 8142TIP3    H245842   5.547   1.825   5.590 -0.5327  1.3386 -0.9696
 8143TIP3   OH245843   5.325   5.818  16.529 -0.4175  0.2031  0.1396
 8143TIP3    H145844   5.336   5.726  16.505 -0.1944 -0.2867  1.9779
 8143TIP3    H245845   5.285   5.858  16.452 -2.3878 -1.8630 -0.0264
 8144TIP3   OH245846   0.382   2.889   3.934  0.3557 -0.7531 -0.0754
 8144TIP3    H145847   0.444   2.900   4.006 -0.7834 -0.6856  0.9397
 8144TIP3    H245848   0.347   2.977   3.919  0.0696 -0.8921 -0.2336
 8145TIP3   OH245849   0.577   2.054  12.105  0.6803 -0.3741 -0.2471
 8145TIP3    H145850   0.572   2.034  12.011  1.4084  0.7329 -0.5413
 8145TIP3    H245851   0.516   1.992  12.146  2.0148 -2.4088 -1.1878
 8146TIP3   OH245852   6.572   3.973  16.245  0.2298 -0.9959  0.3510
 8146TIP3    H145853   6.541   3.997  16.157  2.1325  3.3474  0.6209
 8146TIP3    H245854   6.505   3.913  16.278 -3.1080  0.9141 -2.2950
 8147TIP3   OH245855   0.326   5.651   4.499 -0.2231 -0.2496 -0.3356
 8147TIP3    H145856   0.331   5.676   4.592 -0.8545 -0.4248 -0.2485
 8147TIP3    H245857   0.317   5.734   4.453  0.9472 -0.0924 -0.3222
 8148TIP3   OH245858   1.120   4.438   2.164 -0.2361  0.4593 -0.5169
 8148TIP3    H145859   1.074   4.520   2.151 -1.0690  0.0104 -0.4948
 8148TIP3    H245860   1.199   4.461   2.212  0.7439  1.5791 -2.5262
 8149TIP3   OH245861   2.094   0.747  11.578  0.4331 -0.2714  0.0200
 8149TIP3    H145862   2.111   0.675  11.517  0.7356 -0.1992  0.0216
 8149TIP3    H245863   2.031   0.803  11.531  1.3619  0.2696 -0.6049
 8150TIP3   OH245864   0.124   2.340  13.803 -0.2398 -0.3642  0.2672
 8150TIP3    H145865   0.114   2.296  13.718  1.5496 -1.1450  0.4137
 8150TIP3    H245866   0.185   2.412  13.785 -0.0609 -0.3699  0.8440
 8151TIP3   OH245867   1.196   5.743  11.897  0.0355 -0.0331 -0.5066
 8151TIP3    H145868   1.258   5.695  11.841  0.7770  0.5785 -0.2373
 8151TIP3    H245869   1.202   5.699  11.982 -0.6866 -0.6264 -0.7615
 8152TIP3   OH245870   3.402   3.369  13.849 -0.1734  0.0702  0.1229
 8152TIP3    H145871   3.343   3.296  13.868  1.3680 -1.1028  0.6451
 8152TIP3    H245872   3.352   3.447  13.871 -2.3143 -0.7196 -1.5684
 8153TIP3   OH245873   4.800   4.334  17.248 -0.0326  0.0757  0.4505
 8153TIP3    H145874   4.770   4.309  17.335 -0.4384 -0.5853  0.1326
 8153TIP3    H245875   4.877   4.387  17.263  0.8172 -1.3068  1.1812
 8154TIP3   OH245876   4.167   5.903  16.566  0.3431 -0.1939 -0.1047
 8154TIP3    H145877   4.205   5.905  16.478  0.9261 -0.8227  0.1269
 8154TIP3    H245878   4.073   5.889  16.551  0.3359  0.3647 -0.6398
 8155TIP3   OH245879   0.317   4.862   4.888  0.0340 -0.2781 -0.2414
 8155TIP3    H145880   0.264   4.824   4.818 -0.3233  1.4477 -0.9401
 8155TIP3    H245881   0.372   4.927   4.845 -0.6870  1.3167  1.1449
 8156TIP3   OH245882   5.167   0.434  13.989 -0.1149  0.0127 -0.1927
 8156TIP3    H145883   5.234   0.409  13.925  0.6206 -0.3189  0.6811
 8156TIP3    H245884   5.086   0.439  13.938  0.5915  0.5770 -1.3039
 8157TIP3   OH245885   0.139   2.467  11.168  0.0437  0.0530 -0.3771
 8157TIP3    H145886   0.076   2.478  11.097 -0.5186 -0.9371 -0.0518
 8157TIP3    H245887   0.181   2.383  11.150  0.8351  0.4114 -0.2441
 8158TIP3   OH245888   1.158   0.877  12.668 -0.1475  0.2993 -0.8737
 8158TIP3    H145889   1.092   0.871  12.599  1.2835  0.2360 -2.3090
 8158TIP3    H245890   1.148   0.966  12.703 -1.6419 -0.0539 -0.3296
 8159TIP3   OH245891   3.867   2.662   4.528  0.5777 -0.7140 -0.3373
 8159TIP3    H145892   3.825   2.737   4.569  0.0566 -1.6416  0.8783
 8159TIP3    H245893   3.828   2.658   4.440 -0.3057 -0.2954  0.0214
 8160TIP3   OH245894   4.496   4.289   5.621  0.0502 -0.0152 -0.0082
 8160TIP3    H145895   4.493   4.326   5.533 -1.6911 -0.0389  0.0042
 8160TIP3    H245896   4.566   4.223   5.617  1.6580  1.6485 -0.6611
 8161TIP3   OH245897   0.581   6.615   4.851 -0.2641 -0.2123 -0.5048
 8161TIP3    H145898   0.533   6.696   4.834 -1.0692 -0.8531 -1.4607
 8161TIP3    H245899   0.552   6.555   4.782 -0.9361 -1.8456  1.0831
 8162TIP3   OH245900   2.688   2.084  15.659 -0.0923 -0.2670 -0.2562
 8162TIP3    H145901   2.613   2.113  15.607  0.0370 -1.7205 -1.3047
 8162TIP3    H245902   2.718   2.004  15.616  0.5908 -1.0307  1.5271
 8163TIP3   OH245903   4.123   2.497   3.435 -0.5695  0.4480  0.1789
 8163TIP3    H145904   4.134   2.446   3.515  0.1497  1.6199  0.8603
 8163TIP3    H245905   4.212   2.510   3.404 -0.6529  2.1007  0.5664
 8164TIP3   OH245906   0.941   5.190  15.902 -0.1161 -0.4187  0.3620
 8164TIP3    H145907   0.995   5.268  15.892 -0.9894 -0.0025 -1.9527
 8164TIP3    H245908   0.872   5.215  15.963 -0.5308  0.7425 -0.5521
 8165TIP3   OH245909   2.942   2.121  13.074 -0.1359 -0.0483 -0.0741
 8165TIP3    H145910   2.969   2.208  13.045  0.6423  0.3146  1.6185
 8165TIP3    H245911   2.973   2.062  13.005  2.0653  0.7232  0.1856
 8166TIP3   OH245912   2.411   6.214   4.992 -0.1903  0.2952 -0.0233
 8166TIP3    H145913   2.424   6.191   5.084  0.7376  1.6090  0.2019
 8166TIP3    H245914   2.490   6.264   4.968  0.0393 -0.8257 -1.8154
 8167TIP3   OH245915   6.158   0.764  13.652  0.6387 -0.1156 -0.2975
 8167TIP3    H145916   6.102   0.725  13.718  1.4190 -0.3185  0.2559
 8167TIP3    H245917   6.244   0.771  13.693  0.7680  1.2475 -0.7297
 8168TIP3   OH245918   1.400   4.607   0.030 -0.2030 -0.4747 -0.4023
 8168TIP3    H145919   1.362   4.587   0.116 -0.0206  0.4406 -0.0907
 8168TIP3    H245920   1.484   4.562   0.030  0.1035  0.0815  0.1872
 8169TIP3   OH245921   3.016   2.911   2.876  0.4254  0.2091  0.0946
 8169TIP3    H145922   3.093   2.868   2.841  0.1016  0.1760 -0.5917
 8169TIP3    H245923   2.945   2.849   2.862  0.1654  0.4857  0.1710
 8170TIP3   OH245924   0.686   5.650  14.620  0.6048  0.4746  0.1871
 8170TIP3    H145925   0.695   5.611  14.707 -0.0782  0.2524  0.1587
 8170TIP3    H245926   0.609   5.706  14.627  0.9262  0.9710 -0.0948
 8171TIP3   OH245927   3.971   4.945  12.392  0.0314  0.5642  0.0606
 8171TIP3    H145928   4.013   4.862  12.415 -0.2397  0.2392 -0.6040
 8171TIP3    H245929   4.041   5.010  12.401  0.3067  0.2318  0.3535
 8172TIP3   OH245930   1.941   0.615   1.366 -0.6249  0.2335 -0.3064
 8172TIP3    H145931   2.014   0.561   1.336 -0.4802  0.3722 -0.2066
 8172TIP3    H245932   1.982   0.688   1.412 -0.8389  0.0701  0.1559
 8173TIP3   OH245933   5.554   3.906  16.212 -0.2990 -0.1804  0.4681
 8173TIP3    H145934   5.572   4.000  16.212 -0.5532 -0.0991 -1.3744
 8173TIP3    H245935   5.519   3.889  16.299 -0.3806  1.4552  0.7916
 8174TIP3   OH245936   4.465   2.814   0.662  0.1796  0.7029  0.3234
 8174TIP3    H145937   4.485   2.776   0.576  1.8854  0.4112  0.8074
 8174TIP3    H245938   4.387   2.867   0.647 -0.0564 -0.0221 -1.2154
 8175TIP3   OH245939   0.648   4.791  13.921  0.0306 -0.6527  0.3014
 8175TIP3    H145940   0.720   4.735  13.949  0.4928  0.3298  1.0949
 8175TIP3    H245941   0.577   4.770  13.981  0.7702  0.8743  1.7804
 8176TIP3   OH245942   6.420   1.736   5.031 -0.5189 -0.3619 -0.1144
 8176TIP3    H145943   6.363   1.810   5.011 -0.9484 -1.0864 -1.6866
 8176TIP3    H245944   6.380   1.695   5.108 -2.4541 -1.1504 -1.4686
 8177TIP3   OH245945   2.696   2.853   6.421  0.2385  1.0594 -0.1781
 8177TIP3    H145946   2.783   2.828   6.389  0.2350 -0.7490  1.1027
 8177TIP3    H245947   2.695   2.826   6.513 -0.7426  3.5479  0.6385
 8178TIP3   OH245948   2.208   6.152   0.497 -0.2125 -0.1776  0.5995
 8178TIP3    H145949   2.169   6.182   0.415 -0.8486 -1.4228  0.4377
 8178TIP3    H245950   2.297   6.189   0.496 -0.7406  1.1324  0.1128
 8179TIP3   OH245951   5.392   0.912   3.538 -0.6292  0.8063  0.4310
 8179TIP3    H145952   5.299   0.926   3.555 -0.1445  0.7252  3.6940
 8179TIP3    H245953   5.435   0.928   3.622  2.4691  1.8584 -1.1913
 8180TIP3   OH245954   0.866   5.314   5.924  0.2283  0.1371 -0.1865
 8180TIP3    H145955   0.900   5.372   5.856  1.4173  1.1343  1.2017
 8180TIP3    H245956   0.931   5.318   5.994 -0.2631 -1.9779  0.4392
 8181TIP3   OH245957   4.984   5.830  16.426 -0.0533  0.3165  0.1742
 8181TIP3    H145958   4.889   5.816  16.416  0.3216 -1.4086 -1.5942
 8181TIP3    H245959   5.003   5.905  16.371  0.0212 -1.2904 -2.1242
 8182TIP3   OH245960   6.743   0.062  13.429 -0.7289 -0.1093  0.2100
 8182TIP3    H145961   6.685   0.086  13.356 -0.7656  1.2948  0.6671
 8182TIP3    H245962   6.831   0.065  13.391 -0.8762 -1.7973 -0.3675
 8183TIP3   OH245963   5.952   4.609   4.777  0.3083 -0.0638 -0.5214
 8183TIP3    H145964   6.040   4.614   4.739  1.5167  2.8210  2.2082
 8183TIP3    H245965   5.957   4.533   4.836  1.4659  0.7502  0.5028
 8184TIP3   OH245966   1.512   0.358   2.228  0.4965 -0.1627  0.1750
 8184TIP3    H145967   1.550   0.370   2.315  0.5208  2.4736 -0.0913
 8184TIP3    H245968   1.569   0.295   2.185  2.3313  0.7975  1.0717
 8185TIP3   OH245969   4.786   3.698   5.147 -0.2065 -0.1830 -0.5423
 8185TIP3    H145970   4.720   3.710   5.079 -0.3864 -0.8911 -0.4984
 8185TIP3    H245971   4.860   3.658   5.101  0.9601  2.3126 -0.9973
 8186TIP3   OH245972   2.436   3.249  14.718 -0.0043 -0.7387 -0.2831
 8186TIP3    H145973   2.355   3.214  14.753 -0.9030  0.0466 -1.4933
 8186TIP3    H245974   2.496   3.175  14.717  0.6129 -0.5982  4.1199
 8187TIP3   OH245975   3.630   6.482  12.434 -0.3860  0.9068 -0.3499
 8187TIP3    H145976   3.535   6.484  12.448 -0.4494  0.5297 -0.7020
 8187TIP3    H245977   3.663   6.424  12.502 -0.6406 -0.5441 -1.4028
 8188TIP3   OH245978   5.092   3.969   1.800 -0.5276 -0.2333 -0.6063
 8188TIP3    H145979   5.166   4.001   1.853 -0.2139  0.6953 -1.5735
 8188TIP3    H245980   5.023   3.952   1.864  0.4165 -0.8451  0.2920
 8189TIP3   OH245981   3.749   0.831  14.081 -0.0683  0.1400  0.2911
 8189TIP3    H145982   3.695   0.807  14.156  0.8640 -3.2332  0.0422
 8189TIP3    H245983   3.837   0.804  14.106  0.5593  0.5827 -1.3512
 8190TIP3   OH245984   1.129   4.417  13.595 -0.0019 -0.5766 -0.5183
 8190TIP3    H145985   1.157   4.506  13.575 -0.5602 -0.3029 -0.1359
 8190TIP3    H245986   1.056   4.401  13.535  0.9482 -1.2841 -1.5120
 8191TIP3   OH245987   0.533   2.891  10.944  0.0733 -0.3713 -0.0947
 8191TIP3    H145988   0.439   2.881  10.927  0.1204 -2.9396  0.6254
 8191TIP3    H245989   0.575   2.835  10.879  1.2089  1.3414 -0.9026
 8192TIP3   OH245990   3.410   0.363  11.854 -0.0857  0.0277 -0.4423
 8192TIP3    H145991   3.446   0.386  11.769 -0.3905 -2.9991 -1.5238
 8192TIP3    H245992   3.331   0.312  11.834 -0.4730 -0.3200  1.6597
 8193TIP3   OH245993   3.798   0.594  13.660 -0.2658  0.5490 -0.5102
 8193TIP3    H145994   3.845   0.667  13.699 -1.5591  0.2885  1.7392
 8193TIP3    H245995   3.810   0.522  13.723 -2.6272  0.1578 -0.4106
 8194TIP3   OH245996   0.261   3.690   4.748  0.5813  0.3719  0.2289
 8194TIP3    H145997   0.340   3.686   4.802  0.0767  0.4934  0.9926
 8194TIP3    H245998   0.237   3.599   4.732  0.7099  0.3351  0.2523
 8195TIP3   OH245999   0.286   4.016  17.055 -0.3865  0.1860  0.0084
 8195TIP3    H146000   0.372   3.999  17.017 -0.6362 -0.4082 -0.2984
 8195TIP3    H246001   0.295   4.102  17.097  1.2712 -1.1106  2.5968
 8196TIP3   OH246002   4.834   3.296   3.915 -0.1559  0.4542 -0.2053
 8196TIP3    H146003   4.821   3.272   3.823 -2.7570 -0.9622  0.4315
 8196TIP3    H246004   4.838   3.391   3.914 -0.0827  0.4703 -1.7957
 8197TIP3   OH246005   0.168   1.990  13.198  0.7502  0.3843 -0.0762
 8197TIP3    H146006   0.247   1.938  13.214 -0.2344 -1.0319  0.3656
 8197TIP3    H246007   0.201   2.074  13.166  2.3992 -0.5401 -0.9498
 8198TIP3   OH246008   6.580   3.714   6.440 -0.3724 -0.1954  0.0900
 8198TIP3    H146009   6.625   3.660   6.505 -1.3209 -1.3703 -0.1828
 8198TIP3    H246010   6.525   3.652   6.392  1.2974  0.3470 -2.7811
 8199TIP3   OH246011   6.128   2.492   4.851 -0.6693 -0.1041  0.2048
 8199TIP3    H146012   6.185   2.553   4.805  3.2482 -1.9297  2.1954
 8199TIP3    H246013   6.097   2.432   4.783  1.2984 -0.1094 -0.7408
 8200TIP3   OH246014   3.488   3.868   1.739  0.1253  0.2995 -0.4696
 8200TIP3    H146015   3.548   3.849   1.811  2.9073  2.0195 -2.1300
 8200TIP3    H246016   3.477   3.784   1.695  0.0430 -0.3563  0.7621
 8201TIP3   OH246017   6.527   5.493  11.989  0.4342 -0.1546  0.5786
 8201TIP3    H146018   6.540   5.541  11.907 -1.1059 -0.5475  0.0761
 8201TIP3    H246019   6.514   5.562  12.055 -2.3452  0.2290 -0.2368
 8202TIP3   OH246020   1.331   6.310  12.205 -0.3969  0.5789 -0.3819
 8202TIP3    H146021   1.291   6.227  12.179 -0.5019  0.0711  1.3066
 8202TIP3    H246022   1.398   6.326  12.138  0.3489 -1.4121 -0.1719
 8203TIP3   OH246023   1.271   0.057   3.338  0.3887 -0.2457 -0.3016
 8203TIP3    H146024   1.335   0.128   3.347  0.2891 -0.0216 -1.2509
 8203TIP3    H246025   1.187   0.099   3.354  0.2882 -0.0332 -1.3168
 8204TIP3   OH246026   2.199   5.341  15.520 -0.1689  0.3082  0.3077
 8204TIP3    H146027   2.142   5.284  15.468  0.7649 -1.3317  1.0105
 8204TIP3    H246028   2.248   5.391  15.455 -0.7901  0.1075 -0.3392
 8205TIP3   OH246029   4.849   3.902  11.088  0.3006  0.4255  0.2593
 8205TIP3    H146030   4.906   3.831  11.059 -0.5450 -0.1184 -0.1087
 8205TIP3    H246031   4.871   3.975  11.031 -0.0270 -0.0708 -0.5280
 8206TIP3   OH246032   2.094   4.763  11.574 -0.1014 -0.0496 -0.3204
 8206TIP3    H146033   2.082   4.673  11.603 -1.8483  0.4909  0.7898
 8206TIP3    H246034   2.188   4.771  11.560  0.0958 -2.0199 -0.3902
 8207TIP3   OH246035   6.141   5.844   4.681 -0.4174  0.1798  0.0836
 8207TIP3    H146036   6.095   5.784   4.739  1.1702 -0.5474  0.6695
 8207TIP3    H246037   6.145   5.927   4.729 -0.4555  0.0249  0.3579
 8208TIP3   OH246038   0.759   3.692  12.781 -0.3723  0.1648 -0.5214
 8208TIP3    H146039   0.721   3.709  12.695 -2.4797  0.0645  0.3319
 8208TIP3    H246040   0.688   3.709  12.843 -0.4918 -4.4827  0.9491
 8209TIP3   OH246041   5.168   1.165   2.095  0.2528 -0.3818  0.1806
 8209TIP3    H146042   5.193   1.075   2.115  0.7325 -0.4929 -0.8576
 8209TIP3    H246043   5.237   1.218   2.135  1.1411 -0.5969 -1.0051
 8210TIP3   OH246044   4.706   4.530   1.211 -0.6605 -0.4209  0.0252
 8210TIP3    H146045   4.790   4.485   1.223  0.7105  2.0699  0.3762
 8210TIP3    H246046   4.721   4.588   1.136 -1.0621  2.1260  1.7840
 8211TIP3   OH246047   1.772   4.380   3.060 -0.4484  0.0337 -0.0417
 8211TIP3    H146048   1.733   4.380   2.972 -2.1426 -2.0488  0.6238
 8211TIP3    H246049   1.703   4.346   3.117  1.7789 -2.2302  1.5263
 8212TIP3   OH246050   1.189   2.759   0.056 -0.2465 -0.0029 -0.5059
 8212TIP3    H146051   1.266   2.815   0.071 -0.1201  0.2566 -1.9436
 8212TIP3    H246052   1.151   2.793  -0.026 -1.5963 -0.4635 -0.0876
 8213TIP3   OH246053   1.172   3.234  16.063  0.1373 -0.1541  0.6287
 8213TIP3    H146054   1.108   3.276  16.005 -1.3656 -0.6085  1.8558
 8213TIP3    H246055   1.232   3.305  16.088 -0.5522  0.5650  0.2922
 8214TIP3   OH246056   1.090   4.326  16.568  0.7979  0.0434  0.3026
 8214TIP3    H146057   1.174   4.285  16.545  0.6283 -0.1096 -0.0544
 8214TIP3    H246058   1.028   4.253  16.572  0.8727  0.0411  1.4841
 8215TIP3   OH246059   0.121   1.852   5.881 -0.1254  0.2626 -0.2570
 8215TIP3    H146060   0.216   1.858   5.871  0.3282 -3.1286  0.7814
 8215TIP3    H246061   0.090   1.823   5.795  0.2633 -1.7631  0.2345
 8216TIP3   OH246062   1.627   4.242   0.065 -0.5881  0.0777  0.5657
 8216TIP3    H146063   1.620   4.335   0.090  1.1871  0.4528 -0.2043
 8216TIP3    H246064   1.619   4.195   0.148  0.2631  1.0228  1.2130
 8217TIP3   OH246065   1.757   5.012   4.628 -0.5408  0.3313 -0.5720
 8217TIP3    H146066   1.681   5.008   4.686 -0.3705 -3.6952 -0.3673
 8217TIP3    H246067   1.828   4.974   4.679  0.5708  0.1760 -2.1583
 8218TIP3   OH246068   5.899   2.511  13.314 -0.1868 -0.1083  0.2200
 8218TIP3    H146069   5.872   2.587  13.262 -0.8537 -0.2047  0.4130
 8218TIP3    H246070   5.992   2.526  13.331  0.0258 -0.0285 -0.9091
 8219TIP3   OH246071   6.385   3.152   3.778  0.5549  0.5033 -0.3725
 8219TIP3    H146072   6.480   3.144   3.774  0.5929 -0.2685  1.1069
 8219TIP3    H246073   6.370   3.229   3.834  0.3121  0.7740 -0.8096
 8220TIP3   OH246074   2.314   5.703   3.127  0.1531  0.3944 -0.0925
 8220TIP3    H146075   2.223   5.725   3.106 -0.3577 -2.0488 -0.7711
 8220TIP3    H246076   2.365   5.773   3.085 -1.2010 -0.5931 -3.8471
 8221TIP3   OH246077   1.457   0.293   4.584 -0.1679 -0.3382  0.8912
 8221TIP3    H146078   1.393   0.338   4.639  0.8355  1.1491  0.9056
 8221TIP3    H246079   1.536   0.346   4.592 -0.2207  0.5845 -2.7774
 8222TIP3   OH246080   0.344   0.478   0.650 -0.4216  0.1689  0.1579
 8222TIP3    H146081   0.383   0.392   0.636  2.4796  1.2441  0.8317
 8222TIP3    H246082   0.284   0.465   0.723 -0.3269 -1.3525 -0.0066
 8223TIP3   OH246083   3.503   4.471   6.124 -0.1875  0.2575  0.1406
 8223TIP3    H146084   3.459   4.437   6.202 -1.1376  1.8970  0.3740
 8223TIP3    H246085   3.579   4.413   6.112 -0.7563 -0.8363  1.4845
 8224TIP3   OH246086   4.191   0.022   2.429  0.0283 -0.6221  0.1079
 8224TIP3    H146087   4.175   0.002   2.521  1.1492 -1.7524  0.0870
 8224TIP3    H246088   4.173   0.116   2.421  0.2494 -0.4393  1.5590
 8225TIP3   OH246089   2.211   0.668   3.517  0.8225  0.5112 -0.1970
 8225TIP3    H146090   2.232   0.652   3.609 -1.9918  0.8886  0.6015
 8225TIP3    H246091   2.255   0.751   3.497  2.2318 -0.0375  0.4898
 8226TIP3   OH246092   5.560   0.148  16.863  0.2111 -0.2427  0.3923
 8226TIP3    H146093   5.646   0.190  16.873  0.6927 -0.9702 -0.5441
 8226TIP3    H246094   5.573   0.059  16.896 -0.1875 -0.3413  0.2826
 8227TIP3   OH246095   5.851   3.762   4.134  0.3689  0.2562 -0.1403
 8227TIP3    H146096   5.870   3.754   4.228  0.3826 -0.3612 -0.1889
 8227TIP3    H246097   5.790   3.691   4.116  0.6428  0.1457 -0.6677
 8228TIP3   OH246098   1.942   5.543   3.600  0.5551 -0.1635  0.1850
 8228TIP3    H146099   2.016   5.592   3.637  0.0460  1.4204 -0.7669
 8228TIP3    H246100   1.966   5.527   3.509 -0.3316  0.5651 -0.1980
 8229TIP3   OH246101   1.167   4.268   1.010 -0.1548 -0.1255 -0.5145
 8229TIP3    H146102   1.142   4.279   1.101 -1.1501  1.5225 -0.9443
 8229TIP3    H246103   1.088   4.234   0.967  0.9722 -3.1685 -0.4105
 8230TIP3   OH246104   1.260   1.352   1.900 -0.4276  0.6218  0.8215
 8230TIP3    H146105   1.326   1.319   1.839 -0.9980  1.0912 -0.0832
 8230TIP3    H246106   1.289   1.441   1.920 -0.8651  0.8837  0.2980
 8231TIP3   OH246107   3.167   2.299   5.242  0.1574 -0.1187  0.8139
 8231TIP3    H146108   3.260   2.275   5.241  0.3327  0.4100  2.1315
 8231TIP3    H246109   3.127   2.241   5.178  1.3039 -0.7551  0.6352
 8232TIP3   OH246110   0.917   2.715   4.533  0.3572 -0.7644  0.1013
 8232TIP3    H146111   0.981   2.773   4.576 -0.5434 -2.0235  3.3876
 8232TIP3    H246112   0.835   2.765   4.534  0.4325 -0.6010 -0.7418
 8233TIP3   OH246113   2.335   1.870  16.170 -0.2483  0.3564  0.2852
 8233TIP3    H146114   2.332   1.965  16.172 -0.1816  0.3544  0.6402
 8233TIP3    H246115   2.292   1.846  16.088  3.0784  0.8041 -1.7771
 8234TIP3   OH246116   6.036   1.610   3.473  0.1829  0.0081 -0.9215
 8234TIP3    H146117   6.099   1.552   3.516  1.7644  1.0335 -1.7712
 8234TIP3    H246118   6.067   1.698   3.494 -0.1886  0.5333 -2.4377
 8235TIP3   OH246119   2.685   0.935   6.380 -0.6214 -0.6247 -0.1262
 8235TIP3    H146120   2.725   0.889   6.454  1.2028  0.1951 -0.5337
 8235TIP3    H246121   2.725   1.023   6.382 -2.6749  0.3755 -0.4137
 8236TIP3   OH246122   3.549   0.140  11.529 -0.1346  0.1116  0.4979
 8236TIP3    H146123   3.495   0.174  11.457 -1.7463  1.6234  2.2757
 8236TIP3    H246124   3.618   0.205  11.540 -0.2262  0.1859  0.6490
 8237TIP3   OH246125   5.851   4.960   2.992  0.7036 -0.1929  0.2231
 8237TIP3    H146126   5.860   4.877   3.040  0.5083 -0.0364  0.5281
 8237TIP3    H246127   5.896   5.024   3.046 -0.7837  0.2776  0.9479
 8238TIP3   OH246128   2.012   1.136  17.023 -0.1949 -0.6260 -0.0525
 8238TIP3    H146129   2.022   1.221  16.979  0.1909  0.9369  2.8334
 8238TIP3    H246130   1.921   1.110  17.004 -1.0062  1.4871  0.6437
 8239TIP3   OH246131   0.370   0.842   0.317 -0.1001  0.6064  0.4385
 8239TIP3    H146132   0.380   0.864   0.410  0.1297  0.1102  0.5360
 8239TIP3    H246133   0.301   0.775   0.315 -0.8869  1.4140  0.1319
 8240TIP3   OH246134   3.686   0.609  13.404  0.3162 -0.1207 -0.1995
 8240TIP3    H146135   3.753   0.644  13.345  0.3586 -2.0677 -1.4230
 8240TIP3    H246136   3.736   0.573  13.477  0.3957  0.7247  0.1715
 8241TIP3   OH246137   2.842   1.618   1.403 -0.1076 -0.1641 -0.0754
 8241TIP3    H146138   2.764   1.578   1.440 -0.3767  0.5859  0.1942
 8241TIP3    H246139   2.815   1.649   1.316 -0.1810  0.3097  0.1147
 8242TIP3   OH246140   1.504   4.178   5.696  0.0874 -0.7633 -0.1140
 8242TIP3    H146141   1.510   4.271   5.715 -0.8795 -0.6955 -0.0650
 8242TIP3    H246142   1.555   4.135   5.764  2.1242 -0.1938 -1.2033
 8243TIP3   OH246143   5.530   0.345  14.168 -0.1171 -0.1061  0.0078
 8243TIP3    H146144   5.482   0.293  14.104  0.7444 -1.0058  0.0578
 8243TIP3    H246145   5.615   0.300  14.176 -0.0463  0.2381  1.4558
 8244TIP3   OH246146   2.274   6.429   4.511 -0.4330 -0.0204  0.2745
 8244TIP3    H146147   2.252   6.413   4.420 -0.3902  1.2931  0.0189
 8244TIP3    H246148   2.327   6.509   4.510  0.8419 -0.7972  1.2955
 8245TIP3   OH246149   1.360   2.358  15.673  0.1246 -0.1828  0.4086
 8245TIP3    H146150   1.353   2.373  15.767 -1.7950  1.6456  0.0456
 8245TIP3    H246151   1.293   2.292  15.654  2.2012 -2.5007  0.6028
 8246TIP3   OH246152   1.790   5.317   3.063  0.5438 -0.2760 -0.5460
 8246TIP3    H146153   1.829   5.272   3.137  0.8389  0.6509 -0.1242
 8246TIP3    H246154   1.790   5.410   3.088  2.2985  0.3017 -2.3982
 8247TIP3   OH246155   1.402   1.778  15.016  0.0201 -0.2675 -0.3001
 8247TIP3    H146156   1.387   1.689  15.049  0.9432 -0.0343  0.8140
 8247TIP3    H246157   1.338   1.831  15.063  0.1944 -0.1902 -0.1473
 8248TIP3   OH246158   2.154   4.204  15.754 -0.0300  0.4781 -0.1001
 8248TIP3    H146159   2.227   4.146  15.776 -0.4530 -0.6180 -1.3950
 8248TIP3    H246160   2.195   4.277  15.707  0.2713 -0.0187 -0.6235
 8249TIP3   OH246161   4.708   2.077   5.395  0.3563  0.0238  0.3419
 8249TIP3    H146162   4.777   2.028   5.351  1.0546  0.7447  0.6261
 8249TIP3    H246163   4.662   2.010   5.447  2.1202 -0.1462  1.7651
 8250TIP3   OH246164   6.457   5.706  13.068  0.0907  0.2384  0.0740
 8250TIP3    H146165   6.432   5.636  13.128  2.7720 -0.6796  0.2484
 8250TIP3    H246166   6.436   5.672  12.981 -0.0648 -0.1117  0.2467
 8251TIP3   OH246167   3.730   6.202  16.938  0.4260 -0.2123 -0.2590
 8251TIP3    H146168   3.800   6.266  16.922 -1.7349  2.3853 -0.1531
 8251TIP3    H246169   3.737   6.180  17.031  0.7707  0.4805 -0.1161
 8252TIP3   OH246170   3.642   6.478  13.255  0.2476 -0.0920 -0.3440
 8252TIP3    H146171   3.643   6.455  13.163 -0.7801  0.8326 -0.6141
 8252TIP3    H246172   3.549   6.478  13.279  0.3551  1.4122  0.2068
 8253TIP3   OH246173   2.822   4.038   3.784  0.1662 -0.8498 -0.1870
 8253TIP3    H146174   2.727   4.038   3.796 -0.0346  1.3221 -1.2418
 8253TIP3    H246175   2.858   4.036   3.873 -0.8629 -1.0409  0.2366
 8254TIP3   OH246176   5.584   2.478  15.750  0.3688 -0.1439 -0.0665
 8254TIP3    H146177   5.643   2.481  15.825  0.9460 -2.2582 -0.3658
 8254TIP3    H246178   5.546   2.566  15.746 -0.0144 -0.0712  2.9185
 8255TIP3   OH246179   2.744   2.024  14.881 -0.0052 -0.1638  0.2606
 8255TIP3    H146180   2.702   2.107  14.856 -0.8536 -0.4062  0.8362
 8255TIP3    H246181   2.687   1.957  14.842 -0.0203 -0.4971  0.8583
 8256TIP3   OH246182   3.678   1.380  16.878  0.5600 -0.1607  0.3358
 8256TIP3    H146183   3.645   1.293  16.855  1.2447 -0.0921 -1.0252
 8256TIP3    H246184   3.772   1.367  16.892  0.6126  0.3012  0.4229
 8257TIP3   OH246185   1.616   5.239   5.282  0.3198 -0.1969  0.1667
 8257TIP3    H146186   1.639   5.320   5.326 -1.5927 -0.0970  1.0690
 8257TIP3    H246187   1.667   5.171   5.327  0.9582  0.3230  0.2370
 8258TIP3   OH246188   5.830   5.572  11.347 -0.1015  0.1334 -0.4411
 8258TIP3    H146189   5.839   5.505  11.279 -0.4176 -0.3095 -0.0489
 8258TIP3    H246190   5.918   5.609  11.355  0.3130 -0.9157  0.0348
 8259TIP3   OH246191   1.672   3.707   5.240  0.2698  0.8208 -0.1306
 8259TIP3    H146192   1.749   3.673   5.194  0.2556  0.2934  0.2227
 8259TIP3    H246193   1.708   3.758   5.313  0.3745 -1.9232  1.9149
 8260TIP3   OH246194   1.661   4.449  11.770  0.4104 -0.4419 -0.6267
 8260TIP3    H146195   1.679   4.543  11.775 -1.6572 -0.0897  1.9832
 8260TIP3    H246196   1.604   4.440  11.694 -1.4619  0.8746  0.5485
 8261TIP3   OH246197   2.890   5.404  16.537 -0.5639 -0.1690 -0.3176
 8261TIP3    H146198   2.822   5.340  16.557 -1.9213  1.5742  0.9226
 8261TIP3    H246199   2.963   5.379  16.594 -1.7483  0.3999  1.5445
 8262TIP3   OH246200   1.072   5.164  14.431  0.3286  0.6120  0.2021
 8262TIP3    H146201   1.112   5.079  14.447 -0.4182  0.3854  0.8579
 8262TIP3    H246202   1.113   5.194  14.349  0.9528 -0.1493  0.2276
 8263TIP3   OH246203   3.112   1.281   3.347  0.5315  0.2648  0.2915
 8263TIP3    H146204   3.127   1.375   3.334  1.5366  0.0922  0.1861
 8263TIP3    H246205   3.132   1.241   3.263 -1.0004  0.0576 -0.0067
 8264TIP3   OH246206   6.685   2.067  12.596  0.0299  0.0857  0.2729
 8264TIP3    H146207   6.651   1.978  12.596  0.6961 -0.3223  3.9420
 8264TIP3    H246208   6.677   2.096  12.505 -2.4244 -2.8214 -0.5877
 8265TIP3   OH246209   2.837   4.979  14.672 -0.6783  0.0166  0.2690
 8265TIP3    H146210   2.871   5.056  14.627 -1.7267  0.4845  0.2559
 8265TIP3    H246211   2.811   4.919  14.602 -0.2283 -0.1942  0.2774
 8266TIP3   OH246212   5.129   4.884   5.835  0.3315  0.3522  0.0016
 8266TIP3    H146213   5.062   4.852   5.895 -0.0778 -0.1643 -0.7138
 8266TIP3    H246214   5.167   4.960   5.880  0.9612 -0.7951  1.4995
 8267TIP3   OH246215   1.539   1.499  11.145  0.5543 -0.3656 -0.0387
 8267TIP3    H146216   1.450   1.485  11.176  0.5654  0.4172  0.3726
 8267TIP3    H246217   1.566   1.414  11.109 -0.2784 -0.6576  0.0156
 8268TIP3   OH246218   4.744   0.890  11.518 -0.0152  0.0282  0.8244
 8268TIP3    H146219   4.824   0.924  11.478  1.3415 -3.2604  0.4678
 8268TIP3    H246220   4.772   0.855  11.603 -1.2548 -0.3434  1.1091
 8269TIP3   OH246221   5.354   1.196  11.102  0.0599 -0.2696 -0.0102
 8269TIP3    H146222   5.361   1.264  11.169  1.9125 -1.3596  0.9779
 8269TIP3    H246223   5.412   1.226  11.032  1.5118 -1.1522  0.7694
 8270TIP3   OH246224   6.100   4.702   2.643  0.2807  0.2927  0.4872
 8270TIP3    H146225   6.039   4.631   2.663  0.1785  0.3288  0.3102
 8270TIP3    H246226   6.100   4.756   2.722  1.3596 -0.6060  1.1156
 8271TIP3   OH246227   6.028   4.203  15.930  0.0585 -0.0227  1.3409
 8271TIP3    H146228   6.091   4.264  15.967 -1.3799  2.1510  0.4092
 8271TIP3    H246229   5.943   4.238  15.954 -0.8480 -0.7437 -0.5860
 8272TIP3   OH246230   1.518   2.803   3.777 -0.2091 -0.8179 -0.1499
 8272TIP3    H146231   1.588   2.747   3.744 -0.4327 -0.6810 -0.8688
 8272TIP3    H246232   1.466   2.826   3.700 -0.5575 -0.2319  0.2457
 8273TIP3   OH246233   2.697   5.978  13.398  0.1473  0.4865 -0.1086
 8273TIP3    H146234   2.669   5.921  13.326 -0.0330 -1.2778  1.2678
 8273TIP3    H246235   2.616   6.014  13.432  0.0392 -0.1546  0.3413
 8274TIP3   OH246236   4.555   4.842  17.084 -0.1145 -0.2201 -0.6896
 8274TIP3    H146237   4.517   4.914  17.134  0.7277  0.1311 -0.5296
 8274TIP3    H246238   4.567   4.877  16.995 -0.1075 -0.3062 -0.7238
 8275TIP3   OH246239   6.548   5.258   4.100 -0.3255  0.3036 -0.0435
 8275TIP3    H146240   6.622   5.247   4.041 -0.2996  0.6233 -0.0690
 8275TIP3    H246241   6.570   5.203   4.176 -1.0371 -1.3187 -0.9514
 8276TIP3   OH246242   2.858   6.010  10.613 -0.0880  0.3648  0.3310
 8276TIP3    H146243   2.915   6.075  10.655 -0.6847  0.8112  0.4599
 8276TIP3    H246244   2.847   6.042  10.524 -1.5524  1.2282  0.8000
 8277TIP3   OH246245   6.474   6.633   3.988 -0.9535 -0.0984  0.0405
 8277TIP3    H146246   6.567   6.648   4.003 -1.1699  1.2783  0.1450
 8277TIP3    H246247   6.460   6.542   4.014  0.3251 -0.2750  0.1763
 8278TIP3   OH246248   1.554   3.324   4.812  0.0403  0.5840  0.1320
 8278TIP3    H146249   1.474   3.291   4.773 -0.0802  0.9072  0.1083
 8278TIP3    H246250   1.525   3.384   4.881  0.2637  1.7446 -0.7606
 8279TIP3   OH246251   6.634   6.041  15.396 -0.3261  0.3132  0.0184
 8279TIP3    H146252   6.645   5.948  15.378  0.8703  0.4208  0.1082
 8279TIP3    H246253   6.567   6.071  15.335 -0.4234 -0.5228 -0.2844
 8280TIP3   OH246254   4.711   0.686   6.025  0.0331  0.1190 -0.4197
 8280TIP3    H146255   4.799   0.707   5.994  0.2191 -1.2814 -0.8983
 8280TIP3    H246256   4.722   0.667   6.119 -0.0561  1.5290 -0.0972
 8281TIP3   OH246257   0.113   6.686  11.299 -0.4803 -0.1781 -0.2309
 8281TIP3    H146258   0.056   6.754  11.263 -0.6826 -0.1838  0.0719
 8281TIP3    H246259   0.055   6.612  11.314 -0.3285 -0.2967 -0.2246
 8282TIP3   OH246260   3.137   5.138  17.102  0.1057  0.3210 -0.2517
 8282TIP3    H146261   3.104   5.211  17.049 -1.7242  0.0121  0.4062
 8282TIP3    H246262   3.115   5.060  17.052  1.9692  0.1462 -0.9015
 8283TIP3   OH246263   2.101   0.108   0.349 -0.3592 -0.4947 -0.0781
 8283TIP3    H146264   2.036   0.084   0.415 -0.1428  0.0010  0.3220
 8283TIP3    H246265   2.172   0.044   0.360 -0.8093 -1.0922 -0.5765
 8284TIP3   OH246266   0.178   1.716   5.127 -0.8010  0.1021 -0.2033
 8284TIP3    H146267   0.140   1.691   5.043 -0.0119 -1.4189 -0.1433
 8284TIP3    H246268   0.159   1.810   5.135 -3.3390 -0.2738 -0.7741
 8285TIP3   OH246269   4.249   6.491   2.401  0.0620  0.0635  0.6321
 8285TIP3    H146270   4.212   6.571   2.363  4.4438  1.5719 -1.0359
 8285TIP3    H246271   4.252   6.429   2.329  4.1717  1.3838 -0.5888
 8286TIP3   OH246272   6.440   4.689   4.846 -0.3685 -0.0160 -0.2992
 8286TIP3    H146273   6.432   4.666   4.938 -0.5989  1.4913  0.0837
 8286TIP3    H246274   6.534   4.680   4.827 -0.3069 -0.2274  0.1136
 8287TIP3   OH246275   1.787   0.689  14.070  0.4169 -0.1413  0.3495
 8287TIP3    H146276   1.697   0.710  14.047  0.7787  2.9061  1.2363
 8287TIP3    H246277   1.781   0.645  14.155 -0.3020 -1.9154 -0.5863
 8288TIP3   OH246278   0.958   5.795  17.045  0.2640  0.2387  0.1111
 8288TIP3    H146279   0.926   5.881  17.018  0.0027 -0.4750 -2.0412
 8288TIP3    H246280   0.884   5.755  17.091 -0.0028  0.7157  0.0989
 8289TIP3   OH246281   4.137   0.246  14.286  0.7104  0.4120  0.1785
 8289TIP3    H146282   4.101   0.283  14.367  0.4949  0.3036  0.1328
 8289TIP3    H246283   4.081   0.171  14.267  1.3802 -0.1689  0.4747
 8290TIP3   OH246284   2.531   1.203  16.796  0.0277  0.3949  0.1966
 8290TIP3    H146285   2.454   1.215  16.740  1.8533  1.6563 -2.2555
 8290TIP3    H246286   2.543   1.288  16.838  1.4136  1.0417 -1.3822
 8291TIP3   OH246287   5.845   2.202  12.610  0.5444 -0.2218 -0.3782
 8291TIP3    H146288   5.938   2.179  12.613  0.1297 -2.1458 -0.6224
 8291TIP3    H246289   5.812   2.180  12.697  0.4801  1.3958  0.0369
 8292TIP3   OH246290   5.497   3.373  15.067 -0.1866  0.1724 -0.0525
 8292TIP3    H146291   5.518   3.383  14.974 -1.0962  2.2612 -0.1053
 8292TIP3    H246292   5.401   3.372  15.070 -0.1674 -0.8770  0.8022
 8293TIP3   OH246293   5.475   3.898  11.683 -0.2818  0.5306  0.5780
 8293TIP3    H146294   5.553   3.923  11.732  2.1790 -2.0765 -1.6033
 8293TIP3    H246295   5.444   3.817  11.724  1.5046 -1.3962 -1.5533
 8294TIP3   OH246296   2.972   3.723   2.530 -0.1586  0.2483  0.2725
 8294TIP3    H146297   2.976   3.736   2.436 -0.6121  0.3623  0.2686
 8294TIP3    H246298   2.913   3.648   2.542 -0.0537  0.1957  0.4610
 8295TIP3   OH246299   6.188   5.987  14.607 -0.4698 -0.4068  0.1290
 8295TIP3    H146300   6.248   5.912  14.603 -1.7097 -1.4650  0.7170
 8295TIP3    H246301   6.121   5.967  14.542  1.3230  2.2276 -2.8227
 8296TIP3   OH246302   3.621   3.632  14.811 -0.0857 -0.7722 -0.0391
 8296TIP3    H146303   3.673   3.647  14.732  1.3418  1.5397  1.2414
 8296TIP3    H246304   3.532   3.659  14.787  0.5993  1.1673 -0.5237
 8297TIP3   OH246305   4.788   4.158   2.505 -0.1531  0.1688 -0.2741
 8297TIP3    H146306   4.778   4.072   2.545  1.8730  0.7208  1.6185
 8297TIP3    H246307   4.721   4.160   2.437 -0.2707 -2.8825 -0.4072
 8298TIP3   OH246308   5.445   5.686  13.028  0.2422  0.4096  0.1169
 8298TIP3    H146309   5.402   5.724  13.105 -1.3533  0.4428 -0.7712
 8298TIP3    H246310   5.474   5.762  12.977 -0.7254  0.4177 -0.4286
 8299TIP3   OH246311   3.497   0.996  14.494  0.3068 -0.2185  0.1874
 8299TIP3    H146312   3.514   0.936  14.566 -0.3334  1.8891  2.2235
 8299TIP3    H246313   3.583   1.015  14.457  0.8503 -0.1453  1.4432
 8300TIP3   OH246314   1.265   0.956   5.352  0.3093 -0.4610  0.4100
 8300TIP3    H146315   1.195   1.019   5.367  1.0424  0.1935  1.1690
 8300TIP3    H246316   1.253   0.891   5.421 -0.1798 -0.9268 -0.1051
 8301TIP3   OH246317   3.885   0.466  15.916 -0.6332 -0.1151 -0.3227
 8301TIP3    H146318   3.805   0.426  15.950 -0.5235 -0.3830 -0.3727
 8301TIP3    H246319   3.955   0.429  15.971 -0.6318  0.7971  0.3038
 8302TIP3   OH246320   6.104   3.266   4.791 -0.4662  0.1721 -0.8499
 8302TIP3    H146321   6.076   3.262   4.699 -2.9682 -0.4757 -0.1412
 8302TIP3    H246322   6.131   3.177   4.811  2.2451  0.7656 -1.4890
 8303TIP3   OH246323   6.187   0.999   3.584 -0.3031 -0.6570  0.3312
 8303TIP3    H146324   6.145   0.917   3.559 -0.2472 -0.7086  0.4090
 8303TIP3    H246325   6.132   1.067   3.543  0.2418 -0.7652 -0.5950
 8304TIP3   OH246326   4.568   4.595  12.990 -0.6760  0.0100  0.4742
 8304TIP3    H146327   4.633   4.575  12.922 -1.7473 -1.5995 -0.1528
 8304TIP3    H246328   4.572   4.690  13.000  0.2598  0.1775 -1.0845
 8305TIP3   OH246329   4.505   5.762   0.733 -0.0802  0.3378 -0.3613
 8305TIP3    H146330   4.586   5.711   0.722  0.4142  1.0217  0.0574
 8305TIP3    H246331   4.444   5.723   0.670 -0.2442 -1.8116  1.0359
 8306TIP3   OH246332   3.741   6.558   3.335  0.2483 -0.2710 -0.3013
 8306TIP3    H146333   3.804   6.501   3.291  0.9991 -0.4943  0.9940
 8306TIP3    H246334   3.659   6.509   3.332  0.6032 -0.8873 -0.2757
 8307TIP3   OH246335   1.309   3.010  16.174  0.3986 -0.3211 -0.5731
 8307TIP3    H146336   1.254   3.087  16.166 -0.8356 -1.1034  0.0237
 8307TIP3    H246337   1.388   3.040  16.220 -1.4848  0.0023  2.8007
 8308TIP3   OH246338   3.877   0.238   2.468 -0.1519 -0.0190  0.1299
 8308TIP3    H146339   3.817   0.244   2.543  0.2107 -0.3493  0.4529
 8308TIP3    H246340   3.898   0.145   2.461 -0.1209  0.0227 -0.3363
 8309TIP3   OH246341   3.382   0.486   3.398 -0.2144 -0.1526  0.9350
 8309TIP3    H146342   3.381   0.529   3.483 -0.1618  0.5090  0.6115
 8309TIP3    H246343   3.471   0.451   3.390 -0.1647 -0.0613  1.0796
 8310TIP3   OH246344   0.392   0.441   5.269  0.3750 -0.3932 -0.6703
 8310TIP3    H146345   0.457   0.375   5.291 -0.6431 -1.3007 -0.3481
 8310TIP3    H246346   0.356   0.413   5.185 -1.4531 -1.3612  0.3870
 8311TIP3   OH246347   3.804   4.018   1.575 -0.0311  0.7878 -0.3193
 8311TIP3    H146348   3.866   4.020   1.501  1.2984  1.8404  0.7544
 8311TIP3    H246349   3.808   3.929   1.607  1.4254  0.9755  0.0931
 8312TIP3   OH246350   1.287   5.561  10.850  0.6587 -0.0282 -0.5317
 8312TIP3    H146351   1.332   5.603  10.924  0.4452 -1.9594  0.8065
 8312TIP3    H246352   1.224   5.501  10.892  0.5508 -1.2120 -2.2761
 8313TIP3   OH246353   4.260   3.432  16.062 -0.0821 -0.2239  0.1358
 8313TIP3    H146354   4.315   3.353  16.056 -0.9853 -0.9382  0.9433
 8313TIP3    H246355   4.297   3.492  15.997  2.3530 -0.2353  1.4057
 8314TIP3   OH246356   2.981   4.072  12.032  0.4541  0.4037 -0.0583
 8314TIP3    H146357   2.933   4.154  12.034  0.5903  0.4707  1.1815
 8314TIP3    H246358   2.968   4.039  11.943 -0.9941  0.9391 -0.0729
 8315TIP3   OH246359   1.267   2.819  12.743 -0.8951  0.4185  0.3738
 8315TIP3    H146360   1.325   2.783  12.810 -0.7527  1.2782  0.7291
 8315TIP3    H246361   1.321   2.883  12.697 -1.2508  0.4499 -0.0030
 8316TIP3   OH246362   0.790   0.408   5.103  0.5106 -0.1036  0.0733
 8316TIP3    H146363   0.764   0.484   5.155  0.9072 -0.5950  1.0340
 8316TIP3    H246364   0.718   0.394   5.042  0.3084  0.8622  0.0813
 8317TIP3   OH246365   1.133   4.433  14.284 -0.6879 -0.2192  0.3867
 8317TIP3    H146366   1.186   4.430  14.204  0.1025  1.2018  0.8234
 8317TIP3    H246367   1.051   4.391  14.260  1.2585 -4.4097  0.2364
 8318TIP3   OH246368   1.807   3.435  17.011  0.1702 -0.7172  0.3721
 8318TIP3    H146369   1.886   3.430  16.957 -0.1730 -1.0482 -0.1126
 8318TIP3    H246370   1.831   3.492  17.084  0.9127 -0.9628  0.3293
 8319TIP3   OH246371   5.365   5.595   1.377  0.1505 -0.1158 -0.1764
 8319TIP3    H146372   5.393   5.610   1.467 -1.0329  0.6372  0.0860
 8319TIP3    H246373   5.301   5.525   1.383  0.9436 -0.8976 -0.6033
 8320TIP3   OH246374   3.341   0.175  17.245  0.4844  0.2077  0.8448
 8320TIP3    H146375   3.405   0.124  17.296  0.9568  2.5238  2.7163
 8320TIP3    H246376   3.257   0.134  17.264  0.8844 -0.0936  2.0562
 8321TIP3   OH246377   5.251   3.088  14.413 -0.1329  0.4725  0.1570
 8321TIP3    H146378   5.176   3.043  14.374  0.4430 -1.2905  1.0138
 8321TIP3    H246379   5.253   3.059  14.504  1.7973  0.1624  0.0660
 8322TIP3   OH246380   3.195   2.228  16.669  0.0722  0.1450 -0.4298
 8322TIP3    H146381   3.248   2.155  16.700  2.2303  2.0907  0.8297
 8322TIP3    H246382   3.251   2.273  16.606  0.1011  2.3316  1.0341
 8323TIP3   OH246383   3.614   3.174   1.644  1.0092  0.5582 -0.1247
 8323TIP3    H146384   3.537   3.136   1.687  0.9950 -0.0903 -0.7063
 8323TIP3    H246385   3.667   3.207   1.716 -0.2451  1.8931  0.2516
 8324TIP3   OH246386   5.115   0.190   6.139  0.3141  0.2523  0.3428
 8324TIP3    H146387   5.073   0.266   6.179 -2.8710  0.5110 -2.9189
 8324TIP3    H246388   5.173   0.227   6.072 -0.7343 -0.0517 -0.7908
 8325TIP3   OH246389   3.604   4.772   5.098 -0.7614 -0.3184  0.4612
 8325TIP3    H146390   3.610   4.683   5.065  1.2880  0.3919 -1.3174
 8325TIP3    H246391   3.691   4.809   5.084 -1.0857  1.4898  2.6447
 8326TIP3   OH246392   4.077   5.944   1.832  0.4292 -0.3525  0.2034
 8326TIP3    H146393   4.161   5.989   1.842  0.4525 -0.6339  1.3861
 8326TIP3    H246394   4.100   5.855   1.805  0.4994 -0.4069  0.4493
 8327TIP3   OH246395   2.238   2.800  15.258 -0.3805 -0.2847  0.7456
 8327TIP3    H146396   2.276   2.728  15.309  1.6554  0.4129  0.3029
 8327TIP3    H246397   2.191   2.756  15.188  1.8604 -1.2728 -0.2543
 8328TIP3   OH246398   3.561   5.650  13.847 -0.1681  0.2318 -0.0196
 8328TIP3    H146399   3.561   5.700  13.928  1.0199 -0.7340  0.6219
 8328TIP3    H246400   3.545   5.560  13.874  1.6941 -0.3462 -0.6270
 8329TIP3   OH246401   4.223   2.160  11.876 -0.3151  0.0282 -0.2906
 8329TIP3    H146402   4.247   2.087  11.934 -1.0665  0.4347  0.5498
 8329TIP3    H246403   4.307   2.194  11.844  0.1728  0.3478  1.2538
 8330TIP3   OH246404   3.534   4.551   0.296  0.0622  0.3164 -0.0774
 8330TIP3    H146405   3.616   4.552   0.248 -0.1698  3.5040 -0.6110
 8330TIP3    H246406   3.468   4.574   0.231 -0.4672  3.1060  1.2690
 8331TIP3   OH246407   0.493   6.291   0.486  0.3693 -0.7665 -0.0175
 8331TIP3    H146408   0.577   6.271   0.446  1.3337  0.7593  1.1163
 8331TIP3    H246409   0.476   6.382   0.462 -0.5451 -0.7945  0.4668
 8332TIP3   OH246410   5.382   3.135   0.025 -0.1950  0.0275 -0.1445
 8332TIP3    H146411   5.476   3.131   0.045 -0.2561  0.7848  0.3322
 8332TIP3    H246412   5.361   3.048  -0.009  1.4030  0.8309 -3.5909
 8333TIP3   OH246413   6.631   6.400   3.788 -0.0336  0.4457 -0.0293
 8333TIP3    H146414   6.725   6.415   3.790  0.3583 -1.5845 -0.4933
 8333TIP3    H246415   6.606   6.417   3.697  0.5986 -2.3541 -0.8208
 8334TIP3   OH246416   6.622   4.743   2.010  0.0495 -0.4175  0.0809
 8334TIP3    H146417   6.532   4.760   1.982 -0.2158  2.0757  2.1116
 8334TIP3    H246418   6.614   4.706   2.098  1.0044 -1.5557 -0.2860
 8335TIP3   OH246419   2.487   1.667  17.053 -0.2876  0.2301  0.2117
 8335TIP3    H146420   2.472   1.610  17.128  2.0441  0.9148  1.2976
 8335TIP3    H246421   2.482   1.608  16.977  0.9483 -1.2520  1.2175
 8336TIP3   OH246422   2.396   2.399   4.274 -0.0967  0.5488  0.5316
 8336TIP3    H146423   2.482   2.440   4.277 -0.1625  0.6348  2.6155
 8336TIP3    H246424   2.347   2.440   4.345 -0.8009 -1.7426  1.4444
 8337TIP3   OH246425   2.354   1.094   1.846 -0.3200 -0.3613  0.0493
 8337TIP3    H146426   2.308   1.030   1.901 -0.1888  0.2572  0.9095
 8337TIP3    H246427   2.340   1.178   1.890  0.2700  0.0682 -0.5583
 8338TIP3   OH246428   1.030   5.890   1.133  0.3115 -0.2425 -0.1156
 8338TIP3    H146429   1.089   5.905   1.207  2.0843  0.7134 -1.6559
 8338TIP3    H246430   0.977   5.815   1.160  0.7030  0.2511  2.2224
 8339TIP3   OH246431   0.764   2.524  17.307  0.2157  0.1818  0.2094
 8339TIP3    H146432   0.854   2.538  17.277 -0.0514 -0.5980 -1.0125
 8339TIP3    H246433   0.742   2.436  17.278 -0.7357  0.1197  1.0565
 8340TIP3   OH246434   2.173   4.805   4.825 -0.0884  0.3052 -0.2280
 8340TIP3    H146435   2.210   4.781   4.740 -1.0097 -1.6199 -0.1383
 8340TIP3    H246436   2.173   4.901   4.825 -1.1743  0.3834 -2.9250
 8341TIP3   OH246437   3.165   0.047  13.310 -0.4382 -0.2189  0.4396
 8341TIP3    H146438   3.160   0.127  13.257  1.4650  0.5174  1.2486
 8341TIP3    H246439   3.083   0.045  13.359 -0.8208  0.8719 -0.1210
 8342TIP3   OH246440   5.274   3.300  15.454 -0.2224 -0.5315 -0.4026
 8342TIP3    H146441   5.273   3.395  15.464 -1.3933 -0.6973  1.5639
 8342TIP3    H246442   5.303   3.267  15.539 -2.1257 -1.9662 -0.2319
 8343TIP3   OH246443   5.258   2.996  12.293  0.5276  0.4761 -0.0945
 8343TIP3    H146444   5.347   2.969  12.271  1.6611  1.8651  2.4335
 8343TIP3    H246445   5.248   3.083  12.253  1.1198  1.2416  1.3675
 8344TIP3   OH246446   6.677   3.138   3.175  0.2043 -0.2213 -0.0626
 8344TIP3    H146447   6.584   3.152   3.155  0.1812 -0.9362 -0.5052
 8344TIP3    H246448   6.722   3.156   3.092  0.6416  1.6432  0.5286
 8345TIP3   OH246449   5.403   0.302  15.765  0.0394 -0.1842  0.2432
 8345TIP3    H146450   5.441   0.244  15.832 -0.2807 -0.1199  0.4792
 8345TIP3    H246451   5.477   0.321  15.707  0.3881 -0.0203  0.7299
 8346TIP3   OH246452   4.872   1.380  16.613  0.2176  0.0730  0.0834
 8346TIP3    H146453   4.893   1.381  16.707  1.2138  0.6296 -0.1255
 8346TIP3    H246454   4.905   1.296  16.582  0.3149  0.0856  0.1484
 8347TIP3   OH246455   2.426   2.651   2.241 -0.7368 -0.1072  0.2161
 8347TIP3    H146456   2.403   2.714   2.173 -0.1930  0.4386  0.5224
 8347TIP3    H246457   2.496   2.598   2.203 -0.7934 -0.1443  0.1640
 8348TIP3   OH246458   0.812   1.247   5.794  0.7685 -0.0193 -0.0458
 8348TIP3    H146459   0.887   1.259   5.735  0.4569  1.8427 -0.1313
 8348TIP3    H246460   0.843   1.277   5.879  0.1417  0.7328 -0.0747
 8349TIP3   OH246461   2.379   5.708  13.383  0.5601  0.1803  0.1338
 8349TIP3    H146462   2.337   5.623  13.391  2.9282 -1.3246 -1.9465
 8349TIP3    H246463   2.318   5.762  13.333 -0.3441 -0.7329  0.2326
 8350TIP3   OH246464   2.769   2.049   6.012 -0.8673  0.1229 -0.3786
 8350TIP3    H146465   2.680   2.017   5.998 -0.7566 -0.0408 -0.7012
 8350TIP3    H246466   2.795   2.012   6.097 -1.7962  1.6895  0.6551
 8351TIP3   OH246467   2.254   5.986  13.012  0.0144  0.0701  0.1030
 8351TIP3    H146468   2.228   6.076  13.028 -1.7817 -0.1240 -1.4473
 8351TIP3    H246469   2.264   5.980  12.917  0.8339 -1.1946  0.2434
 8352TIP3   OH246470   1.454   3.486  11.771 -0.4617 -0.1383 -0.5721
 8352TIP3    H146471   1.445   3.400  11.813  1.2329  0.7484  1.8436
 8352TIP3    H246472   1.532   3.477  11.716  1.0959  0.3877  1.4305
 8353TIP3   OH246473   5.566   1.671  12.571  0.5635 -0.0018 -0.0516
 8353TIP3    H146474   5.534   1.756  12.600 -0.2664  0.4523 -2.1140
 8353TIP3    H246475   5.655   1.689  12.541  0.1834  0.2909 -1.0377
 8354TIP3   OH246476   0.054   4.132   3.945  0.2907  0.0779  0.1389
 8354TIP3    H146477   0.112   4.181   4.002  0.0555 -1.3539  1.7107
 8354TIP3    H246478   0.056   4.043   3.980 -0.9621 -0.5500 -1.2594
 8355TIP3   OH246479   3.971   3.236   6.399  0.3962 -0.1270 -0.2700
 8355TIP3    H146480   4.015   3.255   6.482  1.7351  0.6266 -1.1018
 8355TIP3    H246481   3.965   3.322   6.356  1.6288 -0.7630 -1.8103
 8356TIP3   OH246482   4.697   3.200   6.127 -0.0006 -0.2405  0.0006
 8356TIP3    H146483   4.641   3.151   6.187 -0.3801  0.0556 -0.1103
 8356TIP3    H246484   4.699   3.289   6.162  1.4459 -0.5251  0.7301
 8357TIP3   OH246485   1.510   3.792   6.866  0.3006 -0.6624 -0.0760
 8357TIP3    H146486   1.503   3.875   6.818  0.2438 -0.0436  0.9902
 8357TIP3    H246487   1.526   3.818   6.957 -1.1660 -1.7777  0.5266
 8358TIP3   OH246488   0.293   3.869  12.817 -0.4369 -0.3486  0.2012
 8358TIP3    H146489   0.285   3.781  12.853 -0.7416 -0.4068 -0.0054
 8358TIP3    H246490   0.268   3.927  12.890 -2.5322 -0.5131 -0.3209
 8359TIP3   OH246491   0.291   4.681   0.401 -0.0763 -0.2710  0.1832
 8359TIP3    H146492   0.332   4.600   0.431  0.3771 -0.3117 -0.5228
 8359TIP3    H246493   0.205   4.682   0.444  0.3724 -0.5487  1.1048
 8360TIP3   OH246494   5.945   3.901   2.867 -0.2565  0.1424 -0.0984
 8360TIP3    H146495   5.856   3.928   2.891  0.0357  0.0516  1.1445
 8360TIP3    H246496   5.972   3.963   2.800 -0.8686  0.8126  0.2633
 8361TIP3   OH246497   4.754   1.730   0.094  0.2678  0.0360  0.2513
 8361TIP3    H146498   4.813   1.667   0.134  0.2881 -0.6056 -0.7453
 8361TIP3    H246499   4.751   1.803   0.156  1.5232 -0.2369  0.6619
 8362TIP3   OH246500   3.286   4.189   1.449 -0.0938 -0.3045  0.1112
 8362TIP3    H146501   3.277   4.258   1.383 -0.5629 -0.0085  0.4815
 8362TIP3    H246502   3.376   4.158   1.438  0.1129  0.3371 -0.0865
 8363TIP3   OH246503   5.477   0.985  14.522 -0.3084 -0.1634 -0.6023
 8363TIP3    H146504   5.405   0.949  14.573  0.8071 -0.1273  1.0960
 8363TIP3    H246505   5.511   0.911  14.472 -1.0451 -0.3477 -0.8305
 8364TIP3   OH246506   3.202   1.166   1.291 -0.1340  0.1377  0.5428
 8364TIP3    H146507   3.247   1.097   1.338  1.8607  0.1263 -1.2358
 8364TIP3    H246508   3.184   1.233   1.357  1.6508 -0.3146  1.5449
 8365TIP3   OH246509   0.947   0.747  15.347 -0.2555  0.6865 -0.2694
 8365TIP3    H146510   0.918   0.823  15.297 -0.1312  0.1616 -1.1651
 8365TIP3    H246511   0.867   0.711  15.384 -0.4548  0.6479 -0.7249
 8366TIP3   OH246512   5.252   4.233   5.270 -0.1034  0.3805 -0.1000
 8366TIP3    H146513   5.319   4.186   5.219 -0.8841  2.0199 -2.8886
 8366TIP3    H246514   5.223   4.302   5.211 -2.2945  1.4535  2.0922
 8367TIP3   OH246515   0.068   5.442   0.219 -0.2865  0.4253 -0.6445
 8367TIP3    H146516   0.028   5.468   0.136 -0.2439  1.0950 -0.4565
 8367TIP3    H246517   0.109   5.357   0.200 -1.8884 -0.3583 -0.8129
 8368TIP3   OH246518   6.123   6.443  10.580  0.5669  0.3484 -0.0149
 8368TIP3    H146519   6.173   6.465  10.502 -0.2612  0.2746 -0.5884
 8368TIP3    H246520   6.135   6.517  10.638 -1.9905  2.4014 -1.8208
 8369TIP3   OH246521   4.296   5.554   0.101 -0.0573  0.3454  0.0759
 8369TIP3    H146522   4.331   5.595   0.022 -0.6165  0.8163  0.0597
 8369TIP3    H246523   4.318   5.461   0.093  0.4560  0.5008 -0.3172
 8370TIP3   OH246524   0.804   2.110   5.058  0.2196  0.1418  0.1265
 8370TIP3    H146525   0.716   2.080   5.080 -0.9167  3.5565  0.9656
 8370TIP3    H246526   0.825   2.173   5.128  2.1010  1.5497 -1.5989
 8371TIP3   OH246527   0.171   0.697   5.113 -0.1839 -0.1986  0.6959
 8371TIP3    H146528   0.250   0.644   5.097  0.2135 -0.0477  2.0825
 8371TIP3    H246529   0.203   0.787   5.116 -0.7583  0.0984 -0.9312
 8372TIP3   OH246530   6.088   4.762   3.677 -0.0907 -0.0912 -0.0822
 8372TIP3    H146531   6.038   4.827   3.727 -0.4722  0.6969 -1.4474
 8372TIP3    H246532   6.055   4.769   3.588  3.0002  1.0965 -1.2956
 8373TIP3   OH246533   6.185   5.445  12.599 -0.3397 -0.7581 -0.0681
 8373TIP3    H146534   6.168   5.524  12.651  1.0011 -0.8937  0.6276
 8373TIP3    H246535   6.101   5.400  12.595 -0.5812 -0.5543  1.7009
 8374TIP3   OH246536   6.269   2.080  14.443  0.3399  0.2540 -0.0946
 8374TIP3    H146537   6.175   2.081  14.427  0.4827 -1.1177 -1.2616
 8374TIP3    H246538   6.308   2.075  14.356  1.4821  0.4065  0.3863
 8375TIP3   OH246539   6.380   1.428   5.721 -0.5264  0.2661 -0.2207
 8375TIP3    H146540   6.411   1.429   5.812 -0.4199 -0.2777 -0.2478
 8375TIP3    H246541   6.293   1.468   5.725 -1.7940 -2.3553  0.6117
 8376TIP3   OH246542   2.233   0.862  13.258 -0.2199  0.3182  0.1562
 8376TIP3    H146543   2.169   0.867  13.186 -1.3065  2.9916  1.1759
 8376TIP3    H246544   2.256   0.769  13.263 -1.9999 -0.3349 -1.9938
 8377TIP3   OH246545   0.053   1.406   5.279  0.5006 -0.6899 -0.6649
 8377TIP3    H146546   0.100   1.341   5.226 -2.0353 -3.2669 -0.0437
 8377TIP3    H246547  -0.036   1.371   5.284 -0.7093  2.3223  0.7469
 8378TIP3   OH246548   2.889   6.367   1.565  0.2414  0.0822 -0.3710
 8378TIP3    H146549   2.847   6.417   1.635 -1.2118  0.7626 -1.6913
 8378TIP3    H246550   2.974   6.411   1.553 -0.8483  2.0993 -1.2571
 8379TIP3   OH246551   1.599   2.670   5.912  0.3917 -0.0305  0.2684
 8379TIP3    H146552   1.625   2.707   5.828  0.0161  0.1984  0.2513
 8379TIP3    H246553   1.615   2.740   5.976  0.4795 -0.1332  0.3616
 8380TIP3   OH246554   3.157   3.763  11.291  0.2616 -0.0486  0.2058
 8380TIP3    H146555   3.228   3.700  11.307 -2.2062 -2.9763  0.4052
 8380TIP3    H246556   3.143   3.759  11.196 -0.9051 -1.0046  0.4049
 8381TIP3   OH246557   1.714   5.352  13.854  0.7757  0.1539 -0.1441
 8381TIP3    H146558   1.685   5.439  13.825 -1.7641 -0.4260  0.4154
 8381TIP3    H246559   1.788   5.331  13.797  0.1892  1.8543 -1.6265
 8382TIP3   OH246560   5.830   3.635   0.121  0.2480  0.0757  0.1369
 8382TIP3    H146561   5.873   3.603   0.042 -1.7291 -1.0355 -0.5462
 8382TIP3    H246562   5.766   3.568   0.143 -3.6951  3.0684 -0.9981
 8383TIP3   OH246563   1.011   5.180   1.044  0.0576 -0.3761 -0.2441
 8383TIP3    H146564   0.968   5.128   0.975 -1.1004 -0.1208  0.2521
 8383TIP3    H246565   1.087   5.129   1.069  0.1554 -0.7741 -1.2862
 8384TIP3   OH246566   3.670   3.984   4.376  0.0096  0.6818  0.1688
 8384TIP3    H146567   3.651   3.897   4.410 -0.4789  0.4647 -0.6249
 8384TIP3    H246568   3.587   4.014   4.338 -0.4574  2.4316  2.3611
 8385TIP3   OH246569   1.954   4.094  11.359  0.7729 -0.5702  0.2530
 8385TIP3    H146570   2.040   4.072  11.325  0.0197 -0.5456 -1.8088
 8385TIP3    H246571   1.892   4.049  11.301 -0.6178 -1.3315  2.2021
 8386TIP3   OH246572   3.081   3.882  16.385 -0.5546  0.3188 -0.0009
 8386TIP3    H146573   3.148   3.950  16.386 -0.9558  0.7389 -0.6146
 8386TIP3    H246574   3.006   3.923  16.342 -0.9540 -0.3751  0.0112
 8387TIP3   OH246575   0.277   2.148  12.976  0.4753  0.1861  0.1945
 8387TIP3    H146576   0.311   2.202  12.905  0.6419 -0.7242 -0.4336
 8387TIP3    H246577   0.324   2.065  12.968 -0.2719 -0.3012  0.7056
 8388TIP3   OH246578   5.107   2.699   2.380  0.0405  0.8941 -0.4830
 8388TIP3    H146579   5.054   2.729   2.306  1.2748 -1.8242 -2.6424
 8388TIP3    H246580   5.089   2.605   2.386  0.2476  0.9551  2.5427
 8389TIP3   OH246581   6.682   4.896  12.384  0.1318 -0.4080 -0.4353
 8389TIP3    H146582   6.656   4.946  12.306 -1.0374  0.9262  0.7351
 8389TIP3    H246583   6.601   4.890  12.435  0.8070 -1.5370  0.5243
 8390TIP3   OH246584   2.373   4.082   3.521  0.4898 -0.4443  0.0370
 8390TIP3    H146585   2.389   4.156   3.579  1.0043  1.2262 -2.1262
 8390TIP3    H246586   2.351   4.010   3.580  0.5438  1.2535  2.2537
 8391TIP3   OH246587   1.706   1.006   6.422  0.1848  0.4633 -0.2235
 8391TIP3    H146588   1.734   1.042   6.506  0.5446 -0.2004 -0.0507
 8391TIP3    H246589   1.625   0.959   6.443  0.8666 -0.6430 -0.0238
 8392TIP3   OH246590   6.652   1.612  14.884  0.4913 -0.7437 -0.3578
 8392TIP3    H146591   6.699   1.533  14.859 -0.7188 -2.0365  1.2701
 8392TIP3    H246592   6.639   1.604  14.978  1.4592  2.0466  0.1199
 8393TIP3   OH246593   3.385   4.482   3.646 -0.2603  0.1543 -0.4798
 8393TIP3    H146594   3.441   4.418   3.690 -1.5648  0.3318  1.5893
 8393TIP3    H246595   3.399   4.467   3.553  0.5717 -2.1660 -0.0349
 8394TIP3   OH246596   2.615   6.650  10.631  0.1209 -0.2856 -0.0686
 8394TIP3    H146597   2.557   6.630  10.704 -0.9963  0.5285 -0.7065
 8394TIP3    H246598   2.602   6.578  10.569 -0.7106  0.2035 -0.4859
 8395TIP3   OH246599   0.690   6.399   5.612 -0.3114  0.1070 -0.3580
 8395TIP3    H146600   0.676   6.367   5.523 -0.6826 -0.1889 -0.1983
 8395TIP3    H246601   0.753   6.338   5.650 -2.3624 -1.5715  0.5325
 8396TIP3   OH246602   4.873   0.653  15.352 -0.0503  0.4704 -0.2217
 8396TIP3    H146603   4.783   0.623  15.367  0.5652 -1.5494 -0.2270
 8396TIP3    H246604   4.902   0.686  15.437  0.2886 -2.0901  0.7506
 8397TIP3   OH246605   3.952   6.478   3.942 -0.1368 -0.1088 -0.3074
 8397TIP3    H146606   3.960   6.431   4.026  1.0838  1.4877  0.5189
 8397TIP3    H246607   3.913   6.414   3.883 -0.1492 -1.5960  1.2308
 8398TIP3   OH246608   3.079   0.537  15.917  0.4679 -0.4045  0.4677
 8398TIP3    H146609   3.121   0.603  15.861 -0.3413  0.6435  1.0406
 8398TIP3    H246610   3.079   0.457  15.865  0.7284  0.2665 -0.5947
 8399TIP3   OH246611   4.898   3.124   6.333  0.0385  0.4886 -0.2504
 8399TIP3    H146612   4.865   3.041   6.296  0.5935 -0.0545  0.4534
 8399TIP3    H246613   4.884   3.188   6.263 -1.8386  0.1429 -0.2568
 8400TIP3   OH246614   5.273   2.323   2.517  0.1223 -0.4722 -0.2549
 8400TIP3    H146615   5.200   2.384   2.524 -0.0102 -0.4275 -1.6403
 8400TIP3    H246616   5.249   2.266   2.444  1.4068 -0.5401 -0.6501
 8401TIP3   OH246617   4.393   3.874  16.774  0.1513  0.1788  0.6081
 8401TIP3    H146618   4.409   3.891  16.682  1.9079 -2.3370  0.3354
 8401TIP3    H246619   4.474   3.902  16.818  0.9523 -2.1619  0.7821
 8402TIP3   OH246620   1.387   2.247   5.861  0.4235  0.6420 -0.0098
 8402TIP3    H146621   1.381   2.332   5.904 -1.7066  0.1235  0.8458
 8402TIP3    H246622   1.415   2.187   5.930 -1.5978  0.0600  0.3576
 8403TIP3   OH246623   0.433   6.519  12.065 -0.6259 -0.1404  0.3004
 8403TIP3    H146624   0.376   6.593  12.087  0.1460  0.5583 -0.0006
 8403TIP3    H246625   0.515   6.538  12.110  0.0657 -0.0747 -0.9497
 8404TIP3   OH246626   3.194   5.169  11.264  0.0432 -0.5752  0.0127
 8404TIP3    H146627   3.219   5.177  11.172 -1.1177  1.5882 -0.1739
 8404TIP3    H246628   3.242   5.092  11.295  2.6116  0.2059 -1.6817
 8405TIP3   OH246629   6.151   5.302  16.461  0.0988  0.6764 -0.3958
 8405TIP3    H146630   6.073   5.283  16.512 -1.1041 -0.8955 -2.6898
 8405TIP3    H246631   6.224   5.276  16.518 -1.1168  0.1279  0.9593
 8406TIP3   OH246632   1.850   3.299   2.039  0.7793  0.1836  0.2247
 8406TIP3    H146633   1.783   3.337   2.096  0.5015  1.5211 -0.9420
 8406TIP3    H246634   1.802   3.269   1.962  1.2536 -0.9075  0.3274
 8407TIP3   OH246635   1.816   0.914   1.197  0.6321  0.2660 -1.2081
 8407TIP3    H146636   1.861   0.841   1.154  2.2079  2.0526 -2.7668
 8407TIP3    H246637   1.745   0.938   1.137 -0.6993 -0.7293 -0.0942
 8408TIP3   OH246638   1.473   2.903  11.492  0.0320  0.9725 -0.0768
 8408TIP3    H146639   1.391   2.860  11.515  0.7361  0.4814  1.6572
 8408TIP3    H246640   1.454   2.948  11.409 -2.4049  2.1187  0.9966
 8409TIP3   OH246641   3.292   2.079   4.937  0.0261  0.4803  0.7158
 8409TIP3    H146642   3.239   2.033   5.002 -0.2447 -2.2127 -1.2410
 8409TIP3    H246643   3.380   2.080   4.974 -0.2509 -0.3703  1.4366
 8410TIP3   OH246644   4.649   3.612  14.390  0.3916  0.3987  0.2226
 8410TIP3    H146645   4.597   3.687  14.365  0.9130  0.5094 -0.5605
 8410TIP3    H246646   4.661   3.621  14.485 -1.5214  0.0266  0.5263
 8411TIP3   OH246647   2.565   5.381  12.854 -0.8654  0.0881 -0.0567
 8411TIP3    H146648   2.574   5.312  12.789  0.1272  0.3701 -0.2327
 8411TIP3    H246649   2.655   5.397  12.884 -1.0268  1.5797 -0.3208
 8412TIP3   OH246650   5.522   5.681  13.646  0.4800  0.4052  0.8180
 8412TIP3    H146651   5.555   5.641  13.565  2.5899  0.0049  1.7973
 8412TIP3    H246652   5.530   5.611  13.712 -2.5643  0.2524  1.1485
 8413TIP3   OH246653   5.040   1.825  14.032 -0.1096  0.1736 -0.6510
 8413TIP3    H146654   5.132   1.827  14.059  0.6053  0.5259 -2.8383
 8413TIP3    H246655   4.999   1.760  14.088  0.8090  1.8982  2.2252
 8414TIP3   OH246656   6.381   2.441  16.244 -0.0437  0.0416 -0.1019
 8414TIP3    H146657   6.407   2.413  16.156  0.9049 -1.4291  0.6062
 8414TIP3    H246658   6.326   2.518  16.229 -0.3655 -0.4986 -2.0116
 8415TIP3   OH246659   6.373   3.632   5.432  0.1565  0.1776  0.4653
 8415TIP3    H146660   6.344   3.711   5.386 -1.9771 -0.0322  1.3310
 8415TIP3    H246661   6.398   3.662   5.519  1.0862  0.1240  0.2273
 8416TIP3   OH246662   6.000   1.714   6.444 -0.2015  0.4030 -0.0258
 8416TIP3    H146663   5.940   1.740   6.514 -2.8365 -0.3484 -1.8770
 8416TIP3    H246664   5.997   1.619   6.444  3.0947  0.1491  1.4470
 8417TIP3   OH246665   3.577   2.842  13.767  0.4443  0.1736  0.0979
 8417TIP3    H146666   3.661   2.886  13.780  0.1393  0.3168  1.8907
 8417TIP3    H246667   3.514   2.913  13.758  0.2558  0.0973  0.7625
 8418TIP3   OH246668   4.468   6.373  16.658 -0.4248 -0.8522 -0.0550
 8418TIP3    H146669   4.384   6.339  16.624  0.2119 -1.8271 -0.7161
 8418TIP3    H246670   4.443   6.424  16.735 -1.8688  0.8965 -1.5783
 8419TIP3   OH246671   5.889   2.295   2.687  0.1388  0.6137  0.3449
 8419TIP3    H146672   5.966   2.342   2.655  0.9778  1.6760  3.6371
 8419TIP3    H246673   5.922   2.236   2.754 -1.5963 -1.0812 -0.1845
 8420TIP3   OH246674   3.099   5.445   2.747  0.7191 -1.0884 -0.0149
 8420TIP3    H146675   3.056   5.520   2.708 -0.4744 -1.1432  1.1280
 8420TIP3    H246676   3.038   5.372   2.733  0.3952 -1.1751  1.5838
 8421TIP3   OH246677   1.303   1.117   0.159  0.1841  0.0842  0.8487
 8421TIP3    H146678   1.353   1.110   0.240 -0.6533 -3.1311  1.1901
 8421TIP3    H246679   1.212   1.110   0.186 -0.1363 -0.4825 -0.3192
 8422TIP3   OH246680   6.549   4.239   5.772 -0.4394 -0.2134  0.1713
 8422TIP3    H146681   6.556   4.227   5.678  1.1824  2.7279 -0.2096
 8422TIP3    H246682   6.596   4.164   5.809  0.0434 -0.7302 -1.4099
 8423TIP3   OH246683   1.326   2.804   2.890 -0.0784  0.4125 -0.3685
 8423TIP3    H146684   1.338   2.712   2.867  1.8580  0.4248  0.3763
 8423TIP3    H246685   1.232   2.819   2.880 -0.3463 -1.4442 -1.1743
 8424TIP3   OH246686   4.841   1.827  11.751  0.0453  0.2251 -0.3535
 8424TIP3    H146687   4.783   1.760  11.788  1.3302 -0.4571  0.4655
 8424TIP3    H246688   4.878   1.786  11.673  1.3452 -0.3073  0.5115
 8425TIP3   OH246689   5.080   6.558  13.320  0.2613  0.6274  0.0413
 8425TIP3    H146690   5.125   6.576  13.402  1.3664 -0.0381 -0.3820
 8425TIP3    H246691   5.052   6.467  13.327  1.6369  0.0935 -0.8390
 8426TIP3   OH246692   1.175   2.420  13.136  0.2861  0.4021 -0.1357
 8426TIP3    H146693   1.114   2.346  13.139  0.0702  0.4942 -1.4123
 8426TIP3    H246694   1.212   2.426  13.224  1.6898 -2.3832 -0.4310
 8427TIP3   OH246695   0.461   3.902  11.371  0.1983 -0.2017 -0.0454
 8427TIP3    H146696   0.533   3.892  11.308 -1.3711 -0.3162 -1.9072
 8427TIP3    H246697   0.468   3.993  11.400  0.0562  0.3566 -1.6215
 8428TIP3   OH246698   2.408   3.657  12.577 -0.1608 -0.1983 -0.7045
 8428TIP3    H146699   2.404   3.572  12.533 -1.3954 -0.3700 -0.2975
 8428TIP3    H246700   2.346   3.712  12.529 -0.0214  0.2175 -0.4156
 8429TIP3   OH246701   1.306   5.352  11.972 -0.2138 -0.7748 -0.4930
 8429TIP3    H146702   1.332   5.260  11.963 -1.6428 -1.1232 -1.5389
 8429TIP3    H246703   1.330   5.376  12.061 -0.5203 -2.4153  0.0664
 8430TIP3   OH246704   5.932   4.713   3.164 -0.7133 -0.4221 -0.4054
 8430TIP3    H146705   5.914   4.633   3.214 -1.8312 -0.4290 -0.8073
 8430TIP3    H246706   6.023   4.734   3.186  0.1399 -2.6368 -1.4300
 8431TIP3   OH246707   3.151   0.611   0.372 -0.4117  0.2194 -0.1254
 8431TIP3    H146708   3.204   0.599   0.451  0.2644  1.2673 -0.4067
 8431TIP3    H246709   3.155   0.705   0.354 -0.3797 -0.0233 -1.5202
 8432TIP3   OH246710   6.163   4.827  11.650  0.6345 -0.3894 -0.5504
 8432TIP3    H146711   6.088   4.875  11.686 -0.2852 -1.9394 -0.2597
 8432TIP3    H246712   6.176   4.864  11.563 -1.2650 -0.8294 -1.0798
 8433TIP3   OH246713   3.432   2.674  14.427  0.1321  0.5651  0.6151
 8433TIP3    H146714   3.398   2.613  14.493 -0.5601  1.1479  0.8097
 8433TIP3    H246715   3.493   2.730  14.475  1.8897 -0.8533  0.1475
 8434TIP3   OH246716   3.033   4.323   3.233  0.3164  0.0123  0.3085
 8434TIP3    H146717   2.950   4.364   3.208  0.4133  0.0000 -0.0233
 8434TIP3    H246718   3.021   4.302   3.326  0.5829  1.5622  0.7135
 8435TIP3   OH246719   5.686   1.398   3.726  0.0372  0.5593 -0.1430
 8435TIP3    H146720   5.640   1.447   3.795  0.0150  1.4247 -0.7489
 8435TIP3    H246721   5.620   1.336   3.693 -0.1149  0.5081  0.2502
 8436TIP3   OH246722   4.391   6.667   0.177  0.1085 -0.3710  0.1417
 8436TIP3    H146723   4.424   6.609   0.108 -0.1443 -0.7704  0.3493
 8436TIP3    H246724   4.422   6.754   0.152  0.3594 -0.5704 -0.2618
 8437TIP3   OH246725   5.104   2.711   3.162 -0.1307  0.4039  0.2122
 8437TIP3    H146726   5.150   2.667   3.234  0.6013  0.6718 -0.0898
 8437TIP3    H246727   5.022   2.661   3.153  1.4603 -2.1622 -1.3721
 8438TIP3   OH246728   3.232   5.085   0.078  0.4808  0.5107  0.2547
 8438TIP3    H146729   3.196   5.015   0.134  0.4079  0.0165 -0.3944
 8438TIP3    H246730   3.326   5.071   0.080  0.5655  1.1071  1.0411
 8439TIP3   OH246731   5.458   0.103  15.984 -0.0870 -0.3442 -0.2178
 8439TIP3    H146732   5.441   0.049  15.907 -0.2385 -1.4169  0.5501
 8439TIP3    H246733   5.536   0.065  16.024  2.5599  2.7204 -2.0495
 8440TIP3   OH246734   2.862   1.158   5.989 -0.1241 -0.1418 -0.0057
 8440TIP3    H146735   2.827   1.094   5.927  2.3141  0.5107 -2.2611
 8440TIP3    H246736   2.796   1.228   5.991 -0.0995  0.0347 -2.3207
 8441TIP3   OH246737   5.310   0.940   5.785 -0.3077 -0.1212 -0.8420
 8441TIP3    H146738   5.223   0.907   5.765 -0.3792 -0.5850  0.1499
 8441TIP3    H246739   5.367   0.904   5.717 -0.9863  0.7561 -1.9071
 8442TIP3   OH246740   0.276   6.058   4.056 -0.1024 -0.1896 -0.4900
 8442TIP3    H146741   0.255   6.136   4.005 -1.7602  0.3688  0.9197
 8442TIP3    H246742   0.206   5.996   4.034  0.0403 -0.5070 -0.0642
 8443TIP3   OH246743   4.413   2.783   5.168  0.7802  0.1222  0.1180
 8443TIP3    H146744   4.417   2.795   5.263  0.8805  1.3363 -0.0161
 8443TIP3    H246745   4.382   2.694   5.156  1.5952 -0.3410  1.2897
 8444TIP3   OH246746   1.210   6.155   3.883  0.4457  0.2373  0.5597
 8444TIP3    H146747   1.160   6.092   3.831  1.5953 -0.6312  0.4616
 8444TIP3    H246748   1.174   6.148   3.971  2.5127 -2.9146  1.3294
 8445TIP3   OH246749   6.008   2.382  14.439  0.0568  0.4218 -0.4934
 8445TIP3    H146750   5.923   2.425  14.438  0.2491  0.8086 -0.6457
 8445TIP3    H246751   5.998   2.308  14.379 -0.2134  0.3818 -0.4004
 8446TIP3   OH246752   0.623   4.546   1.580  0.2583  0.4230 -0.6325
 8446TIP3    H146753   0.617   4.580   1.491 -0.1250  1.3214 -0.2732
 8446TIP3    H246754   0.557   4.594   1.630 -0.5584 -1.1173 -0.1703
 8447TIP3   OH246755   2.956   6.438  16.167  0.1297 -0.5827 -0.1556
 8447TIP3    H146756   2.940   6.454  16.074  1.2105  4.2655  0.2351
 8447TIP3    H246757   3.025   6.371  16.168  0.8414 -0.0122 -2.9253
 8448TIP3   OH246758   4.124   2.180  16.682  0.7700 -0.5243  0.2979
 8448TIP3    H146759   4.118   2.165  16.587  0.1188  0.0840  0.2376
 8448TIP3    H246760   4.141   2.274  16.691  1.5844 -0.7069  0.7695
 8449TIP3   OH246761   5.772   3.344  14.942 -0.3405 -0.5914  0.3569
 8449TIP3    H146762   5.767   3.379  15.031  1.4522  1.3316 -0.2046
 8449TIP3    H246763   5.704   3.391  14.893 -1.1153 -1.4193  0.6181
 8450TIP3   OH246764   1.845   0.453   4.464  0.5915  0.0234 -0.6590
 8450TIP3    H146765   1.877   0.530   4.510 -1.8140  1.4011 -1.1390
 8450TIP3    H246766   1.774   0.419   4.519 -0.8865  0.4356 -2.2219
 8451TIP3   OH246767   0.896   0.774  14.423  0.0984 -0.5739 -0.1837
 8451TIP3    H146768   0.874   0.695  14.473  1.0614  0.6732  2.3838
 8451TIP3    H246769   0.952   0.742  14.353 -1.7316 -2.4763 -0.9121
 8452TIP3   OH246770   0.626   1.439  16.223  0.8841 -0.1438 -0.3598
 8452TIP3    H146771   0.684   1.437  16.147  0.7893  0.8412 -0.4760
 8452TIP3    H246772   0.540   1.462  16.187  0.6315 -0.6036 -0.0669
 8453TIP3   OH246773   3.406   5.229   3.010  0.1300 -0.6551  0.0045
 8453TIP3    H146774   3.432   5.321   2.999 -0.2970 -0.6328 -0.9103
 8453TIP3    H246775   3.473   5.180   2.962  0.9107 -0.9089  1.3038
 8454TIP3   OH246776   1.686   1.708   3.829  0.4245  0.1129  0.3565
 8454TIP3    H146777   1.625   1.674   3.764  0.2849 -0.9736  1.0415
 8454TIP3    H246778   1.633   1.769   3.881 -0.8531 -2.7094  2.5749
 8455TIP3   OH246779   6.287   2.169  15.737 -0.4998  0.7077 -0.4989
 8455TIP3    H146780   6.263   2.261  15.748 -0.6554  0.4713  1.4959
 8455TIP3    H246781   6.321   2.142  15.823  1.6047 -0.5209 -1.6156
 8456TIP3   OH246782   6.419   1.986   3.902 -0.5051 -0.4202  0.1307
 8456TIP3    H146783   6.346   2.018   3.954  0.6473  1.4296  0.6704
 8456TIP3    H246784   6.421   1.891   3.919 -1.4991 -0.1836  1.7037
 8457TIP3   OH246785   4.637   2.099   1.188  0.0971  0.1355 -0.4950
 8457TIP3    H146786   4.688   2.026   1.223  1.7783  0.8398 -1.3524
 8457TIP3    H246787   4.660   2.173   1.244  0.5253  0.6011 -1.2658
 8458TIP3   OH246788   1.406   1.334  14.637 -0.1316 -0.2015 -0.1250
 8458TIP3    H146789   1.368   1.296  14.716  1.0734 -0.3608  0.4088
 8458TIP3    H246790   1.491   1.367  14.666 -0.6157  1.8279 -0.8429
 8459TIP3   OH246791   1.892   2.794  13.871 -0.0055  0.0452  0.4779
 8459TIP3    H146792   1.883   2.889  13.863  0.1149  0.0755  0.6977
 8459TIP3    H246793   1.985   2.780  13.888  0.5100 -0.2912 -2.1662
 8460TIP3   OH246794   0.447   0.766   2.114 -0.6501  0.0527  0.0298
 8460TIP3    H146795   0.521   0.716   2.148 -0.5921  0.4431  0.4862
 8460TIP3    H246796   0.461   0.855   2.146 -1.2822  0.1469  0.0611
 8461TIP3   OH246797   4.589   4.983  16.821 -0.1891  0.2676 -0.2283
 8461TIP3    H146798   4.566   5.065  16.778  1.3878  0.2843 -1.1224
 8461TIP3    H246799   4.684   4.974  16.808 -0.1591 -1.2213  0.6786
 8462TIP3   OH246800   6.553   6.169   1.600 -0.1490  0.4024 -0.2299
 8462TIP3    H146801   6.507   6.114   1.664  1.5819 -2.1126 -1.0047
 8462TIP3    H246802   6.498   6.164   1.521  2.1080 -4.3965 -1.8800
 8463TIP3   OH246803   2.294   2.208   0.087  0.2607  0.7591  0.0872
 8463TIP3    H146804   2.390   2.211   0.090  0.4478 -1.1907 -1.5904
 8463TIP3    H246805   2.269   2.289   0.042  1.1313  1.2152  0.4024
 8464TIP3   OH246806   1.322   5.594   3.898  0.1083  0.4366  0.3566
 8464TIP3    H146807   1.280   5.509   3.887  0.3550  0.6173 -2.7212
 8464TIP3    H246808   1.408   5.584   3.858  0.1922  2.0905  0.0556
 8465TIP3   OH246809   0.202   5.863   0.109  0.2257 -0.2561  0.3865
 8465TIP3    H146810   0.213   5.775   0.145  0.0046  0.3840  2.1218
 8465TIP3    H246811   0.171   5.915   0.183  2.2300  1.7215 -0.0705
 8466TIP3   OH246812   1.053   5.071   4.043 -0.1858  0.5121  0.2876
 8466TIP3    H146813   1.133   5.060   4.095 -0.4757 -1.8413  0.3445
 8466TIP3    H246814   1.081   5.058   3.953 -0.1154  2.1730  0.0367
 8467TIP3   OH246815   1.980   5.071   5.833  0.5288  0.3912  0.6957
 8467TIP3    H146816   1.918   5.038   5.898  0.7981 -0.4903  0.5075
 8467TIP3    H246817   1.933   5.066   5.750  0.4270  0.8793  0.7186
 8468TIP3   OH246818   3.383   4.837  12.794  0.0577 -0.0430 -0.4443
 8468TIP3    H146819   3.337   4.905  12.744 -0.2455 -0.0930 -0.2338
 8468TIP3    H246820   3.345   4.842  12.882  0.1334 -0.3897 -0.3910
 8469TIP3   OH246821   0.940   2.066  14.116  0.1436  0.2778 -0.0463
 8469TIP3    H146822   0.965   2.057  14.208  0.8062 -1.1960 -0.3519
 8469TIP3    H246823   0.898   1.983  14.094 -0.7099  0.9122 -0.8733
 8470TIP3   OH246824   6.035   0.211   4.686  0.4441 -0.3099 -0.0107
 8470TIP3    H146825   6.104   0.276   4.703 -0.3114  0.8334 -1.1582
 8470TIP3    H246826   5.962   0.238   4.742  0.6491 -1.0893  0.6518
 8471TIP3   OH246827   5.222   2.561  15.503  0.1669 -0.6238  0.1379
 8471TIP3    H146828   5.317   2.554  15.499  0.4609  1.6802  1.3612
 8471TIP3    H246829   5.204   2.655  15.495 -1.9854 -0.9558  0.2826
 8472TIP3   OH246830   6.561   1.869  14.268  0.2313 -0.2678  0.4027
 8472TIP3    H146831   6.638   1.876  14.324  0.9954 -0.5048 -0.5877
 8472TIP3    H246832   6.501   1.811  14.317  1.3807 -1.4694  0.4378
 8473TIP3   OH246833   2.079   0.233  11.568  0.4382 -0.3479  0.4846
 8473TIP3    H146834   2.027   0.171  11.517 -0.4567 -0.4077  1.4258
 8473TIP3    H246835   2.160   0.186  11.588  1.1037 -0.0683 -1.4442
 8474TIP3   OH246836   5.596   1.679   4.187  0.4451  0.1121  0.3274
 8474TIP3    H146837   5.559   1.714   4.106 -0.2204  0.8288  0.9400
 8474TIP3    H246838   5.659   1.613   4.157  0.6856  0.8249 -0.7939
 8475TIP3   OH246839   0.785   3.629   3.186  0.1307 -0.4099 -0.1898
 8475TIP3    H146840   0.766   3.622   3.092  0.8864  0.9742 -0.4752
 8475TIP3    H246841   0.701   3.614   3.229 -0.3565 -0.4158 -1.1166
 8476TIP3   OH246842   5.341   5.005   1.294 -0.4408  0.1342  0.2453
 8476TIP3    H146843   5.404   4.992   1.223 -1.3932 -0.3765 -0.5344
 8476TIP3    H246844   5.291   5.082   1.268 -0.9303 -0.1757  0.2490
 8477TIP3   OH246845   0.237   3.854  14.135  0.2651 -0.0475 -0.1932
 8477TIP3    H146846   0.177   3.901  14.193 -3.0038 -2.8990 -0.8776
 8477TIP3    H246847   0.281   3.791  14.193 -0.9374 -1.0237 -0.2857
 8478TIP3   OH246848   4.782   0.218   3.279 -0.0078  0.1390 -0.2881
 8478TIP3    H146849   4.760   0.306   3.248  0.0766  0.5444  0.7514
 8478TIP3    H246850   4.863   0.195   3.234  0.7443  1.1926  0.4824
 8479TIP3   OH246851   3.483   2.572   0.217  0.2589 -0.2867  0.7751
 8479TIP3    H146852   3.475   2.489   0.264  1.8394 -1.2034 -0.4982
 8479TIP3    H246853   3.523   2.632   0.281  0.0114 -0.7798  1.3981
 8480TIP3   OH246854   2.400   2.933   6.685 -0.0154  0.2033  0.2485
 8480TIP3    H146855   2.335   2.994   6.721 -2.3725 -1.1448 -1.4524
 8480TIP3    H246856   2.348   2.870   6.635  2.2793 -3.0688  1.6313
 8481TIP3   OH246857   1.055   5.230   1.847  0.0774 -0.8618  0.1443
 8481TIP3    H146858   1.055   5.247   1.941  0.9144  1.0320 -0.1552
 8481TIP3    H246859   1.063   5.135   1.840 -0.0595 -1.0451  1.9783
 8482TIP3   OH246860   0.565   2.944   2.784  0.1373  0.2753  0.6854
 8482TIP3    H146861   0.647   2.902   2.758  0.5152 -0.0516  2.2712
 8482TIP3    H246862   0.515   2.951   2.703  1.6214  0.2594 -0.2765
 8483TIP3   OH246863   6.677   4.089   6.153 -0.1218 -0.0887 -0.6805
 8483TIP3    H146864   6.606   4.035   6.187 -0.7644  0.5294 -1.0141
 8483TIP3    H246865   6.641   4.178   6.149  1.1379  0.5243  0.5167
 8484TIP3   OH246866   4.480   4.738  16.678 -0.3758 -0.4071 -0.3552
 8484TIP3    H146867   4.496   4.820  16.725  0.6954 -1.4709  1.2442
 8484TIP3    H246868   4.385   4.725  16.684 -0.1413 -1.7412  3.9108
 8485TIP3   OH246869   5.766   5.781   2.231  0.1112 -0.3614  0.1595
 8485TIP3    H146870   5.768   5.759   2.324  1.2253  0.0614  0.2486
 8485TIP3    H246871   5.791   5.873   2.227 -0.6617 -0.1648 -0.5163
 8486TIP3   OH246872   2.212   5.013  13.405 -0.0529 -0.0858 -0.0307
 8486TIP3    H146873   2.182   4.959  13.478 -1.1807 -1.4852 -1.4438
 8486TIP3    H246874   2.307   5.002  13.403  0.5116  2.6456  3.1807
 8487TIP3   OH246875   3.570   1.819  13.046 -0.7627 -0.0625  0.7708
 8487TIP3    H146876   3.537   1.789  13.131 -0.6415  0.7374  1.1093
 8487TIP3    H246877   3.626   1.748  13.016  1.4733  0.7513  2.6701
 8488TIP3   OH246878   2.105   3.273   2.166 -0.7076  0.1438  0.8729
 8488TIP3    H146879   2.041   3.284   2.096 -0.4404  0.8913  0.7376
 8488TIP3    H246880   2.081   3.338   2.232  0.1908  0.7902  0.5972
 8489TIP3   OH246881   5.583   1.524   5.330 -0.2284 -0.4435  0.7359
 8489TIP3    H146882   5.645   1.559   5.395  0.0053 -0.7431  0.6794
 8489TIP3    H246883   5.600   1.430   5.330  0.3270 -0.3638 -0.3209
 8490TIP3   OH246884   6.578   2.173  16.987 -0.3186  0.1305  0.6469
 8490TIP3    H146885   6.626   2.255  16.983 -0.9865  0.5463  1.0133
 8490TIP3    H246886   6.491   2.195  16.952 -0.8613 -0.1467  1.7982
 8491TIP3   OH246887   0.846   5.459  13.399  0.4203  0.0903 -0.4537
 8491TIP3    H146888   0.832   5.383  13.456  0.2157  0.9694  0.7154
 8491TIP3    H246889   0.851   5.422  13.311  1.1664 -1.3739  0.1517
 8492TIP3   OH246890   0.116   1.250  11.939 -0.2311  0.2349 -0.4663
 8492TIP3    H146891   0.108   1.164  11.899  1.9765  0.2514 -1.0746
 8492TIP3    H246892   0.186   1.241  12.003 -1.8979  0.9063  1.5517
 8493TIP3   OH246893   3.482   6.272  12.229  0.4884 -0.4521 -0.0137
 8493TIP3    H146894   3.422   6.262  12.155  0.4173  2.0656 -0.3634
 8493TIP3    H246895   3.425   6.294  12.303  0.7382 -1.1000  0.3842
 8494TIP3   OH246896   1.339   0.427   4.792 -0.0506 -0.1583 -0.1808
 8494TIP3    H146897   1.309   0.518   4.781 -0.5438 -0.2865  0.0770
 8494TIP3    H246898   1.274   0.388   4.851  1.6769  0.1190  2.0470
 8495TIP3   OH246899   4.930   3.538  14.621 -0.2349  0.3028  0.0482
 8495TIP3    H146900   4.849   3.585  14.637 -0.2072 -0.0254  1.3112
 8495TIP3    H246901   4.998   3.605  14.623 -0.5327  0.7220 -2.0005
 8496TIP3   OH246902   3.815   4.760  16.150  0.0809 -0.7533 -0.1607
 8496TIP3    H146903   3.779   4.847  16.138 -0.6903 -0.5303  3.0305
 8496TIP3    H246904   3.898   4.774  16.197  0.2486 -1.7062 -0.1471
 8497TIP3   OH246905   3.421   0.697   1.785  0.4194 -0.3118  0.8922
 8497TIP3    H146906   3.455   0.619   1.742 -0.4405 -0.0590 -0.2846
 8497TIP3    H246907   3.332   0.672   1.812  0.5819 -0.1324  1.6201
 8498TIP3   OH246908   3.975   4.227  15.006 -0.2020 -0.1762  0.4054
 8498TIP3    H146909   3.943   4.164  15.071  0.4164  0.8457  1.7444
 8498TIP3    H246910   4.012   4.298  15.058  0.7148  0.4749 -1.0824
 8499TIP3   OH246911   0.573   6.490   1.999 -0.2934  0.1753 -0.3833
 8499TIP3    H146912   0.483   6.498   1.967 -0.4783  0.0040  0.0793
 8499TIP3    H246913   0.589   6.572   2.046 -0.6123 -0.2681  0.5126
 8500TIP3   OH246914   1.505   3.594  12.765  0.5563  0.1752 -0.0769
 8500TIP3    H146915   1.540   3.596  12.676  1.5015  0.3926  0.2928
 8500TIP3    H246916   1.560   3.532  12.812 -1.4520 -1.8638 -0.2344
 8501TIP3   OH246917   6.720   3.348  11.098  0.2754 -0.3167  0.4914
 8501TIP3    H146918   6.636   3.366  11.055  0.7417  0.1962 -0.2309
 8501TIP3    H246919   6.785   3.367  11.031  1.0609  0.9916  1.5868
 8502TIP3   OH246920   4.682   1.442   3.072  0.7945 -0.5043  0.2723
 8502TIP3    H146921   4.595   1.405   3.055  0.9692 -0.8709  0.1526
 8502TIP3    H246922   4.693   1.433   3.167 -0.5201  2.2964  0.8026
 8503TIP3   OH246923   6.098   0.417  17.168 -0.1611 -0.5494 -0.1782
 8503TIP3    H146924   6.023   0.472  17.191  1.0976  1.4953 -0.6769
 8503TIP3    H246925   6.173   0.462  17.208  1.1543 -0.8926 -2.1268
 8504TIP3   OH246926   2.428   0.906   4.738  0.0008  0.6756 -0.1757
 8504TIP3    H146927   2.457   0.994   4.760  1.4958  0.4450 -1.1030
 8504TIP3    H246928   2.345   0.918   4.693 -0.5434  1.4893  1.0026
 8505TIP3   OH246929   2.877   4.683  11.565 -0.1833  0.5281  0.6911
 8505TIP3    H146930   2.901   4.774  11.551  0.5490  0.4585  1.3633
 8505TIP3    H246931   2.911   4.637  11.489  0.6526  0.6374  0.9799
 8506TIP3   OH246932   6.203   0.500  11.564 -0.3034  0.3079  0.2899
 8506TIP3    H146933   6.129   0.552  11.596 -0.1558  0.9158 -0.3472
 8506TIP3    H246934   6.255   0.481  11.642 -0.1623  1.4249  0.4835
 8507TIP3   OH246935   0.333   5.719  14.890 -0.5364  0.5670  0.0638
 8507TIP3    H146936   0.259   5.724  14.829  0.1979 -0.2355 -0.9199
 8507TIP3    H246937   0.408   5.749  14.839 -0.0474  0.6928  0.8396
 8508TIP3   OH246938   2.218   3.004   3.548  0.0554  0.1127  0.1739
 8508TIP3    H146939   2.240   3.011   3.455 -1.0138 -0.0927 -0.1188
 8508TIP3    H246940   2.123   3.020   3.550 -0.4929 -2.7090  0.8491
 8509TIP3   OH246941   4.483   4.537   1.378 -0.2255 -0.1193 -1.4955
 8509TIP3    H146942   4.565   4.546   1.330  1.3427  1.1459  1.1873
 8509TIP3    H246943   4.464   4.626   1.410  0.1457 -1.1568  2.0505
 8510TIP3   OH246944   1.166   0.464   5.202  0.0546 -0.6216  0.0608
 8510TIP3    H146945   1.106   0.456   5.276  0.9450  0.8385  1.0078
 8510TIP3    H246946   1.129   0.534   5.148  0.7777  0.1736  0.5658
 8511TIP3   OH246947   6.115   4.966   0.292 -0.1307  0.6521 -0.0607
 8511TIP3    H146948   6.084   5.054   0.314  1.6509  0.9897  1.3126
 8511TIP3    H246949   6.108   4.917   0.374  1.2122  0.2508 -0.1628
 8512TIP3   OH246950   5.774   0.872   3.036 -0.3151  0.1079  0.1363
 8512TIP3    H146951   5.702   0.837   3.088 -0.5121  0.8769  0.4073
 8512TIP3    H246952   5.747   0.859   2.945  0.5655 -2.3421  0.1667
 8513TIP3   OH246953   6.142   1.761   3.867  0.5846 -0.0919  0.2011
 8513TIP3    H146954   6.102   1.675   3.882 -0.5785  0.2748 -0.6822
 8513TIP3    H246955   6.226   1.742   3.826  0.6636 -0.8212  0.6791
 8514TIP3   OH246956   4.593   5.539   5.159 -0.0306 -0.0134  0.2848
 8514TIP3    H146957   4.601   5.633   5.174  0.5992 -0.1255  0.6818
 8514TIP3    H246958   4.673   5.502   5.197 -1.2959 -0.9459  2.2158
 8515TIP3   OH246959   2.677   3.902  12.343  0.1847 -0.1656  0.0501
 8515TIP3    H146960   2.630   3.982  12.367 -0.2489 -0.5794  0.6163
 8515TIP3    H246961   2.765   3.932  12.319 -0.2943  0.5931 -0.8036
 8516TIP3   OH246962   4.864   4.680   0.153 -0.4060  0.2673 -0.3625
 8516TIP3    H146963   4.898   4.763   0.119 -1.2432  0.0717 -1.7732
 8516TIP3    H246964   4.775   4.674   0.117 -0.4731 -1.1023 -0.0432
 8517TIP3   OH246965   3.166   5.502   1.457  0.0783  0.6957 -0.6909
 8517TIP3    H146966   3.132   5.418   1.428  0.3106  0.5024 -0.4017
 8517TIP3    H246967   3.163   5.498   1.553  0.0145  1.0460 -0.6757
 8518TIP3   OH246968   1.655   4.861   1.677  0.1850  0.1753 -0.1370
 8518TIP3    H146969   1.635   4.786   1.621  4.2239 -1.0211 -0.3103
 8518TIP3    H246970   1.656   4.936   1.617 -3.4887  0.5254 -0.0258
 8519TIP3   OH246971   3.489   4.944  13.546  0.4747 -0.1596 -0.4890
 8519TIP3    H146972   3.541   4.874  13.585  0.1463 -0.9436 -1.4165
 8519TIP3    H246973   3.404   4.903  13.528 -0.6837  1.2308  1.4695
 8520TIP3   OH246974   5.777   6.218   0.684  0.4485  0.4221 -0.5902
 8520TIP3    H146975   5.763   6.312   0.672 -2.2809  0.1693  0.0161
 8520TIP3    H246976   5.806   6.209   0.774  1.2578  0.7133 -0.8164
 8521TIP3   OH246977   5.176   1.902   3.455  0.3463  0.1334 -0.0975
 8521TIP3    H146978   5.128   1.891   3.373  0.3143  0.5246 -0.1299
 8521TIP3    H246979   5.119   1.862   3.521  1.5240 -2.5972 -0.6032
 8522TIP3   OH246980   2.568   3.554   4.517  0.1992 -0.5439  0.9513
 8522TIP3    H146981   2.655   3.548   4.557  0.9185 -2.0015 -0.7243
 8522TIP3    H246982   2.545   3.464   4.494 -0.1106  0.1613 -1.9290
 8523TIP3   OH246983   4.238   6.523  17.318 -1.2547 -0.2408 -0.5502
 8523TIP3    H146984   4.211   6.610  17.289 -1.4721 -0.7394 -1.8815
 8523TIP3    H246985   4.329   6.535  17.346 -1.4385  0.5152 -0.2403
 8524TIP3   OH246986   6.721   5.863  12.949  0.5294  0.6627 -0.4415
 8524TIP3    H146987   6.761   5.898  13.028  1.4841  0.2409 -0.7292
 8524TIP3    H246988   6.636   5.830  12.978  1.9994 -2.1882  1.0713
 8525TIP3   OH246989   6.719   1.089   2.395  0.4502 -0.1711 -0.4028
 8525TIP3    H146990   6.730   1.184   2.404 -0.6710 -0.1119  0.4600
 8525TIP3    H246991   6.650   1.079   2.330  1.1776 -0.4384 -1.1639
 8526TIP3   OH246992   3.407   5.086  12.250 -0.5437  0.0301  0.2873
 8526TIP3    H146993   3.397   5.181  12.252  1.1985  0.2965 -1.3175
 8526TIP3    H246994   3.502   5.071  12.248 -0.7735 -1.6393 -1.6089
 8527TIP3   OH246995   6.696   3.735   3.196  0.4084 -0.3095  0.0271
 8527TIP3    H146996   6.640   3.812   3.180  1.3350  0.9069  2.1959
 8527TIP3    H246997   6.654   3.664   3.147 -1.0180  1.3553 -1.2778
 8528TIP3   OH246998   6.713   3.359  15.913 -0.1473 -0.0411 -0.1705
 8528TIP3    H146999   6.776   3.296  15.879  1.6367  0.4105  2.0444
 8528TIP3    H247000   6.697   3.331  16.003 -1.4470  1.1158  0.0013
 8529TIP3   OH247001   5.572   4.076  17.238 -0.3973  0.7424  0.4673
 8529TIP3    H147002   5.534   3.993  17.265  1.1113 -0.0237  0.3703
 8529TIP3    H247003   5.524   4.143  17.287 -1.4580 -0.1978  0.7413
 8530TIP3   OH247004   1.244   1.396  10.739 -0.0193  0.2713  0.4989
 8530TIP3    H147005   1.175   1.433  10.683  0.7862  1.0407 -0.0169
 8530TIP3    H247006   1.263   1.465  10.802 -0.4088 -0.3182  1.2729
 8531TIP3   OH247007   5.682   4.821   2.268 -0.3810 -0.3505  0.9477
 8531TIP3    H147008   5.682   4.818   2.364 -0.0821 -0.6534  0.9393
 8531TIP3    H247009   5.774   4.821   2.244 -0.4406 -1.7641  0.6158
 8532TIP3   OH247010   4.757   4.737   5.066 -0.0427 -0.4498 -0.4478
 8532TIP3    H147011   4.734   4.674   4.997 -0.7081 -0.9035  0.1731
 8532TIP3    H247012   4.673   4.760   5.105  0.4250 -1.1717  1.0412
 8533TIP3   OH247013   3.281   4.360  13.478  0.1021  0.6021 -0.3771
 8533TIP3    H147014   3.225   4.333  13.405 -0.3771 -1.2788  0.6221
 8533TIP3    H247015   3.223   4.412  13.534  0.0499  0.7586 -0.5750
 8534TIP3   OH247016   5.646   2.158  14.815 -0.0307  0.1764 -0.0732
 8534TIP3    H147017   5.710   2.114  14.759  1.2369  0.5005  1.0793
 8534TIP3    H247018   5.693   2.232  14.852 -2.1866  2.8155 -2.1940
 8535TIP3   OH247019   0.198   4.990  13.856  0.1154 -0.1640  0.1267
 8535TIP3    H147020   0.200   5.029  13.944 -0.3792 -1.2392  0.6399
 8535TIP3    H247021   0.162   4.902  13.870 -0.9973  0.0212 -1.2987
 8536TIP3   OH247022   2.258   6.278   3.381 -0.1484  0.4884  0.4898
 8536TIP3    H147023   2.324   6.289   3.449  0.5523  1.4281 -0.3209
 8536TIP3    H247024   2.302   6.303   3.300 -0.3420 -2.4494 -0.6563
 8537TIP3   OH247025   6.439   0.118  14.963  0.1928 -0.0647  0.1881
 8537TIP3    H147026   6.533   0.125  14.949  0.6245 -2.9780  1.0357
 8537TIP3    H247027   6.400   0.174  14.896  2.4864  3.1063  1.2903
 8538TIP3   OH247028   2.210   5.460  15.882 -0.3015  0.1132 -0.2181
 8538TIP3    H147029   2.180   5.545  15.914 -2.1081 -0.7095  0.4270
 8538TIP3    H247030   2.164   5.448  15.798 -0.0475 -0.2142 -0.3133
 8539TIP3   OH247031   5.255   5.548   6.191  0.3077  0.0779 -0.5597
 8539TIP3    H147032   5.283   5.611   6.257  1.6976 -0.2616 -0.7927
 8539TIP3    H247033   5.218   5.476   6.241 -0.2732  0.5906 -0.2421
 8540TIP3   OH247034   5.167   4.356  12.177  0.0100  0.6877  0.2204
 8540TIP3    H147035   5.124   4.271  12.185  0.1907  0.6660  1.0366
 8540TIP3    H247036   5.219   4.365  12.256  0.7342  1.1567 -0.2899
 8541TIP3   OH247037   0.090   0.542  12.631  0.3325 -0.0401 -0.3222
 8541TIP3    H147038   0.057   0.515  12.546  1.1739 -0.0420 -0.6577
 8541TIP3    H247039   0.175   0.500  12.639  0.4194  0.2435  0.3687
 8542TIP3   OH247040   6.424   0.613  15.114 -0.3310  0.1655 -0.5247
 8542TIP3    H147041   6.502   0.665  15.092 -1.1855  1.3771 -0.8253
 8542TIP3    H247042   6.393   0.581  15.029  0.2082 -0.8993 -0.3375
 8543TIP3   OH247043   1.080   1.341  11.218  0.3830  0.1379  0.4087
 8543TIP3    H147044   1.152   1.403  11.233 -0.0348  0.4784  1.0489
 8543TIP3    H247045   1.020   1.387  11.159  0.7703 -0.2175 -0.2754
 8544TIP3   OH247046   0.629   2.591   6.151  0.0977  0.0803 -0.1328
 8544TIP3    H147047   0.585   2.545   6.222  0.7298  1.6441  1.3366
 8544TIP3    H247048   0.557   2.624   6.096 -0.3706 -2.2929 -1.0588
 8545TIP3   OH247049   6.548   0.343  12.015 -0.2371  0.1911  0.2342
 8545TIP3    H147050   6.627   0.308  11.974 -1.2859 -0.4071 -1.3436
 8545TIP3    H247051   6.540   0.431  11.980 -0.4641  0.1289  0.1306
 8546TIP3   OH247052   5.798   4.735   6.066  0.5339  0.5537 -0.3143
 8546TIP3    H147053   5.786   4.757   5.973 -1.3315  0.2119 -0.2022
 8546TIP3    H247054   5.822   4.643   6.066 -0.9960  0.1173 -0.4474
 8547TIP3   OH247055   5.652   5.201   0.263  0.5364  0.4321 -0.8244
 8547TIP3    H147056   5.646   5.213   0.358 -0.0617 -2.3470 -0.4031
 8547TIP3    H247057   5.737   5.239   0.239  1.6485 -0.5835  1.2075
 8548TIP3   OH247058   3.028   0.800   6.126 -0.0724  0.7470  0.3039
 8548TIP3    H147059   3.015   0.807   6.220 -0.7432  1.3758  0.1740
 8548TIP3    H247060   3.060   0.886   6.100 -0.8959  0.9136 -0.1922
 8549TIP3   OH247061   1.876   0.482  14.763  0.4841  0.3362 -0.2082
 8549TIP3    H147062   1.914   0.416  14.822 -1.6240  0.2752  1.1943
 8549TIP3    H247063   1.868   0.560  14.818  0.6983  1.0314 -1.1440
 8550TIP3   OH247064   6.500   5.282  15.294 -0.5806 -0.7752 -0.7387
 8550TIP3    H147065   6.558   5.213  15.327  1.0585  0.1650 -1.5237
 8550TIP3    H247066   6.541   5.310  15.212  0.1671  2.7227  0.6798
 8551TIP3   OH247067   2.949   4.777   1.116  0.0818  0.5153  0.4059
 8551TIP3    H147068   2.863   4.736   1.115  1.1513 -1.9152 -1.1350
 8551TIP3    H247069   2.964   4.805   1.026  1.8477 -1.4150  0.0226
 8552TIP3   OH247070   5.006   1.330   4.460  0.0846  0.3571 -0.5583
 8552TIP3    H147071   5.033   1.422   4.454  0.4922  0.2475 -0.4445
 8552TIP3    H247072   4.971   1.321   4.549  1.1194  0.1278 -0.1552
 8553TIP3   OH247073   4.221   2.124   5.248  0.4600  0.1593 -1.2535
 8553TIP3    H147074   4.314   2.138   5.267  1.1214 -1.6598 -2.8101
 8553TIP3    H247075   4.185   2.212   5.237  1.7923  0.9313  0.1675
 8554TIP3   OH247076   4.274   4.720   0.548 -0.2166 -0.2436 -0.1256
 8554TIP3    H147077   4.318   4.757   0.625 -2.0764  0.6843  0.5389
 8554TIP3    H247078   4.268   4.793   0.487  1.2655 -0.9823 -1.2240
 8555TIP3   OH247079   2.428   4.178   3.805 -0.3210 -0.1047  0.3326
 8555TIP3    H147080   2.434   4.266   3.766  1.1677 -0.9707 -1.5596
 8555TIP3    H247081   2.343   4.177   3.849 -1.8789  1.2173 -2.3963
 8556TIP3   OH247082   2.064   5.342  11.005 -0.0531  0.4449 -0.2607
 8556TIP3    H147083   2.086   5.258  10.964 -0.1481  0.2408  0.0974
 8556TIP3    H247084   1.968   5.340  11.013  0.0392 -0.0246  1.0069
 8557TIP3   OH247085   3.067   6.066   3.208 -0.2376 -0.2045 -0.2019
 8557TIP3    H147086   3.064   5.970   3.212 -0.2840 -0.1589  2.1370
 8557TIP3    H247087   3.156   6.085   3.180  0.3112 -0.9568  0.9292
 8558TIP3   OH247088   1.178   5.656  12.161 -0.1114 -0.0711  0.4118
 8558TIP3    H147089   1.091   5.618  12.148 -0.2137  0.3398 -0.1520
 8558TIP3    H247090   1.206   5.623  12.246 -0.3021 -1.1991  0.0598
 8559TIP3   OH247091   0.571   0.178  12.017  0.0511 -0.1331  0.3596
 8559TIP3    H147092   0.567   0.271  11.997 -0.5347 -0.0420  0.8761
 8559TIP3    H247093   0.599   0.174  12.108  1.2744 -0.5065 -0.0111
 8560TIP3   OH247094   5.436   0.733  10.433  0.7089  0.4422 -0.4532
 8560TIP3    H147095   5.459   0.648  10.471 -0.9866 -0.3742 -1.1440
 8560TIP3    H247096   5.519   0.779  10.425  1.6603 -1.1198  0.0178
 8561TIP3   OH247097   1.709   5.332  16.908 -0.5014  0.2695 -0.3785
 8561TIP3    H147098   1.630   5.307  16.859 -0.5546  1.4291 -0.9242
 8561TIP3    H247099   1.707   5.277  16.986 -1.6346 -0.0150 -0.5805
 8562TIP3   OH247100   2.367   4.210  13.152 -0.1849  0.1740  0.0981
 8562TIP3    H147101   2.297   4.187  13.091 -0.3254 -1.5210  0.8557
 8562TIP3    H247102   2.328   4.278  13.208 -0.9005 -0.0804 -0.0775
 8563TIP3   OH247103   2.170   0.413  13.484  0.3253 -0.0620 -0.0740
 8563TIP3    H147104   2.241   0.380  13.539 -0.8677 -2.0187  0.3742
 8563TIP3    H247105   2.201   0.399  13.394  0.1783 -1.7655  0.1099
 8564TIP3   OH247106   5.618   2.875  15.336 -0.3039  0.3699 -0.0608
 8564TIP3    H147107   5.623   2.796  15.283  0.0162 -0.9412  1.8107
 8564TIP3    H247108   5.701   2.878  15.383 -1.9069 -0.7666  3.2205
 8565TIP3   OH247109   0.229   6.517   0.632 -0.0430  0.0366 -0.1310
 8565TIP3    H147110   0.310   6.500   0.680  0.4782 -0.4095 -1.1582
 8565TIP3    H247111   0.204   6.606   0.658  0.1047 -0.2708  1.1238
 8566TIP3   OH247112   5.084   3.741  15.384  0.0417 -0.1952 -0.2106
 8566TIP3    H147113   5.076   3.742  15.480  1.7921  0.4301 -0.0320
 8566TIP3    H247114   5.031   3.667  15.356 -0.1810 -0.6314  1.2762
 8567TIP3   OH247115   1.300   3.320  14.651  0.1930 -0.0449 -0.3324
 8567TIP3    H147116   1.220   3.354  14.691 -0.5171 -1.2800 -0.6544
 8567TIP3    H247117   1.322   3.383  14.583 -1.7900 -0.7874 -1.7415
 8568TIP3   OH247118   0.294   0.085  13.011 -0.3743  0.5263  0.1276
 8568TIP3    H147119   0.279   0.170  12.971  0.3686  0.7259  0.2548
 8568TIP3    H247120   0.372   0.051  12.968  0.3404  0.6715  1.2509
 8569TIP3   OH247121   5.391   6.671  16.994 -0.0080 -0.6974 -0.2615
 8569TIP3    H147122   5.433   6.589  16.969  2.8735  0.9920 -1.4383
 8569TIP3    H247123   5.442   6.701  17.070 -0.1470  0.6425 -0.6845
 8570TIP3   OH247124   6.110   0.573  15.748  0.3113 -0.1042 -0.2128
 8570TIP3    H147125   6.129   0.663  15.724 -2.1505  0.3260 -0.8860
 8570TIP3    H247126   6.195   0.534  15.766  1.4109  2.5705  0.9727
 8571TIP3   OH247127   0.112   5.936  16.683 -0.1975  0.4367  0.2305
 8571TIP3    H147128   0.094   6.014  16.736 -1.2059 -0.2032  0.8632
 8571TIP3    H247129   0.126   5.866  16.747 -2.4830 -0.5937 -0.2561
 8572TIP3   OH247130   4.059   4.162  11.573 -0.4738  0.1047 -0.6196
 8572TIP3    H147131   4.123   4.234  11.567 -0.2431  0.0832  1.1847
 8572TIP3    H247132   4.082   4.105  11.499 -0.5759  1.7837 -2.0122
 8573TIP3   OH247133   5.357   4.809  13.324  0.2091 -0.3429  0.5248
 8573TIP3    H147134   5.321   4.812  13.235 -1.6788  0.6881  1.2761
 8573TIP3    H247135   5.351   4.718  13.350 -0.2530 -0.4679 -0.0086
 8574TIP3   OH247136   6.031   5.164   0.459  0.0290  0.6567  0.3222
 8574TIP3    H147137   5.997   5.252   0.474  1.7005  1.1650  1.4676
 8574TIP3    H247138   6.096   5.151   0.528  0.6644 -1.0279 -0.5208
 8575TIP3   OH247139   5.451   4.939   3.830  0.0555 -0.3626 -0.0100
 8575TIP3    H147140   5.370   4.988   3.840  0.3007 -0.2760  1.8747
 8575TIP3    H247141   5.508   4.996   3.778 -0.5319  0.2364  0.0025
 8576TIP3   OH247142   1.064   1.222   0.641  0.3405 -0.5347 -0.1924
 8576TIP3    H147143   1.054   1.200   0.733 -0.5566  2.3016  0.4689
 8576TIP3    H247144   0.987   1.185   0.598 -0.1014 -0.4213  0.5012
 8577TIP3   OH247145   3.904   4.527   3.991  0.5853  0.1765  0.2913
 8577TIP3    H147146   3.913   4.621   4.010 -0.2476  0.6061 -1.3043
 8577TIP3    H247147   3.815   4.518   3.957  0.3543 -1.3566  1.2206
 8578TIP3   OH247148   5.658   5.708   4.604  0.0807  0.4665  0.3893
 8578TIP3    H147149   5.639   5.725   4.696 -0.4852  0.6388  0.2418
 8578TIP3    H247150   5.689   5.617   4.602 -0.2268  0.3534  0.7038
 8579TIP3   OH247151   2.604   1.097  13.267  0.1504 -0.4366 -0.2258
 8579TIP3    H147152   2.553   1.157  13.321  1.6393  0.0257  0.7015
 8579TIP3    H247153   2.693   1.103  13.300  0.7116 -1.7253 -1.3766
 8580TIP3   OH247154   4.768   5.883  10.847  0.0015  0.1413  0.2361
 8580TIP3    H147155   4.682   5.919  10.869 -0.9979 -0.4953 -2.2895
 8580TIP3    H247156   4.753   5.833  10.767  2.4113 -1.4320  0.6690
 8581TIP3   OH247157   0.520   0.074  15.069  0.4239  0.2818  0.7995
 8581TIP3    H147158   0.502   0.124  14.989  1.0622 -1.1981 -0.3282
 8581TIP3    H247159   0.611   0.094  15.090  1.4419 -1.9756 -0.9573
 8582TIP3   OH247160   0.297   3.303   1.613  0.6075  0.3106  0.1934
 8582TIP3    H147161   0.237   3.299   1.687 -0.3596  0.5778 -0.5567
 8582TIP3    H247162   0.303   3.213   1.582 -1.2126  0.5750 -1.1042
 8583TIP3   OH247163   4.847   1.081  12.857 -0.1273 -0.0798 -0.7019
 8583TIP3    H147164   4.844   1.144  12.929  1.0817 -0.2542 -0.4740
 8583TIP3    H247165   4.864   0.997  12.900 -2.8308 -0.8268 -0.8859
 8584TIP3   OH247166   2.645   1.107   1.239  0.3396 -0.0887 -0.1735
 8584TIP3    H147167   2.628   1.161   1.316  0.8210 -0.7873  0.4284
 8584TIP3    H247168   2.686   1.167   1.176  0.8700  0.2526  0.4882
 8585TIP3   OH247169   5.846   1.603  12.323  0.4799  0.1139 -0.2493
 8585TIP3    H147170   5.832   1.512  12.347 -0.0236  0.4071  0.6103
 8585TIP3    H247171   5.933   1.605  12.282  0.5564 -0.7136 -0.1336
 8586TIP3   OH247172   5.122   2.651  14.457 -0.1580  0.1522 -0.1726
 8586TIP3    H147173   5.194   2.673  14.517 -0.4650 -0.8088  0.5723
 8586TIP3    H247174   5.068   2.590  14.507 -1.2140  0.4607 -0.9192
 8587TIP3   OH247175   2.716   5.562   4.872  0.3540 -0.1552  0.1410
 8587TIP3    H147176   2.744   5.556   4.963 -0.9635  0.2482  0.5907
 8587TIP3    H247177   2.686   5.474   4.849 -1.5081  0.2438  0.8648
 8588TIP3   OH247178   2.012   3.226   2.884  0.8682 -0.1456  0.2683
 8588TIP3    H147179   2.079   3.248   2.949  0.1540 -0.5830  1.1826
 8588TIP3    H247180   1.979   3.141   2.912 -0.0788  0.0728 -0.1526
 8589TIP3   OH247181   5.887   0.271  11.688 -1.5186 -0.2420 -0.4367
 8589TIP3    H147182   5.851   0.196  11.735 -1.1031 -0.2518 -0.1347
 8589TIP3    H247183   5.962   0.237  11.640 -1.0177  0.0741  0.1035
 8590TIP3   OH247184   0.885   0.957  13.575 -0.2528 -0.5856  0.4299
 8590TIP3    H147185   0.936   0.898  13.520  0.5863  0.0876  0.4666
 8590TIP3    H247186   0.905   1.045  13.542 -1.7951 -0.3181  0.1088
 8591TIP3   OH247187   5.262   5.915   3.793  0.2095 -0.1227 -0.2843
 8591TIP3    H147188   5.181   5.884   3.754 -1.8412  1.6944  2.1417
 8591TIP3    H247189   5.285   5.993   3.743 -0.3675  0.1562 -0.1217
 8592TIP3   OH247190   0.956   5.497  14.649  0.2457 -0.4352  0.0852
 8592TIP3    H147191   0.938   5.486  14.556  1.0428 -2.7805  0.1426
 8592TIP3    H247192   0.941   5.410  14.687  1.2907  0.1201  1.8986
 8593TIP3   OH247193   2.966   2.153   5.064  0.2944 -0.2592  0.0566
 8593TIP3    H147194   2.963   2.068   5.020  0.5227  0.2101 -0.8884
 8593TIP3    H247195   2.899   2.205   5.021  1.0362  0.4555 -0.2672
 8594TIP3   OH247196   3.846   5.239   5.574  0.3566  1.0105  0.5657
 8594TIP3    H147197   3.761   5.193   5.572  1.0213 -0.3088 -2.1066
 8594TIP3    H247198   3.879   5.223   5.662 -0.8782 -1.0286  0.7415
 8595TIP3   OH247199   6.629   1.920  14.535  0.3898  0.3738  0.2023
 8595TIP3    H147200   6.555   1.970  14.570 -0.7112  1.0195 -2.8170
 8595TIP3    H247201   6.667   1.877  14.612 -0.6871  3.1277  2.4486
 8596TIP3   OH247202   4.815   5.881  15.029  0.1070 -0.3194 -0.3385
 8596TIP3    H147203   4.781   5.796  15.054  1.2689 -0.7376 -0.0839
 8596TIP3    H247204   4.781   5.896  14.941  2.5772 -2.6805 -1.8865
 8597TIP3   OH247205   3.761   2.642   4.272 -0.0766  0.0830  0.1043
 8597TIP3    H147206   3.684   2.688   4.239  0.9232  0.7776 -1.3344
 8597TIP3    H247207   3.833   2.704   4.259  1.0281 -1.2512 -0.2994
 8598TIP3   OH247208   4.897   0.980  10.204 -0.2928 -0.0483 -0.6706
 8598TIP3    H147209   4.826   1.013  10.259  0.0308  1.8474 -1.3462
 8598TIP3    H247210   4.861   0.900  10.165 -1.0842 -0.5713  1.0370
 8599TIP3   OH247211   2.291   0.460   4.860  0.4170  0.1550 -0.3572
 8599TIP3    H147212   2.254   0.505   4.785 -1.2451  0.3958  0.5653
 8599TIP3    H247213   2.282   0.367   4.840 -1.6154  0.1813  0.2261
 8600TIP3   OH247214   0.731   3.067  13.803 -0.4121  0.3984  0.0009
 8600TIP3    H147215   0.668   3.097  13.869 -0.7825 -1.6655  0.6508
 8600TIP3    H247216   0.798   3.136  13.802 -1.6447  1.6734  0.7347
 8601TIP3   OH247217   4.295   6.089   1.881  0.3369  0.0692  0.1830
 8601TIP3    H147218   4.338   6.004   1.891 -1.0140 -0.8474 -1.1619
 8601TIP3    H247219   4.357   6.142   1.832  1.4949  0.1335  1.6681
 8602TIP3   OH247220   6.221   5.434   0.318  0.3674 -0.2047 -0.4329
 8602TIP3    H147221   6.282   5.363   0.297 -0.4636 -1.2432  0.4922
 8602TIP3    H247222   6.141   5.410   0.271 -0.3447 -0.6085  0.9487
 8603TIP3   OH247223   5.767   3.996  14.174  0.0174 -0.2494  1.1151
 8603TIP3    H147224   5.727   3.938  14.109 -0.8100  0.8849  0.5931
 8603TIP3    H247225   5.862   3.982  14.163 -0.1552 -2.0028  1.4927
 8604TIP3   OH247226   3.369   2.621  13.952  0.3702 -0.1322  0.1443
 8604TIP3    H147227   3.419   2.677  14.012 -0.0867  0.8701 -0.3916
 8604TIP3    H247228   3.358   2.539  14.000  0.9369  0.2760  1.0003
 8605TIP3   OH247229   4.828   3.915   1.323  0.1867 -0.0787 -0.3076
 8605TIP3    H147230   4.756   3.901   1.261 -0.2130 -4.0268  0.7505
 8605TIP3    H247231   4.907   3.910   1.269 -0.2197 -1.5354 -0.8166
 8606TIP3   OH247232   4.485   3.812   3.901 -0.7110  0.1154 -0.5339
 8606TIP3    H147233   4.545   3.797   3.974 -1.2802  1.6707  0.2872
 8606TIP3    H247234   4.402   3.836   3.942 -1.1765  0.5282 -1.6761
 8607TIP3   OH247235   3.823   5.028  10.959  0.0048 -0.4052  0.1650
 8607TIP3    H147236   3.790   5.114  10.932  0.6304 -0.4872 -0.9095
 8607TIP3    H247237   3.918   5.037  10.953  0.1948 -0.4543  2.3104
 8608TIP3   OH247238   1.188   5.358  12.540  0.1640 -0.4578 -0.0970
 8608TIP3    H147239   1.202   5.363  12.634 -0.2873 -0.0693 -0.0456
 8608TIP3    H247240   1.093   5.357  12.530  0.2079 -0.8812 -0.5305
 8609TIP3   OH247241   2.009   2.118  11.844  0.1179  0.1627 -0.1787
 8609TIP3    H147242   2.051   2.203  11.841  0.1537  0.1410 -3.0708
 8609TIP3    H247243   2.082   2.055  11.848  0.2426  0.2210 -1.2712
 8610TIP3   OH247244   4.941   0.956   2.393  0.3713 -0.1636  0.1818
 8610TIP3    H147245   4.889   1.013   2.337  0.6866 -0.0545  0.0012
 8610TIP3    H247246   4.954   0.876   2.341 -0.6263 -0.6766  0.6785
 8611TIP3   OH247247   6.165   5.157   0.946 -0.0198 -0.3576  0.5708
 8611TIP3    H147248   6.162   5.082   1.005 -0.5814  0.7898  2.0602
 8611TIP3    H247249   6.234   5.213   0.981  0.0567  0.0725 -0.2292
 8612TIP3   OH247250   4.716   3.716  14.643  0.0947  0.4331 -0.6322
 8612TIP3    H147251   4.671   3.800  14.654  1.1760  0.8364  0.9654
 8612TIP3    H247252   4.673   3.658  14.705 -1.5158 -0.6413 -2.6109
 8613TIP3   OH247253   0.489   5.565  13.159 -0.1005 -0.6657 -0.0251
 8613TIP3    H147254   0.511   5.623  13.086  0.1101  0.2038  0.7114
 8613TIP3    H247255   0.518   5.478  13.130 -0.0234 -0.3329 -0.9697
 8614TIP3   OH247256   5.990   5.708  12.565 -0.5077  0.6521 -0.2953
 8614TIP3    H147257   5.941   5.760  12.502  1.8730  0.8031 -2.2076
 8614TIP3    H247258   6.015   5.770  12.634 -2.8769  0.5548  0.7451
 8615TIP3   OH247259   5.396   3.965   2.243 -0.4517  0.1352  0.5397
 8615TIP3    H147260   5.419   3.996   2.330 -0.5150  0.1500  0.5512
 8615TIP3    H247261   5.420   3.872   2.243 -0.4287  0.1411  0.5645
 8616TIP3   OH247262   4.652   6.548  13.106 -0.4204  0.2326  0.2748
 8616TIP3    H147263   4.701   6.619  13.146  1.3005 -0.5315 -0.3828
 8616TIP3    H247264   4.697   6.468  13.134 -0.2092 -0.4121 -1.7263
 8617TIP3   OH247265   6.064   0.588   4.542 -0.2663  0.1641  0.5339
 8617TIP3    H147266   5.999   0.519   4.528  0.9658 -1.3338  1.9206
 8617TIP3    H247267   6.040   0.656   4.479 -2.8897 -0.5278  0.6852
 8618TIP3   OH247268   4.256   0.281   2.620 -0.2464  0.3652 -0.3191
 8618TIP3    H147269   4.334   0.284   2.676  0.0729  0.7769 -0.7724
 8618TIP3    H247270   4.185   0.256   2.679  0.1769  0.2659  0.1597
 8619TIP3   OH247271   0.736   4.163  13.989  0.4273 -0.4649 -0.8012
 8619TIP3    H147272   0.759   4.116  13.909 -0.7529  0.2278 -1.5737
 8619TIP3    H247273   0.667   4.224  13.963 -0.6811 -0.8831  0.9426
 8620TIP3   OH247274   0.686   3.107   3.992  0.4915 -0.1183  0.1449
 8620TIP3    H147275   0.756   3.157   4.033  2.0005 -1.5558 -0.5841
 8620TIP3    H247276   0.675   3.146   3.905  0.0482  0.4014  0.4294
 8621TIP3   OH247277   4.618   6.513   2.865  0.3307  0.4834 -0.1981
 8621TIP3    H147278   4.551   6.582   2.868 -0.4044 -0.2276  0.3602
 8621TIP3    H247279   4.630   6.488   2.956  0.3618 -0.3247 -0.4180
 8622TIP3   OH247280   6.461   1.827   0.386 -0.2263 -0.3331 -0.2242
 8622TIP3    H147281   6.413   1.749   0.360 -0.7724  0.4921 -1.8648
 8622TIP3    H247282   6.553   1.806   0.371 -0.2942 -0.9251  0.1507
 8623TIP3   OH247283   1.357   2.749   2.240  0.4669  0.6258  0.6071
 8623TIP3    H147284   1.344   2.671   2.294  0.1647  1.8274  2.3463
 8623TIP3    H247285   1.268   2.779   2.220  0.4965 -1.0131 -2.5048
 8624TIP3   OH247286   6.387   2.292   4.564  0.0570  0.0169  0.9143
 8624TIP3    H147287   6.433   2.327   4.487  0.9176 -0.4014  1.2282
 8624TIP3    H247288   6.416   2.201   4.569  0.3732  0.1658  1.9993
 8625TIP3   OH247289   1.504   4.464   5.661  0.0377  0.4340 -0.0259
 8625TIP3    H147290   1.409   4.471   5.650  0.1508  1.2579 -0.5766
 8625TIP3    H247291   1.537   4.442   5.574  0.6305  3.5396 -0.7094
 8626TIP3   OH247292   5.171   4.215  16.383 -0.2350 -0.6587  0.2384
 8626TIP3    H147293   5.219   4.223  16.300 -1.7651 -0.8365 -0.7122
 8626TIP3    H247294   5.218   4.272  16.444 -0.1117  0.9257 -1.2611
 8627TIP3   OH247295   3.702   4.649  12.484 -0.0000 -0.3455 -0.2431
 8627TIP3    H147296   3.768   4.709  12.519  1.4335 -1.6747 -0.5534
 8627TIP3    H247297   3.643   4.705  12.433 -1.1060  1.3804  2.6941
 8628TIP3   OH247298   2.227   4.683  15.036 -0.2329  0.1061 -0.2649
 8628TIP3    H147299   2.309   4.729  15.016  0.4198 -0.6594  0.5574
 8628TIP3    H247300   2.181   4.740  15.098 -1.4300  1.6306 -2.4149
 8629TIP3   OH247301   3.459   4.449   3.121  0.3791 -0.6822 -0.7274
 8629TIP3    H147302   3.413   4.532   3.112  1.7542  0.2302  0.4464
 8629TIP3    H247303   3.402   4.386   3.076 -1.2816  0.6496 -0.5939
 8630TIP3   OH247304   4.584   4.324  12.768 -0.5032 -0.2495  0.1632
 8630TIP3    H147305   4.566   4.395  12.707  0.0622  0.1807  0.4844
 8630TIP3    H247306   4.498   4.296  12.799 -0.6899  0.9816  0.8030
 8631TIP3   OH247307   3.081   0.972  13.354  0.2639  0.2161 -0.2016
 8631TIP3    H147308   3.158   0.926  13.322  0.8136 -0.3929  1.8114
 8631TIP3    H247309   3.013   0.904  13.356  0.6901 -0.2271  1.3945
 8632TIP3   OH247310   0.454   3.364   1.162  0.9118 -0.4807 -0.1667
 8632TIP3    H147311   0.431   3.395   1.074 -0.0607 -1.4999 -0.2864
 8632TIP3    H247312   0.460   3.444   1.215 -0.9919 -0.0195 -0.5975
 8633TIP3   OH247313   2.792   2.836   0.723  0.3253  0.5008 -0.0308
 8633TIP3    H147314   2.866   2.898   0.722 -0.2804  1.3643  2.2273
 8633TIP3    H247315   2.715   2.892   0.736 -0.2690 -0.6869  1.8011
 8634TIP3   OH247316   2.578   5.740  12.185  0.1885  0.4873  0.1554
 8634TIP3    H147317   2.511   5.685  12.144  0.7314  0.9653 -1.4878
 8634TIP3    H247318   2.589   5.704  12.273  0.0439 -1.6136 -0.6253
 8635TIP3   OH247319   0.161   1.812   6.384 -0.3560  0.4920  0.6422
 8635TIP3    H147320   0.218   1.839   6.311 -2.6804  1.5919 -0.9061
 8635TIP3    H247321   0.207   1.740   6.426  2.0770  1.2420 -0.5867
 8636TIP3   OH247322   1.618   3.583   0.653 -0.0489 -0.3860  0.3604
 8636TIP3    H147323   1.535   3.551   0.687 -0.6726  0.0038 -0.7483
 8636TIP3    H247324   1.611   3.572   0.559  1.2212 -0.4683  0.2622
 8637TIP3   OH247325   4.397   3.598  15.787 -0.8426 -0.0921  0.4378
 8637TIP3    H147326   4.409   3.688  15.756  0.1337 -0.0475  0.8878
 8637TIP3    H247327   4.314   3.570  15.749 -1.3328  1.1146  0.5569
 8638TIP3   OH247328   1.713   4.685   2.689 -0.0872 -0.3971 -0.5421
 8638TIP3    H147329   1.661   4.650   2.761 -1.0455 -0.8979 -1.4573
 8638TIP3    H247330   1.771   4.749   2.731 -0.8960 -0.3841  0.6067
 8639TIP3   OH247331   1.290   5.487   4.190  0.5082  0.4137 -0.2574
 8639TIP3    H147332   1.369   5.462   4.238  0.3852 -0.1904 -0.3679
 8639TIP3    H247333   1.291   5.433   4.111 -0.3260 -0.0369  0.0291
 8640TIP3   OH247334   5.661   4.568   5.066 -0.2611 -0.2464  0.4084
 8640TIP3    H147335   5.679   4.489   5.015 -0.4514 -1.0309  1.5299
 8640TIP3    H247336   5.731   4.571   5.131 -0.0286  0.7388  0.1340
 8641TIP3   OH247337   0.380   2.108   0.266 -0.0775  0.2052 -0.0583
 8641TIP3    H147338   0.383   2.015   0.288  1.5574 -0.0592 -1.2346
 8641TIP3    H247339   0.291   2.122   0.232 -0.2914 -0.9583 -0.0063
 8642TIP3   OH247340   4.156   3.122  14.797 -0.2699 -0.6401  0.6574
 8642TIP3    H147341   4.224   3.167  14.746 -1.2406  1.2527  0.9079
 8642TIP3    H247342   4.128   3.050  14.741  0.6679 -0.3362 -0.2500
 8643TIP3   OH247343   0.717   4.363  10.827  0.0870 -0.8852 -0.4873
 8643TIP3    H147344   0.745   4.446  10.864  0.7256 -1.0892 -0.4886
 8643TIP3    H247345   0.622   4.368  10.824  0.0724 -0.4873  0.3000
 8644TIP3   OH247346   4.509   2.230  11.809  0.7840  0.2621 -0.4700
 8644TIP3    H147347   4.599   2.196  11.807  1.2019  1.3532 -1.6422
 8644TIP3    H247348   4.505   2.283  11.888  1.3031  0.4950 -0.5925
 8645TIP3   OH247349   5.144   4.122   0.877  0.3039  0.0688  0.3018
 8645TIP3    H147350   5.119   4.212   0.858  0.3757 -0.1075 -0.7416
 8645TIP3    H247351   5.185   4.125   0.963 -2.4813  0.5163  1.7292
 8646TIP3   OH247352   4.280   3.893   4.863 -0.7994  1.0753 -0.2904
 8646TIP3    H147353   4.241   3.840   4.932  2.4191  0.7653  1.5091
 8646TIP3    H247354   4.328   3.829   4.809 -1.7431  1.5462 -1.7572
 8647TIP3   OH247355   1.040   4.488   2.715  0.4530  0.3951 -0.1481
 8647TIP3    H147356   1.072   4.577   2.726 -0.1875  0.5461  0.5182
 8647TIP3    H247357   0.946   4.493   2.731  0.5261 -0.5316  0.7055
 8648TIP3   OH247358   2.293   3.635   2.829 -0.0453 -0.5361 -0.8877
 8648TIP3    H147359   2.285   3.606   2.919  0.3685  2.0341  0.0649
 8648TIP3    H247360   2.280   3.556   2.777 -2.0930 -1.7849  1.3366
 8649TIP3   OH247361   3.997   1.672  11.464 -0.3037  0.2048  0.1884
 8649TIP3    H147362   3.927   1.630  11.513  0.0310 -0.9037 -0.2487
 8649TIP3    H247363   3.989   1.638  11.375 -0.4917  1.6732 -0.3900
 8650TIP3   OH247364   0.770   4.692   4.379  0.2218 -0.5108 -0.2125
 8650TIP3    H147365   0.704   4.624   4.389 -1.8735  1.3261 -0.6388
 8650TIP3    H247366   0.794   4.689   4.286 -1.8985  0.9683 -0.8911
 8651TIP3   OH247367   4.096   0.524   2.971 -0.3144 -0.7797 -0.4699
 8651TIP3    H147368   4.109   0.521   3.066  0.3038  0.1711 -0.5191
 8651TIP3    H247369   4.025   0.461   2.955 -1.7883  0.4663  0.8472
 8652TIP3   OH247370   3.921   1.071   3.326 -0.3809 -0.4842 -0.1834
 8652TIP3    H147371   3.937   1.124   3.404 -0.5799 -1.3145  0.4415
 8652TIP3    H247372   4.001   1.078   3.275 -0.5303  0.6806 -0.2819
 8653TIP3   OH247373   5.366   0.830  14.741 -0.2125 -0.3687  0.4696
 8653TIP3    H147374   5.295   0.833  14.805 -1.2957 -0.5368 -0.6590
 8653TIP3    H247375   5.339   0.762  14.679 -0.1573  1.0312 -1.1951
 8654TIP3   OH247376   4.270   3.020  11.732  0.1280 -0.1916 -0.3900
 8654TIP3    H147377   4.214   3.094  11.754  0.3583  0.4383 -1.8193
 8654TIP3    H247378   4.359   3.054  11.736  0.1956 -0.1096 -1.9219
 8655TIP3   OH247379   4.612   5.980  11.700  0.3362 -0.1269 -0.6115
 8655TIP3    H147380   4.604   6.003  11.608 -2.2970  0.5378 -0.3080
 8655TIP3    H247381   4.696   5.934  11.706  1.4107  1.3365 -2.9647
 8656TIP3   OH247382   3.747   4.308   2.862 -0.3613 -0.1005  0.0656
 8656TIP3    H147383   3.778   4.399   2.862  0.3286 -0.3052 -1.1771
 8656TIP3    H247384   3.668   4.310   2.806 -1.3020  0.0063  1.3586
 8657TIP3   OH247385   1.650   2.018  12.846 -0.5377  0.2639 -0.5788
 8657TIP3    H147386   1.701   1.945  12.810  2.2371  2.2069 -1.0109
 8657TIP3    H247387   1.688   2.034  12.932 -0.9891  1.2328 -0.5411
 8658TIP3   OH247388   1.306   4.417  11.974 -0.4150 -0.3857  0.1829
 8658TIP3    H147389   1.295   4.340  11.918 -0.2254 -0.1488 -0.1907
 8658TIP3    H247390   1.218   4.451  11.985 -0.3099  0.4324 -1.2401
 8659TIP3   OH247391   0.456   1.043  11.862  0.4412 -0.1200  0.6657
 8659TIP3    H147392   0.400   0.988  11.808 -0.3431 -0.2103  1.5402
 8659TIP3    H247393   0.545   1.019  11.836  0.0945 -1.0065  0.2534
 8660TIP3   OH247394   6.416   5.041   1.862  0.1467 -0.1709  0.0675
 8660TIP3    H147395   6.420   4.970   1.798  0.9882 -0.4789  0.4395
 8660TIP3    H247396   6.350   5.013   1.925 -0.4215 -0.0363 -0.4627
 8661TIP3   OH247397   0.140   2.739  11.234  0.1713  0.2803 -0.7502
 8661TIP3    H147398   0.146   2.646  11.255  0.7379  0.4421 -0.1542
 8661TIP3    H247399   0.104   2.742  11.145 -0.4924 -0.4794 -0.5091
 8662TIP3   OH247400   3.478   4.021   0.350  0.0600  0.3008  0.5080
 8662TIP3    H147401   3.553   3.962   0.349 -0.9837 -1.1135  1.1640
 8662TIP3    H247402   3.422   3.987   0.420 -0.6487  2.0298  0.8405
 8663TIP3   OH247403   5.904   1.732  10.811  0.2306 -0.2026 -0.8483
 8663TIP3    H147404   5.841   1.781  10.864 -1.1976 -0.9420 -1.7895
 8663TIP3    H247405   5.923   1.654  10.862  2.2309  1.0545  0.4881
 8664TIP3   OH247406   3.810   0.413  16.641 -0.2254  0.1768  0.2822
 8664TIP3    H147407   3.724   0.404  16.602  0.2925  1.1217 -1.1770
 8664TIP3    H247408   3.832   0.326  16.673 -2.2282  0.1890  1.8612
 8665TIP3   OH247409   2.483   3.731   1.345 -0.3699  0.1436  0.9733
 8665TIP3    H147410   2.566   3.684   1.342 -0.9789 -0.9315 -1.1013
 8665TIP3    H247411   2.490   3.797   1.275 -1.1652  0.1759  0.9087
 8666TIP3   OH247412   2.827   5.171  16.868  0.5278 -0.1607 -0.8718
 8666TIP3    H147413   2.741   5.212  16.872 -0.0659 -1.3266 -1.2728
 8666TIP3    H247414   2.883   5.237  16.826 -0.0741  0.7317 -0.3130
 8667TIP3   OH247415   2.544   0.802   1.379 -0.2976  0.1476  0.3375
 8667TIP3    H147416   2.538   0.796   1.475  1.3675 -2.1451  0.3969
 8667TIP3    H247417   2.495   0.726   1.348 -0.6566  0.7655 -0.6473
 8668TIP3   OH247418   3.596   3.917   5.189 -0.0258  0.6290 -0.9005
 8668TIP3    H147419   3.611   3.823   5.197 -2.7053  0.1687 -0.6811
 8668TIP3    H247420   3.585   3.948   5.279  1.3006  1.2903 -0.9313
 8669TIP3   OH247421   5.684   2.474  12.338 -0.4699 -0.4435  0.2065
 8669TIP3    H147422   5.649   2.540  12.398  0.1741  0.4832 -0.4100
 8669TIP3    H247423   5.665   2.390  12.381 -2.4338  0.0569  0.3955
 8670TIP3   OH247424   2.317   3.089   2.685  0.2419  0.1492  0.5651
 8670TIP3    H147425   2.355   3.158   2.740  0.0406  0.3839  0.4097
 8670TIP3    H247426   2.306   3.014   2.744  0.9429  0.0794  0.6143
 8671TIP3   OH247427   4.532   1.368   0.496  0.7205  1.1013 -0.2308
 8671TIP3    H147428   4.568   1.282   0.520 -1.1468  0.7499  1.6082
 8671TIP3    H247429   4.483   1.396   0.573 -1.4725  2.3018 -1.9238
 8672TIP3   OH247430   4.106   6.239  13.422  0.1947  0.2914  0.4735
 8672TIP3    H147431   4.094   6.287  13.340 -1.8252 -1.2192 -0.2105
 8672TIP3    H247432   4.193   6.201  13.415 -0.2064 -0.4053 -1.3379
 8673TIP3   OH247433   0.544   5.006   2.690  0.2712 -0.2120 -0.5051
 8673TIP3    H147434   0.552   4.949   2.613  0.9080  0.7289 -1.1676
 8673TIP3    H247435   0.585   4.957   2.761  0.0148 -0.9423 -0.8473
 8674TIP3   OH247436   0.438   6.336   5.718 -0.1239  0.4728 -0.0563
 8674TIP3    H147437   0.497   6.394   5.671 -2.1184  2.0066 -0.8208
 8674TIP3    H247438   0.489   6.304   5.792  1.6244  1.7415 -0.6490
 8675TIP3   OH247439   1.694   0.258   1.965 -0.3686  0.3260  0.2968
 8675TIP3    H147440   1.663   0.168   1.965  2.0003 -0.5940 -1.3769
 8675TIP3    H247441   1.649   0.300   1.891  0.3904 -0.2860 -0.5471
 8676TIP3   OH247442   2.640   1.623  12.445 -0.0863  0.2416 -0.2126
 8676TIP3    H147443   2.570   1.686  12.462  0.4678  0.7173  0.3430
 8676TIP3    H247444   2.673   1.647  12.358 -0.9447 -0.3132 -0.7059
 8677TIP3   OH247445   5.990   1.846   2.140  0.2049 -0.2770 -0.0870
 8677TIP3    H147446   5.938   1.885   2.070  2.8270 -0.0846 -2.0350
 8677TIP3    H247447   5.935   1.856   2.218 -1.8571  1.5769 -1.6439
 8678TIP3   OH247448   6.276   0.741  12.370  0.1220 -0.8138 -0.0461
 8678TIP3    H147449   6.242   0.699  12.449  0.7396  2.3917  2.1295
 8678TIP3    H247450   6.204   0.798  12.340  0.1603 -1.4420 -1.4259
 8679TIP3   OH247451   5.343   2.495   5.083  0.0746  0.3211 -0.1594
 8679TIP3    H147452   5.416   2.449   5.124 -0.8184 -3.2613 -2.1518
 8679TIP3    H247453   5.266   2.464   5.131 -0.4149  1.9646  0.1775
 8680TIP3   OH247454   1.155   4.027  11.775 -0.7288  0.4011 -0.5249
 8680TIP3    H147455   1.205   3.979  11.841 -0.9761 -1.3026 -1.5182
 8680TIP3    H247456   1.160   3.973  11.696 -0.5002  2.3477 -1.9154
 8681TIP3   OH247457   0.572   0.174  14.435 -0.3036  0.3553 -0.6655
 8681TIP3    H147458   0.591   0.255  14.483 -0.5038  0.5210 -0.8586
 8681TIP3    H247459   0.657   0.142  14.406  0.2572 -1.5923  2.6761
 8682TIP3   OH247460   5.582   5.394   3.082  0.0942 -0.2634 -0.6701
 8682TIP3    H147461   5.655   5.369   3.139  0.2181  2.4062  0.4951
 8682TIP3    H247462   5.565   5.316   3.030  2.9238 -1.4092 -0.0931
 8683TIP3   OH247463   3.995   4.855   0.821  0.3802  0.5681 -0.0078
 8683TIP3    H147464   4.053   4.863   0.897  1.3980  0.9538 -0.7996
 8683TIP3    H247465   3.932   4.926   0.831  1.5102  1.6477 -0.3585
 8684TIP3   OH247466   5.133   5.797   2.937  0.1342 -0.4796  0.0202
 8684TIP3    H147467   5.143   5.767   2.847 -0.2298  1.7616 -0.8324
 8684TIP3    H247468   5.206   5.858   2.950 -0.5650  0.2314  0.7603
 8685TIP3   OH247469   6.688   0.342   1.461 -0.1855  0.5621  0.6515
 8685TIP3    H147470   6.736   0.272   1.506  0.6786  0.3374 -0.5785
 8685TIP3    H247471   6.755   0.405   1.435 -0.6215  0.5597 -0.5377
 8686TIP3   OH247472   5.722   2.641  15.209  0.0089  0.0472  0.4449
 8686TIP3    H147473   5.811   2.607  15.201 -0.0699 -0.2544  0.8523
 8686TIP3    H247474   5.688   2.642  15.119  0.3728  0.0334  0.3064
 8687TIP3   OH247475   5.145   0.217   6.457  0.3981 -0.4555  0.1734
 8687TIP3    H147476   5.236   0.244   6.469  0.4696 -1.2255  1.5245
 8687TIP3    H247477   5.114   0.270   6.384  1.6354  0.5492  0.3391
 8688TIP3   OH247478   6.546   3.517   1.900 -0.0795  0.3265  0.0989
 8688TIP3    H147479   6.641   3.506   1.894 -0.2720 -2.2067  0.5769
 8688TIP3    H247480   6.510   3.446   1.847 -1.6637 -1.2277  2.9666
 8689TIP3   OH247481   3.965   5.718  16.882  0.2632 -0.0221  0.1889
 8689TIP3    H147482   3.944   5.774  16.956 -0.6075 -0.4859  0.3106
 8689TIP3    H247483   4.060   5.709  16.884  0.5066  2.1245 -0.3378
 8690TIP3   OH247484   2.365   0.862  14.277  0.0281 -0.0329  0.9239
 8690TIP3    H147485   2.300   0.897  14.339 -1.9100 -2.3436  0.3654
 8690TIP3    H247486   2.368   0.769  14.297  1.2029 -0.4184 -0.8687
 8691TIP3   OH247487   1.247   1.903   3.232 -0.6503  0.2922  0.4606
 8691TIP3    H147488   1.321   1.897   3.172 -1.5408  0.9019 -0.7511
 8691TIP3    H247489   1.187   1.834   3.204 -0.9321  0.3661  0.8683
 8692TIP3   OH247490   1.991   5.669  16.299  0.5170 -0.2556 -0.1349
 8692TIP3    H147491   2.051   5.652  16.372 -1.4043 -0.6253  1.4199
 8692TIP3    H247492   2.006   5.761  16.277  0.7567  0.0130  1.0804
 8693TIP3   OH247493   0.308   2.264   5.525 -0.0532 -0.7920 -0.2750
 8693TIP3    H147494   0.290   2.318   5.602 -0.2190 -1.3096  0.0474
 8693TIP3    H247495   0.265   2.311   5.453  0.6425  0.0336 -0.1776
 8694TIP3   OH247496   0.891   3.866  13.539 -0.2531 -0.3597  0.0070
 8694TIP3    H147497   0.802   3.833  13.533 -0.2915 -0.2487 -0.0247
 8694TIP3    H247498   0.916   3.884  13.448 -1.2229  2.3732  0.1870
 8695TIP3   OH247499   0.289   1.934   3.318 -0.0378  0.0615  0.1992
 8695TIP3    H147500   0.241   1.851   3.325 -0.0406 -0.2119 -2.1931
 8695TIP3    H247501   0.272   1.979   3.400 -0.9452 -1.8333  1.1099
 8696TIP3   OH247502   4.091   0.772   2.204  0.5888  0.1836 -0.1263
 8696TIP3    H147503   4.052   0.806   2.123  2.1459 -0.5727 -1.2606
 8696TIP3    H247504   4.069   0.837   2.270 -3.9385 -0.9415 -0.2193
 8697TIP3   OH247505   1.913   5.736   0.582  0.5121  0.3966 -0.5420
 8697TIP3    H147506   1.927   5.651   0.624  0.2254  1.1561  1.1497
 8697TIP3    H247507   1.819   5.739   0.566 -0.2440  2.0034  3.2131
 8698TIP3   OH247508   5.392   5.647   3.943  0.0744 -0.5389  0.1553
 8698TIP3    H147509   5.333   5.688   4.006  0.1319 -1.1974  0.6428
 8698TIP3    H247510   5.480   5.665   3.978  0.1304 -0.4087 -0.0482
 8699TIP3   OH247511   1.988   2.462  13.786 -0.3799 -0.2070 -0.0752
 8699TIP3    H147512   2.034   2.390  13.742 -0.6648 -0.1090 -0.5399
 8699TIP3    H247513   1.954   2.516  13.714 -1.6234 -0.5281  0.2520
 8700TIP3   OH247514   3.905   0.670  15.135  0.0577 -0.3434 -0.0434
 8700TIP3    H147515   3.895   0.577  15.118  0.4795 -0.0829 -1.9903
 8700TIP3    H247516   3.976   0.675  15.200 -1.4321 -1.4202  1.7734
 8701TIP3   OH247517   3.921   4.013  13.020 -0.1723  0.5532  0.2763
 8701TIP3    H147518   3.907   4.011  13.115 -0.2567  0.9988  0.2750
 8701TIP3    H247519   3.948   3.923  12.998 -0.0327  0.4786  0.7378
 8702TIP3   OH247520   1.721   5.228  15.934 -0.0395  0.1476 -0.5851
 8702TIP3    H147521   1.812   5.198  15.927  0.5772  2.0017 -0.8631
 8702TIP3    H247522   1.698   5.210  16.026  1.0193  0.7608 -0.1782
 8703TIP3   OH247523   3.423   2.275  12.343  0.1810  0.0691 -0.0450
 8703TIP3    H147524   3.460   2.350  12.390  1.2701 -1.0356  0.9124
 8703TIP3    H247525   3.364   2.234  12.406  0.0307 -0.2254 -0.3731
 8704TIP3   OH247526   6.676   6.614  12.203  0.0775  0.3758 -0.5374
 8704TIP3    H147527   6.728   6.692  12.221 -1.6505  1.6196 -0.6476
 8704TIP3    H247528   6.590   6.633  12.240  0.0108 -2.1434  0.8268
 8705TIP3   OH247529   2.252   6.106   4.793 -0.2002  0.1281  0.0834
 8705TIP3    H147530   2.239   6.013   4.811 -0.3084  0.0743 -0.2706
 8705TIP3    H247531   2.325   6.132   4.850  0.8148 -0.5162 -0.8871
 8706TIP3   OH247532   5.536   1.417   2.876 -0.0535 -0.0755  0.3571
 8706TIP3    H147533   5.537   1.403   2.970 -0.4641 -1.2601  0.2018
 8706TIP3    H247534   5.527   1.329   2.839  5.4361 -0.4740 -0.9668
 8707TIP3   OH247535   4.747   3.718   3.433 -0.3828  0.5615  0.0609
 8707TIP3    H147536   4.819   3.767   3.393 -2.0069  0.8130 -2.8156
 8707TIP3    H247537   4.790   3.647   3.481  1.8247  2.0934  0.5284
 8708TIP3   OH247538   2.723   6.695  15.641 -0.2466 -0.0982  0.4262
 8708TIP3    H147539   2.629   6.707  15.626  0.1370  1.1269 -1.2924
 8708TIP3    H247540   2.730   6.607  15.678 -2.0730 -0.1282  0.8142
 8709TIP3   OH247541   3.009   2.479   4.104 -0.5373  0.3577 -0.0350
 8709TIP3    H147542   2.973   2.528   4.029 -0.7648  0.9932  0.4841
 8709TIP3    H247543   2.977   2.525   4.181 -1.2725 -0.9701  0.4969
 8710TIP3   OH247544   1.043   5.107   2.497  0.5735  0.3938  0.1056
 8710TIP3    H147545   0.971   5.167   2.482  0.8306  0.6866  0.0379
 8710TIP3    H247546   1.015   5.053   2.571  0.6360  1.0659  0.6255
 8711TIP3   OH247547   0.052   1.618   2.956  0.1388  0.6820 -0.5594
 8711TIP3    H147548  -0.024   1.594   3.010  0.0363 -0.2821 -1.1138
 8711TIP3    H247549   0.017   1.622   2.867  0.7099  0.3470 -0.8010
 8712TIP3   OH247550   5.066   1.979   3.208 -0.6218 -0.2187  0.5167
 8712TIP3    H147551   5.062   2.067   3.172 -4.2688 -0.9223 -1.2977
 8712TIP3    H247552   5.082   1.923   3.132 -1.7314 -1.3224  1.0705
 8713TIP3   OH247553   6.145   1.426   0.001 -0.1417  0.5881  0.0854
 8713TIP3    H147554   6.118   1.491  -0.063  0.2316  0.9478  0.2906
 8713TIP3    H247555   6.175   1.477   0.077 -0.1808  0.1753  0.3831
 8714TIP3   OH247556   1.268   5.007  14.746  0.0224  0.0034 -0.1880
 8714TIP3    H147557   1.198   4.963  14.697 -0.0995 -1.9753  1.6128
 8714TIP3    H247558   1.346   4.996  14.691 -0.1900 -1.7998 -0.1980
 8715TIP3   OH247559   5.420   0.067   1.124 -0.4011 -0.3016 -0.0656
 8715TIP3    H147560   5.344   0.092   1.176 -0.6216 -3.6896  1.4691
 8715TIP3    H247561   5.386   0.057   1.035 -1.6192 -1.0389  0.4622
 8716TIP3   OH247562   5.030   1.651   0.977 -0.3288  0.2172  0.1690
 8716TIP3    H147563   4.945   1.608   0.966 -0.8835  1.0583  0.9920
 8716TIP3    H247564   5.028   1.724   0.914  0.9741 -1.4131 -1.8798
 8717TIP3   OH247565   1.131   6.276   4.592 -0.5451 -0.2825 -0.0134
 8717TIP3    H147566   1.055   6.232   4.554  0.5264 -0.6503 -1.8857
 8717TIP3    H247567   1.139   6.240   4.680 -2.7873  0.1340  0.4168
 8718TIP3   OH247568   4.774   5.024  14.724 -0.3521  0.2287 -0.3025
 8718TIP3    H147569   4.836   5.047  14.655 -0.0241  0.6598  0.1322
 8718TIP3    H247570   4.691   5.010  14.678 -0.4549  1.8156 -0.6392
 8719TIP3   OH247571   2.158   4.428   6.690 -0.2195 -0.5297 -0.2568
 8719TIP3    H147572   2.131   4.404   6.779  1.1692  0.9757  0.6203
 8719TIP3    H247573   2.203   4.350   6.657 -0.0860 -0.8577  0.6576
 8720TIP3   OH247574   2.000   0.570   2.054  0.1242  0.5779  0.1969
 8720TIP3    H147575   1.920   0.535   2.092  1.2097 -0.5098  1.6016
 8720TIP3    H247576   2.014   0.653   2.101 -0.1528  0.7587 -0.0355
 8721TIP3   OH247577   1.750   2.818   2.505  0.1331 -0.3497 -0.1777
 8721TIP3    H147578   1.841   2.834   2.529  0.0657 -2.0098  1.4257
 8721TIP3    H247579   1.755   2.786   2.415  1.2866 -1.3436  0.1985
 8722TIP3   OH247580   3.859   2.780   5.810  0.1914 -0.7438  0.2882
 8722TIP3    H147581   3.842   2.840   5.883  3.2227 -2.1565  2.3846
 8722TIP3    H247582   3.930   2.822   5.761 -0.1495 -0.9615 -0.4028
 8723TIP3   OH247583   3.339   3.648   3.577 -0.4436 -0.4181 -0.1370
 8723TIP3    H147584   3.396   3.587   3.530  1.0259  0.2355  0.7251
 8723TIP3    H247585   3.313   3.712   3.510 -0.5293 -0.9577 -0.6320
 8724TIP3   OH247586   3.345   5.605   1.964  0.8160  0.0989  0.0327
 8724TIP3    H147587   3.292   5.674   2.003 -0.7575 -0.7837 -0.4896
 8724TIP3    H247588   3.396   5.570   2.037 -0.4940 -0.0859  0.8940
 8725TIP3   OH247589   6.489   6.676   1.739 -0.0327  0.3316  0.3135
 8725TIP3    H147590   6.448   6.743   1.684 -0.4915  0.4772  0.8221
 8725TIP3    H247591   6.460   6.697   1.828  2.5326  1.5158  0.9662
 8726TIP3   OH247592   3.690   2.136  14.583 -0.1318  0.4205  0.6366
 8726TIP3    H147593   3.711   2.142  14.490 -0.1841  1.3053  0.6754
 8726TIP3    H247594   3.768   2.167  14.628 -0.0204 -0.2242  0.9022
 8727TIP3   OH247595   3.501   2.494   4.255 -1.1076  0.2137 -0.7042
 8727TIP3    H147596   3.432   2.478   4.190 -0.0360  0.1057 -1.8602
 8727TIP3    H247597   3.531   2.583   4.237 -0.3403 -0.0578 -0.8155
 8728TIP3   OH247598   2.517   6.012  16.416 -0.0719 -0.6920  0.2788
 8728TIP3    H147599   2.609   6.004  16.442 -0.2325  0.0149  1.1387
 8728TIP3    H247600   2.514   5.979  16.327  1.9433  3.2838 -1.5553
 8729TIP3   OH247601   5.340   2.062   0.178 -1.4047 -0.1160  0.4494
 8729TIP3    H147602   5.248   2.035   0.179 -1.3143 -0.4313  1.5058
 8729TIP3    H247603   5.389   1.979   0.184 -1.1182  0.1846  3.5521
 8730TIP3   OH247604   0.930   1.857  15.269 -0.6883  0.3193 -0.4938
 8730TIP3    H147605   0.918   1.783  15.329 -1.0920  0.6534 -0.1590
 8730TIP3    H247606   0.846   1.901  15.267 -0.7031  0.2729 -1.3777
 8731TIP3   OH247607   2.082   3.290  17.347  0.2317  0.4899 -0.1846
 8731TIP3    H147608   2.068   3.354  17.278 -1.5462  0.1663 -0.1834
 8731TIP3    H247609   2.127   3.338  17.417  0.2127  1.3488 -0.7499
 8732TIP3   OH247610   3.860   5.880   4.122  0.3179  0.6797  0.4045
 8732TIP3    H147611   3.820   5.907   4.204 -0.8114 -1.3113  0.5705
 8732TIP3    H247612   3.792   5.892   4.056  0.3537 -0.1029  0.2095
 8733TIP3   OH247613   2.123   3.934   4.230 -0.0738 -0.0402 -0.5008
 8733TIP3    H147614   2.050   3.953   4.172 -0.3460  1.2121  0.2244
 8733TIP3    H247615   2.181   4.010   4.223  1.2228 -1.0235 -1.1038
 8734TIP3   OH247616   0.560   3.991   2.703  0.3197  0.1980  0.4775
 8734TIP3    H147617   0.477   4.039   2.710 -0.4922 -0.9342 -0.8563
 8734TIP3    H247618   0.618   4.051   2.655 -0.9190 -0.3458 -1.8375
 8735TIP3   OH247619   5.639   2.593   3.551  0.0442  0.2531  0.4973
 8735TIP3    H147620   5.720   2.591   3.602  1.5354 -0.1852 -1.7287
 8735TIP3    H247621   5.665   2.629   3.466 -2.5511  2.0629  0.3684
 8736TIP3   OH247622   5.717   3.592   2.241  0.1794  0.3439 -0.1395
 8736TIP3    H147623   5.810   3.613   2.248 -0.2076  2.0368  0.4934
 8736TIP3    H247624   5.678   3.631   2.319 -1.0724 -0.2922 -0.4296
 8737TIP3   OH247625   5.736   2.429   3.045  1.0134 -0.2062  0.0592
 8737TIP3    H147626   5.692   2.446   2.962 -1.1919  1.7218  1.4799
 8737TIP3    H247627   5.702   2.344   3.073 -0.2801  0.3102  0.1379
 8738TIP3   OH247628   3.632   1.378  14.741 -0.3678 -0.0372 -0.0115
 8738TIP3    H147629   3.558   1.365  14.682 -0.8797 -0.4773  0.7188
 8738TIP3    H247630   3.708   1.384  14.683 -1.0683  1.3674 -0.8433
 8739TIP3   OH247631   3.108   4.406   6.015  0.3169  0.4418  0.2781
 8739TIP3    H147632   3.055   4.347   6.068  0.8402 -0.3096 -0.0244
 8739TIP3    H247633   3.081   4.494   6.044  0.4076  0.0581  1.6111
 8740TIP3   OH247634   1.878   4.634  13.215  0.0751  0.5572  0.2379
 8740TIP3    H147635   1.912   4.603  13.131  2.3055 -1.3485  1.7056
 8740TIP3    H247636   1.924   4.717  13.229 -0.9977  1.3587 -0.7744
 8741TIP3   OH247637   5.534   5.685   4.851 -0.5289  0.2813 -0.9212
 8741TIP3    H147638   5.538   5.610   4.910  0.1502  0.3908 -0.8183
 8741TIP3    H247639   5.441   5.693   4.828 -0.8462  0.4098  0.3507
 8742TIP3   OH247640   6.429   3.975   5.632  0.1995 -0.3629  0.3310
 8742TIP3    H147641   6.507   3.922   5.618  0.4927  0.1896 -0.1748
 8742TIP3    H247642   6.449   4.058   5.589  0.9312  1.2623  3.4664
 8743TIP3   OH247643   3.384   1.060   4.825 -0.6382 -0.3476 -0.1185
 8743TIP3    H147644   3.354   1.072   4.735 -0.6053 -1.0059 -0.2177
 8743TIP3    H247645   3.333   0.986   4.858 -2.3941  1.3388  1.1935
 8744TIP3   OH247646   3.889   4.009  15.164  0.0220 -0.2576  0.1080
 8744TIP3    H147647   3.924   3.932  15.120 -0.5395  1.0073 -2.7942
 8744TIP3    H247648   3.830   3.975  15.231  1.7660 -2.3207  0.6871
 8745TIP3   OH247649   6.048   1.018  12.500 -0.3984  0.2818  0.1475
 8745TIP3    H147650   6.040   1.093  12.558 -2.8026 -1.4961  2.3691
 8745TIP3    H247651   5.958   0.995  12.478  0.1766 -2.2706  0.0935
 8746TIP3   OH247652   4.013   1.832  14.968  0.5873 -0.4008 -0.3742
 8746TIP3    H147653   4.095   1.782  14.970  0.3961 -0.8145 -1.8497
 8746TIP3    H247654   4.023   1.896  15.038  1.1581 -2.0043  1.0764
 8747TIP3   OH247655   4.137   5.143  15.411 -0.1421 -0.3411 -0.2403
 8747TIP3    H147656   4.127   5.050  15.392  0.1032 -0.7656  1.4861
 8747TIP3    H247657   4.179   5.180  15.333  0.8933 -1.9207 -0.4649
 8748TIP3   OH247658   1.946   0.172  12.951 -0.0356 -0.1365 -0.4646
 8748TIP3    H147659   1.885   0.111  12.993  0.4314  0.0471  0.5234
 8748TIP3    H247660   1.896   0.253  12.942 -0.0733 -0.1079 -0.0346
 8749TIP3   OH247661   5.044   4.058  15.763 -0.1020  0.2245  0.0877
 8749TIP3    H147662   4.985   4.033  15.692 -0.5183 -0.8046  0.7636
 8749TIP3    H247663   5.024   3.996  15.834  2.9879 -1.3783 -0.2558
 8750TIP3   OH247664   6.396   1.634  12.856  0.9675 -0.1353 -0.0134
 8750TIP3    H147665   6.386   1.716  12.904  1.8992  0.2840 -0.5115
 8750TIP3    H247666   6.324   1.634  12.793 -1.0858 -1.2971  2.1509
 8751TIP3   OH247667   0.270   5.430  14.087 -0.0584 -0.0087 -0.5770
 8751TIP3    H147668   0.319   5.358  14.047 -0.5955 -1.2993  0.9566
 8751TIP3    H247669   0.205   5.454  14.021 -1.1558 -2.3179 -0.4336
 8752TIP3   OH247670   1.580   1.477   1.523  0.0535 -0.1227  0.0491
 8752TIP3    H147671   1.500   1.502   1.477 -0.3834 -1.2909  0.1420
 8752TIP3    H247672   1.648   1.481   1.455 -0.3461 -0.5493 -0.3852
 8753TIP3   OH247673   4.540   3.401   2.045  0.5922  0.3477  0.0070
 8753TIP3    H147674   4.598   3.400   1.968  0.5843 -1.1718 -0.0141
 8753TIP3    H247675   4.600   3.403   2.120  0.5971  2.3057  0.0050
 8754TIP3   OH247676   6.010   3.126  14.527  0.1882  0.0430 -0.5452
 8754TIP3    H147677   6.046   3.094  14.610  0.8537  0.8773 -0.5025
 8754TIP3    H247678   5.919   3.148  14.547  0.7737  1.7966  0.4192
 8755TIP3   OH247679   5.344   0.976  16.441 -0.3033 -0.6000 -0.2205
 8755TIP3    H147680   5.270   1.005  16.495  0.9336 -0.0019  1.2574
 8755TIP3    H247681   5.325   0.885  16.421 -0.7283 -0.9263  1.4697
 8756TIP3   OH247682   6.170   2.547   5.382 -0.3794  0.5168  0.0916
 8756TIP3    H147683   6.262   2.537   5.407 -0.6065 -0.6029  0.5683
 8756TIP3    H247684   6.170   2.616   5.316  0.6892  1.1536  0.7206
 8757TIP3   OH247685   0.168   2.983  16.067 -0.5847  0.3035 -0.5709
 8757TIP3    H147686   0.095   2.921  16.058  0.6020 -1.0695 -1.1285
 8757TIP3    H247687   0.204   2.966  16.154  0.5092 -0.7087 -1.1906
 8758TIP3   OH247688   4.803   0.351   5.667  0.4579 -0.3180 -0.8929
 8758TIP3    H147689   4.773   0.400   5.591  0.0353 -1.6906 -1.6364
 8758TIP3    H247690   4.773   0.261   5.652 -0.4467 -0.4588  1.3132
 8759TIP3   OH247691   0.318   6.735   6.440  0.1133  0.0466  0.4059
 8759TIP3    H147692   0.294   6.773   6.524  0.4485  1.7965 -0.2511
 8759TIP3    H247693   0.381   6.796   6.402  1.1042 -1.4553 -0.4907
 8760TIP3   OH247694   3.759   0.467   0.604 -0.2922  0.3938 -0.6091
 8760TIP3    H147695   3.747   0.377   0.572 -0.2404  0.2982 -0.3633
 8760TIP3    H247696   3.765   0.520   0.525 -1.1651  0.2917 -0.7617
 8761TIP3   OH247697   6.591   6.241  13.925 -0.4186  0.3248  0.3707
 8761TIP3    H147698   6.534   6.318  13.925 -0.3360  0.3929 -0.5458
 8761TIP3    H247699   6.568   6.194  14.005 -1.4139  0.6124  0.2630
 8762TIP3   OH247700   2.325   0.774   0.607  0.3597  0.3208 -0.2545
 8762TIP3    H147701   2.395   0.710   0.621  1.0159  0.8358 -1.0946
 8762TIP3    H247702   2.363   0.857   0.634 -0.6492  0.3210  1.2845
 8763TIP3   OH247703   2.237   0.359  13.071 -0.3131  0.3884 -0.0475
 8763TIP3    H147704   2.282   0.327  13.149 -2.2054  1.2273  1.4482
 8763TIP3    H247705   2.146   0.368  13.097 -0.4107  4.3804 -1.1296
 8764TIP3   OH247706   3.697   2.145  16.553 -0.1912 -0.2938 -0.3415
 8764TIP3    H147707   3.701   2.125  16.647 -2.7653  0.1903 -0.0565
 8764TIP3    H247708   3.661   2.234  16.549  0.9399  0.1410 -1.7990
 8765TIP3   OH247709   4.688   6.700   5.957  0.0148 -0.2319 -0.6595
 8765TIP3    H147710   4.749   6.709   5.884  1.1614 -0.1965  0.2761
 8765TIP3    H247711   4.658   6.789   5.975 -1.6480 -0.4265 -2.1823
 8766TIP3   OH247712   2.937   0.841   0.944  0.3481  0.1009 -0.0908
 8766TIP3    H147713   2.889   0.766   0.907 -0.1592  0.9239 -1.1600
 8766TIP3    H247714   2.912   0.842   1.036  1.6657 -2.0258  0.3804
 8767TIP3   OH247715   1.213   1.853  11.957 -0.4923 -0.6592  0.3681
 8767TIP3    H147716   1.264   1.934  11.964 -1.9618  0.4868 -1.2793
 8767TIP3    H247717   1.223   1.811  12.043 -1.2585  2.2527  2.0132
 8768TIP3   OH247718   4.102   0.922   1.123 -0.0889  0.3200 -0.0327
 8768TIP3    H147719   4.135   0.855   1.063  1.2231  0.3335  0.6391
 8768TIP3    H247720   4.047   0.979   1.068 -0.5360 -0.8070 -0.7852
 8769TIP3   OH247721   2.404   0.303  12.851 -0.5493 -0.1319 -0.2814
 8769TIP3    H147722   2.363   0.247  12.786 -0.6181  0.5575 -0.8407
 8769TIP3    H247723   2.340   0.311  12.922 -0.5167 -0.7933 -0.1796
 8770TIP3   OH247724   4.954   4.800  11.668  0.3277  0.5880  0.1314
 8770TIP3    H147725   4.922   4.877  11.715 -0.2568  1.1153 -1.0779
 8770TIP3    H247726   5.045   4.819  11.649  0.4877  0.4956  0.7889
 8771TIP3   OH247727   0.695   5.801  15.927  0.2824 -0.3454  0.1735
 8771TIP3    H147728   0.623   5.863  15.916  0.6237 -0.1673 -1.1908
 8771TIP3    H247729   0.652   5.718  15.948 -0.1876  0.2563  1.7323
 8772TIP3   OH247730   4.600   2.808  11.817 -0.3019  0.3160 -0.6778
 8772TIP3    H147731   4.617   2.842  11.905 -1.2520  2.3256 -1.1999
 8772TIP3    H247732   4.652   2.727  11.811  3.4895  2.4663  0.1006
 8773TIP3   OH247733   2.585   0.942   6.693  0.1149  0.0410  0.3554
 8773TIP3    H147734   2.575   1.035   6.713  0.3464  0.0581  0.3976
 8773TIP3    H247735   2.676   0.933   6.665 -0.2066  0.0253 -0.7549
 8774TIP3   OH247736   1.338   0.384   5.785  0.4379 -0.0932  0.0962
 8774TIP3    H147737   1.422   0.338   5.789 -0.5642 -1.9419  1.0809
 8774TIP3    H247738   1.313   0.395   5.877 -0.8345 -0.4109 -0.1973
 8775TIP3   OH247739   5.617   5.092   0.760  0.1149 -0.1416 -0.2736
 8775TIP3    H147740   5.632   5.004   0.726 -1.3857  0.2352 -2.0571
 8775TIP3    H247741   5.633   5.150   0.685 -0.1022  1.0156  0.5470
 8776TIP3   OH247742   5.432   2.401   0.431  0.1997  0.1749 -0.9222
 8776TIP3    H147743   5.408   2.410   0.338  0.7157  0.8112 -0.9960
 8776TIP3    H247744   5.527   2.399   0.432  0.2478 -3.0298 -0.6843
 8777TIP3   OH247745   1.235   4.421   2.933 -0.3165  0.2052  0.1141
 8777TIP3    H147746   1.162   4.416   2.872  1.1201 -1.2268 -1.6107
 8777TIP3    H247747   1.210   4.490   2.995 -1.8106  1.8592 -2.1629
 8778TIP3   OH247748   2.504   6.339  12.802  0.3025 -0.4343  0.4823
 8778TIP3    H147749   2.503   6.432  12.826  1.3141 -0.2518 -0.1341
 8778TIP3    H247750   2.413   6.320  12.780  0.4418  1.0693 -1.7763
 8779TIP3   OH247751   0.833   5.045  16.866 -0.1648  0.1773  0.7099
 8779TIP3    H147752   0.833   5.055  16.771  0.3382 -3.4926  0.1613
 8779TIP3    H247753   0.746   5.012  16.886  0.6634 -2.0308  0.9818
 8780TIP3   OH247754   2.646   1.331  11.657 -0.3615  0.2103 -0.8015
 8780TIP3    H147755   2.621   1.370  11.574  1.5106  2.3618 -0.4604
 8780TIP3    H247756   2.739   1.353  11.667 -0.1782 -1.1769  1.2248
 8781TIP3   OH247757   0.380   1.301  11.771 -0.3173 -0.3607 -0.0597
 8781TIP3    H147758   0.392   1.288  11.677  1.1016 -0.7946  0.1523
 8781TIP3    H247759   0.420   1.224  11.811  0.8514  0.7145  0.9468
 8782TIP3   OH247760   6.393   2.758  17.003  0.3707 -0.1611 -0.6929
 8782TIP3    H147761   6.442   2.697  16.948 -0.7649 -1.6963 -0.0786
 8782TIP3    H247762   6.382   2.712  17.086 -3.7224 -0.7954 -1.3797
 8783TIP3   OH247763   6.234   6.051  15.613 -0.0263 -0.6015  0.0590
 8783TIP3    H147764   6.265   5.971  15.570  1.4959 -0.1932  0.3237
 8783TIP3    H247765   6.295   6.118  15.584 -2.4407  0.9487 -1.7662
 8784TIP3   OH247766   5.252   1.106  12.202  0.7184 -0.4800 -0.3835
 8784TIP3    H147767   5.196   1.074  12.273  0.7074  1.7187  0.6931
 8784TIP3    H247768   5.242   1.201  12.205  1.5868 -0.2451 -2.6553
 8785TIP3   OH247769   4.984   2.421  16.179 -1.2673  0.0597  0.4794
 8785TIP3    H147770   4.999   2.335  16.219 -0.2840  0.4916  1.0903
 8785TIP3    H247771   4.951   2.401  16.092  4.0709 -1.2294 -1.6803
 8786TIP3   OH247772   4.857   1.401  17.314  0.0950 -0.5087 -0.0307
 8786TIP3    H147773   4.832   1.328  17.256 -0.5545 -2.2475  2.3001
 8786TIP3    H247774   4.775   1.427  17.356  0.8377 -0.6865  1.5852
 8787TIP3   OH247775   6.567   2.694   3.565 -0.6728 -0.4269 -0.1855
 8787TIP3    H147776   6.496   2.638   3.536  0.4148 -1.3543 -1.2021
 8787TIP3    H247777   6.633   2.633   3.600  0.2136  0.2631 -0.6036
 8788TIP3   OH247778   4.097   3.273  16.576  0.1969 -0.2713  0.2684
 8788TIP3    H147779   4.123   3.302  16.488  0.3486  0.3078  0.5007
 8788TIP3    H247780   4.168   3.301  16.633 -1.4477  2.6155  1.1348
 8789TIP3   OH247781   2.362   5.486  13.121  0.4058 -0.2024  0.0481
 8789TIP3    H147782   2.342   5.496  13.214 -1.4885 -0.6202 -0.2836
 8789TIP3    H247783   2.411   5.404  13.116 -0.5460 -0.8236  0.5524
 8790TIP3   OH247784   1.242   1.856   2.511  0.0383 -0.4421  0.2587
 8790TIP3    H147785   1.326   1.836   2.470 -0.5002 -0.3648 -0.9365
 8790TIP3    H247786   1.229   1.949   2.495 -0.0591 -0.3483  0.8611
 8791TIP3   OH247787   5.543   0.625   3.745  0.3232  0.1183 -0.1876
 8791TIP3    H147788   5.503   0.677   3.814 -2.5888 -0.7575 -1.0717
 8791TIP3    H247789   5.592   0.557   3.791 -1.7486 -0.6001  1.0744
 8792TIP3   OH247790   4.689   2.379  10.806 -0.2254  0.0188  0.1928
 8792TIP3    H147791   4.680   2.284  10.801 -0.8478 -0.0836  2.3346
 8792TIP3    H247792   4.615   2.413  10.756  1.0142 -0.5323 -2.1746
 8793TIP3   OH247793   3.039   3.583   5.485 -0.1524 -0.6784 -0.0310
 8793TIP3    H147794   2.991   3.503   5.462 -0.8546 -0.3106  0.1325
 8793TIP3    H247795   2.973   3.640   5.525  0.4450 -0.1985  0.2829
 8794TIP3   OH247796   4.617   4.234  15.811 -0.2055 -0.1316 -0.4568
 8794TIP3    H147797   4.538   4.208  15.762 -0.8042 -1.7599  1.2813
 8794TIP3    H247798   4.635   4.161  15.869  2.1631  0.5512 -0.2249
 8795TIP3   OH247799   0.609   3.522  16.616 -0.0066 -0.4139 -0.1941
 8795TIP3    H147800   0.665   3.501  16.541  0.1106 -0.1599 -0.1792
 8795TIP3    H247801   0.598   3.617  16.612  0.1411 -0.3777  0.2093
 8796TIP3   OH247802   0.146   0.990  15.811 -0.0776 -0.5344 -0.3182
 8796TIP3    H147803   0.182   1.074  15.782 -1.4370 -0.6587 -2.6185
 8796TIP3    H247804   0.218   0.949  15.859  0.7875  1.6965  0.4587
 8797TIP3   OH247805   4.945   3.714   6.176 -0.2299  0.2300 -0.5463
 8797TIP3    H147806   5.005   3.741   6.245  0.0033  1.3800 -1.1783
 8797TIP3    H247807   4.976   3.759   6.098 -0.7627 -0.6938 -1.3117
 8798TIP3   OH247808   1.403   1.856  12.735 -0.2484  0.0081 -0.0523
 8798TIP3    H147809   1.488   1.853  12.779 -0.1482 -1.2567 -0.3061
 8798TIP3    H247810   1.420   1.823  12.647 -1.3395 -2.1384  0.4807
 8799TIP3   OH247811   1.052   1.980  15.849  0.1777 -0.6052 -0.4447
 8799TIP3    H147812   1.006   1.976  15.765 -0.5940  1.6284 -0.1896
 8799TIP3    H247813   0.998   1.928  15.909  0.4344 -1.7376 -1.1683
 8800TIP3   OH247814   1.308   2.131  11.947 -0.3280  0.8152 -0.1838
 8800TIP3    H147815   1.324   2.221  11.976  0.3256  1.7935 -3.2263
 8800TIP3    H247816   1.212   2.124  11.943 -0.4604  0.5538  2.2007
 8801TIP3   OH247817   3.215   6.116   0.998 -0.2046  0.5450 -0.1510
 8801TIP3    H147818   3.240   6.167   1.075  0.7987 -0.4064  0.1834
 8801TIP3    H247819   3.148   6.055   1.030 -1.1956  1.4369 -0.4857
 8802TIP3   OH247820   0.689   1.560   0.042  0.5267 -0.0007  0.6354
 8802TIP3    H147821   0.758   1.626   0.055  0.8586 -0.5352  1.6514
 8802TIP3    H247822   0.725   1.480   0.080  0.4826 -1.0202 -1.3218
 8803TIP3   OH247823   5.779   1.237   3.091 -0.3645 -0.3760  0.0602
 8803TIP3    H147824   5.694   1.235   3.136 -0.4896 -0.0859 -0.1598
 8803TIP3    H247825   5.757   1.237   2.998 -0.1151 -0.6210  0.0011
 8804TIP3   OH247826   3.194   6.077  17.312 -0.5232 -0.0263  0.2052
 8804TIP3    H147827   3.281   6.037  17.312 -0.0583  0.9353 -0.4197
 8804TIP3    H247828   3.156   6.049  17.229  0.3255  1.8372 -0.8771
 8805TIP3   OH247829   5.936   0.065   3.959 -0.1503 -0.3293  0.2886
 8805TIP3    H147830   6.024   0.049   3.993  0.9172  0.2102 -2.0521
 8805TIP3    H247831   5.949   0.086   3.867 -2.4321  3.0402  0.5633
 8806TIP3   OH247832   5.212   0.202  15.304  0.2042  0.1590 -0.1716
 8806TIP3    H147833   5.203   0.209  15.209 -1.2689 -2.6970 -0.3548
 8806TIP3    H247834   5.202   0.108  15.323  2.8986  0.2446  2.6170
 8807TIP3   OH247835   3.479   2.170   0.559 -0.4508  0.1078 -0.9582
 8807TIP3    H147836   3.471   2.075   0.552 -0.8500  0.0883 -0.3563
 8807TIP3    H247837   3.556   2.184   0.614 -1.2399  0.0733  0.2195
 8808TIP3   OH247838   1.551   5.926   2.889  0.2439 -0.0346 -0.3838
 8808TIP3    H147839   1.638   5.895   2.914  0.6308  1.2058 -0.1557
 8808TIP3    H247840   1.496   5.905   2.965  1.1547  2.5624  1.1324
 8809TIP3   OH247841   3.683   3.794  11.798 -0.5887 -0.0868  0.4215
 8809TIP3    H147842   3.757   3.854  11.797 -0.8724  0.2672 -0.9410
 8809TIP3    H247843   3.721   3.709  11.819  0.2269  0.0738 -0.3387
 8810TIP3   OH247844   6.238   2.232  14.973 -0.0841  0.1605 -0.1514
 8810TIP3    H147845   6.219   2.312  15.023 -0.8088  2.0361 -3.1268
 8810TIP3    H247846   6.304   2.259  14.909  0.0318 -1.7868 -0.9222
 8811TIP3   OH247847   4.870   2.763  15.137  0.3752 -0.0315 -0.4229
 8811TIP3    H147848   4.928   2.715  15.197  0.5233 -0.2723 -0.7556
 8811TIP3    H247849   4.889   2.726  15.051  0.0214  0.1782 -0.5923
 8812TIP3   OH247850   5.000   1.636  16.702  0.3923  0.3511 -0.0838
 8812TIP3    H147851   4.939   1.704  16.730  0.7008  0.8976 -0.7102
 8812TIP3    H247852   4.943   1.567  16.667  0.1141  0.7741 -0.4829
 8813TIP3   OH247853   3.401   6.610  16.849  0.0136  0.1682  0.1131
 8813TIP3    H147854   3.334   6.571  16.794 -1.3104 -0.2770  1.9392
 8813TIP3    H247855   3.432   6.685  16.800 -1.9355  0.4680 -0.7428
 8814TIP3   OH247856   2.267   4.256   4.312 -0.6304  0.0718  0.1632
 8814TIP3    H147857   2.306   4.281   4.395  0.3250 -1.2258  0.1361
 8814TIP3    H247858   2.330   4.195   4.273 -0.1883  1.9903 -2.3559
 8815TIP3   OH247859   6.116   4.038   2.711 -0.2213  0.3707  0.0758
 8815TIP3    H147860   6.137   3.979   2.639 -1.9980 -2.1875  1.5198
 8815TIP3    H247861   6.183   4.021   2.777 -1.5437 -1.2359  1.0833
 8816TIP3   OH247862   0.467   3.268   2.388 -0.5736 -1.0840  0.2865
 8816TIP3    H147863   0.540   3.280   2.327 -0.6441 -0.9928  0.2178
 8816TIP3    H247864   0.410   3.344   2.371 -1.0118 -1.4966 -0.1228
 8817TIP3   OH247865   5.647   0.688  10.743  0.2115 -0.2136 -0.7975
 8817TIP3    H147866   5.713   0.732  10.797 -2.7654  1.8338  1.5877
 8817TIP3    H247867   5.625   0.609  10.792 -1.6126  1.0208  0.5289
 8818TIP3   OH247868   0.986   2.389   1.793 -0.0705 -0.1403 -0.2329
 8818TIP3    H147869   1.028   2.432   1.718 -0.7743  1.2472  0.1373
 8818TIP3    H247870   1.019   2.299   1.790  0.8367  0.1992 -1.5056
 8819TIP3   OH247871   4.054   2.556  15.374  0.5829  0.0637 -0.2234
 8819TIP3    H147872   4.048   2.461  15.386  0.2257 -0.0373 -1.1359
 8819TIP3    H247873   3.995   2.592  15.441  2.6733 -0.2062  1.9075
 8820TIP3   OH247874   2.241   0.210  14.371 -0.3817  0.1011  0.0362
 8820TIP3    H147875   2.229   0.124  14.330 -1.6987 -0.9539  2.4538
 8820TIP3    H247876   2.157   0.254  14.359 -0.1091  0.5860 -0.1252
 8821TIP3   OH247877   0.528   4.210  15.697  0.3088  0.3741 -0.1923
 8821TIP3    H147878   0.592   4.279  15.681  0.5650  0.6511  1.8073
 8821TIP3    H247879   0.447   4.241  15.656  0.9481  0.8944 -1.0790
 8822TIP3   OH247880   4.145   5.234   4.641 -0.0658  0.4184  0.2769
 8822TIP3    H147881   4.221   5.204   4.591 -0.5177 -1.1940  0.5020
 8822TIP3    H247882   4.165   5.212   4.732 -0.5682  0.4829  0.4094
 8823TIP3   OH247883   5.432   4.672   1.832  0.4727  0.1606  0.1526
 8823TIP3    H147884   5.408   4.739   1.897 -0.5523  0.1441 -0.1887
 8823TIP3    H247885   5.359   4.609   1.835  1.2236 -0.7276  0.1705
 8824TIP3   OH247886   1.054   3.578  16.162  0.1143  0.1179 -0.0709
 8824TIP3    H147887   1.091   3.597  16.076  0.4995 -0.9889 -0.1661
 8824TIP3    H247888   0.976   3.525  16.144 -0.7330  1.2443  0.1966
 8825TIP3   OH247889   2.944   0.080   5.435 -0.0496  0.3802 -0.1718
 8825TIP3    H147890   3.013   0.013   5.441 -0.9434 -0.5319  0.1617
 8825TIP3    H247891   2.917   0.094   5.525 -1.5049 -0.5750 -0.4300
 8826TIP3   OH247892   3.269   4.493   2.879  0.5850  0.0581 -0.1639
 8826TIP3    H147893   3.357   4.475   2.846  1.4242  0.2268  1.8598
 8826TIP3    H247894   3.234   4.560   2.820  1.5454 -0.4718 -1.3669
 8827TIP3   OH247895   3.889   0.910   4.359 -0.2570 -0.2201 -0.1010
 8827TIP3    H147896   3.968   0.888   4.311 -0.8992 -0.9359 -0.8739
 8827TIP3    H247897   3.860   0.994   4.322 -0.2043 -0.2717 -0.2557
 8828TIP3   OH247898   4.679   2.230   2.467 -0.0422 -0.3449  0.1732
 8828TIP3    H147899   4.598   2.189   2.438  0.9779 -2.5649  0.1801
 8828TIP3    H247900   4.733   2.235   2.387  0.3398 -0.2936  0.4290
 8829TIP3   OH247901   6.566   1.639  13.221  1.0601  0.0349  0.1951
 8829TIP3    H147902   6.564   1.663  13.314  1.1337 -1.8986  0.7397
 8829TIP3    H247903   6.590   1.720  13.176  0.0587  1.2666  1.7533
 8830TIP3   OH247904   3.106   2.627  16.057 -0.1137 -0.0124  0.1585
 8830TIP3    H147905   3.101   2.640  16.152  1.5763 -1.6805  0.5367
 8830TIP3    H247906   3.168   2.694  16.027  0.3906 -0.3424  0.4522
 8831TIP3   OH247907   6.681   5.693  13.307  0.2867  0.5266  0.0147
 8831TIP3    H147908   6.752   5.653  13.257  2.1129 -0.5647  3.1835
 8831TIP3    H247909   6.609   5.630  13.300  0.1526  0.8305 -1.8623
 8832TIP3   OH247910   4.152   2.372  13.671  0.0639 -0.0471 -0.0715
 8832TIP3    H147911   4.110   2.286  13.672 -0.8695  0.1416 -4.1323
 8832TIP3    H247912   4.239   2.356  13.634 -0.2949  0.7210 -1.3359
 8833TIP3   OH247913   4.644   1.766  13.980  0.3373  0.2431 -0.1577
 8833TIP3    H147914   4.611   1.702  13.917  1.4114 -0.1447 -0.3479
 8833TIP3    H247915   4.654   1.717  14.062 -0.3671  0.5706  0.1333
 8834TIP3   OH247916   2.675   5.694   4.579  0.3137  0.0748 -0.1700
 8834TIP3    H147917   2.631   5.767   4.536  0.2249 -2.1110 -4.2489
 8834TIP3    H247918   2.612   5.665   4.646 -1.1421  1.5449 -0.8226
 8835TIP3   OH247919   5.586   0.654   1.510  0.6493  0.4101 -0.3041
 8835TIP3    H147920   5.561   0.634   1.420 -1.9156 -0.1946  0.4717
 8835TIP3    H247921   5.573   0.748   1.518  1.0751  0.4975 -0.6056
 8836TIP3   OH247922   5.257   2.391   3.167  0.3042  0.2157  0.0682
 8836TIP3    H147923   5.347   2.418   3.146  0.6243 -0.4755  0.4979
 8836TIP3    H247924   5.255   2.386   3.263  0.5391 -2.0766  0.0127
 8837TIP3   OH247925   2.644   1.095   3.867 -0.3515  0.2837  0.0734
 8837TIP3    H147926   2.605   1.182   3.877 -0.8346  0.1649 -0.6990
 8837TIP3    H247927   2.580   1.046   3.815  0.0769 -0.4255  0.2082
 8838TIP3   OH247928   0.575   5.970  13.228  0.5381 -0.1737 -0.2632
 8838TIP3    H147929   0.496   5.964  13.174 -0.2542  0.7246  0.7663
 8838TIP3    H247930   0.568   5.898  13.290  1.8256 -1.6836 -1.7687
 8839TIP3   OH247931   4.288   1.890   4.208  0.3013  0.0083  0.4293
 8839TIP3    H147932   4.274   1.952   4.279 -1.4205  0.0275  0.1040
 8839TIP3    H247933   4.376   1.912   4.174  0.1566  1.5748  0.9856
 8840TIP3   OH247934   6.104   6.040   2.304  0.1576 -0.1817 -0.0430
 8840TIP3    H147935   6.116   5.945   2.315  0.6930 -0.0983  0.1077
 8840TIP3    H247936   6.011   6.054   2.323 -0.0774 -0.7681 -0.7083
 8841TIP3   OH247937   3.526   3.614   0.252 -0.7780  0.0389 -0.0857
 8841TIP3    H147938   3.443   3.653   0.281 -0.6315  1.4324 -1.4422
 8841TIP3    H247939   3.508   3.582   0.164  0.3547  1.2339 -0.7865
 8842TIP3   OH247940   6.554   2.707  15.780  0.5847  0.4798 -0.1076
 8842TIP3    H147941   6.600   2.623  15.785 -1.1776 -0.5371 -0.2832
 8842TIP3    H247942   6.470   2.686  15.740 -0.2251  2.2057  0.6039
 8843TIP3   OH247943   1.540   5.652   2.664  0.5699  0.1715  0.2941
 8843TIP3    H147944   1.500   5.566   2.671  1.3530 -0.1935  0.4425
 8843TIP3    H247945   1.467   5.714   2.667  0.0092 -0.4841  0.2307
 8844TIP3   OH247946   2.395   0.028  15.972 -0.8655  0.3159  0.0772
 8844TIP3    H147947   2.489   0.037  15.983 -0.2509 -3.5800 -0.5666
 8844TIP3    H247948   2.357   0.089  16.035  2.0585  1.6616  0.6889
 8845TIP3   OH247949   0.847   5.816   5.514  0.2029 -0.5997 -0.3318
 8845TIP3    H147950   0.868   5.787   5.603  0.0882 -0.5925 -0.3034
 8845TIP3    H247951   0.787   5.889   5.526  0.5061 -0.3350 -0.4030
 8846TIP3   OH247952   5.417   1.080  12.866  0.0403 -0.5792 -0.3090
 8846TIP3    H147953   5.504   1.065  12.904  0.4664  0.4076 -0.8770
 8846TIP3    H247954   5.356   1.041  12.930  0.9609 -3.0802 -0.8349
 8847TIP3   OH247955   2.780   6.383   0.026 -0.4125 -0.2641  0.1723
 8847TIP3    H147956   2.875   6.389   0.030 -0.3303 -0.7069 -0.7379
 8847TIP3    H247957   2.761   6.290   0.039 -0.6528 -0.3181 -0.4843
 8848TIP3   OH247958   3.617   3.847   3.747 -0.3063 -0.4084  0.4052
 8848TIP3    H147959   3.712   3.841   3.749 -0.3473 -1.2582  0.2249
 8848TIP3    H247960   3.598   3.937   3.771  0.5386 -0.2691  0.5789
 8849TIP3   OH247961   1.338   5.407  14.096 -0.1007 -0.1286  0.4402
 8849TIP3    H147962   1.350   5.491  14.052 -2.1114  0.0310  0.1000
 8849TIP3    H247963   1.330   5.429  14.189 -0.2292  0.0225  0.3941
 8850TIP3   OH247964   3.479   3.819  15.629  0.4134  0.0541 -0.1533
 8850TIP3    H147965   3.535   3.741  15.623  1.1335  0.3967  1.3745
 8850TIP3    H247966   3.440   3.828  15.543  1.1085 -1.4167 -0.6563
 8851TIP3   OH247967   3.155   0.191  16.207 -0.2277  0.8111  0.0355
 8851TIP3    H147968   3.078   0.201  16.264 -0.0482 -2.0657  0.9000
 8851TIP3    H247969   3.124   0.139  16.133  0.6494  0.4565 -0.0934
 8852TIP3   OH247970   1.624   2.395  15.548  0.3558 -0.6946  0.0897
 8852TIP3    H147971   1.633   2.418  15.455 -0.6061 -0.9675 -0.0797
 8852TIP3    H247972   1.531   2.379  15.560  0.0929  1.4950  1.6051
 8853TIP3   OH247973   2.054   6.061  11.752 -0.0447  0.1436  0.1433
 8853TIP3    H147974   2.033   5.977  11.709  1.5652 -0.2462  0.0590
 8853TIP3    H247975   2.101   6.036  11.832 -0.9855  0.9410  0.9676
 8854TIP3   OH247976   4.914   0.823   5.401 -0.2215  0.0105 -0.4425
 8854TIP3    H147977   5.006   0.817   5.427 -0.5362 -0.8444  0.5619
 8854TIP3    H247978   4.883   0.905   5.440 -0.1023 -0.1279 -0.0528
 8855TIP3   OH247979   1.941   1.788   1.253 -0.7134  0.5801  0.2943
 8855TIP3    H147980   1.869   1.726   1.254 -0.4072  0.2246  0.3421
 8855TIP3    H247981   1.904   1.868   1.292 -0.9024  0.2034  0.8951
 8856TIP3   OH247982   1.899   4.662   5.196  0.6008  0.3497  0.2483
 8856TIP3    H147983   1.831   4.620   5.143 -0.6526  1.6384  0.8078
 8856TIP3    H247984   1.981   4.635   5.153 -0.2879 -0.1905 -1.2027
 8857TIP3   OH247985   4.920   0.652  15.051  0.0537 -0.1230  1.0001
 8857TIP3    H147986   4.830   0.685  15.054 -0.0688 -0.4831  1.3709
 8857TIP3    H247987   4.940   0.629  15.141 -0.2672 -2.1118  0.6181
 8858TIP3   OH247988   3.845   6.544   1.027  0.3115 -0.4113 -0.0901
 8858TIP3    H147989   3.933   6.581   1.018 -0.2557  0.7002 -1.3434
 8858TIP3    H247990   3.787   6.620   1.028 -0.8010 -1.1973 -1.5307
 8859TIP3   OH247991   0.285   6.133  11.616  0.5819 -0.3541 -0.0037
 8859TIP3    H147992   0.304   6.165  11.704 -0.3513  1.8085 -0.5182
 8859TIP3    H247993   0.191   6.114  11.617  0.9252 -2.1430 -0.0194
 8860TIP3   OH247994   5.130   2.702   5.625 -0.2302 -0.3210 -0.5187
 8860TIP3    H147995   5.155   2.611   5.641 -1.2199 -0.5051  0.0839
 8860TIP3    H247996   5.138   2.745   5.710  0.7004  0.2914 -0.8998
 8861TIP3   OH247997   5.908   4.540   0.011  0.2206 -0.2398  0.5044
 8861TIP3    H147998   5.844   4.477   0.043  0.1068  0.3879  1.5663
 8861TIP3    H247999   5.943   4.501  -0.069 -2.1292 -0.1944 -0.6084
 8862TIP3   OH248000   6.383   6.091  13.806  0.1330  0.2322 -0.4256
 8862TIP3    H148001   6.464   6.137  13.826  1.6673 -1.4785 -2.2966
 8862TIP3    H248002   6.322   6.119  13.875  2.5542  0.8461  1.6279
 8863TIP3   OH248003   1.526   5.003  11.600 -0.1689  0.5848 -0.2046
 8863TIP3    H148004   1.510   4.945  11.526  0.1770  0.6551 -0.3326
 8863TIP3    H248005   1.464   5.075  11.588  1.6525  1.9963 -1.9018
 8864TIP3   OH248006   5.209   5.900  13.367 -0.9446 -1.0458  0.5964
 8864TIP3    H148007   5.118   5.871  13.378 -1.4510  0.4844  0.6353
 8864TIP3    H248008   5.247   5.895  13.455 -1.8541  0.9886  1.1610
 8865TIP3   OH248009   6.663   1.799   4.017  0.0847 -0.4774 -0.5077
 8865TIP3    H148010   6.593   1.784   3.952 -0.3912  0.1870 -0.1551
 8865TIP3    H248011   6.742   1.766   3.974 -0.1018  0.5592 -1.7128
 8866TIP3   OH248012   3.844   1.122  11.825  0.5898 -0.0962  0.2292
 8866TIP3    H148013   3.887   1.136  11.910 -0.5682  0.6471  0.7286
 8866TIP3    H248014   3.835   1.210  11.789 -0.4293 -0.2321  0.1194
 8867TIP3   OH248015   4.599   4.427  13.195  0.1630 -0.4973  0.0865
 8867TIP3    H148016   4.562   4.477  13.122 -1.3491 -0.7705  0.6328
 8867TIP3    H248017   4.692   4.452  13.197  0.2932 -0.5913 -2.0123
 8868TIP3   OH248018   5.962   2.758  16.646 -0.7966  0.3888 -0.0561
 8868TIP3    H148019   5.920   2.775  16.730 -0.6085  0.2101  0.0758
 8868TIP3    H248020   6.003   2.672  16.656  0.5635  1.0347  0.2104
 8869TIP3   OH248021   1.443   1.439  15.668  0.2989 -0.0631  0.1327
 8869TIP3    H148022   1.384   1.394  15.607  1.2012 -1.3976  0.1881
 8869TIP3    H248023   1.491   1.501  15.614  0.7663 -0.9139 -0.4509
 8870TIP3   OH248024   0.239   6.663   2.292  0.1253 -0.9241 -0.2848
 8870TIP3    H148025   0.323   6.691   2.329 -0.1710 -1.6775  1.0348
 8870TIP3    H248026   0.252   6.571   2.269 -0.7037 -1.4428  1.1825
 8871TIP3   OH248027   6.461   3.239  11.791 -0.5784 -0.2962  0.3946
 8871TIP3    H148028   6.463   3.257  11.697  0.7744 -0.3769  0.3888
 8871TIP3    H248029   6.507   3.314  11.830 -0.5673 -0.5839  0.9340
 8872TIP3   OH248030   3.977   3.273  16.188 -0.2727  0.5275 -0.4176
 8872TIP3    H148031   4.022   3.214  16.126 -0.1036  1.9716 -1.7300
 8872TIP3    H248032   4.032   3.271  16.266  0.8745  0.5362 -1.1990
 8873TIP3   OH248033   4.920   1.732  11.499  0.1638 -0.7825  0.2965
 8873TIP3    H148034   4.844   1.677  11.481 -0.5784  0.3904 -0.3143
 8873TIP3    H248035   4.970   1.731  11.418  0.0229 -0.3836  0.2015
 8874TIP3   OH248036   4.412   4.812   1.407  0.2185  0.1429 -0.2896
 8874TIP3    H148037   4.362   4.874   1.460 -0.2483 -0.9844  0.6650
 8874TIP3    H248038   4.503   4.841   1.414 -0.0334  0.9283 -0.1885
 8875TIP3   OH248039   2.775   4.192   0.936 -0.5163  0.5275  0.2642
 8875TIP3    H148040   2.842   4.246   0.976  2.0094 -1.7804 -0.5191
 8875TIP3    H248041   2.741   4.138   1.008 -0.4521  0.6796  0.4071
 8876TIP3   OH248042   2.756   5.039  13.206  0.2314 -0.3714  0.2266
 8876TIP3    H148043   2.727   4.950  13.228  2.5802 -1.8161 -2.0309
 8876TIP3    H248044   2.833   5.027  13.151  0.6314  3.1096 -0.2129
 8877TIP3   OH248045   1.727   2.286   0.839 -0.5057  0.1629 -0.5239
 8877TIP3    H148046   1.806   2.336   0.857 -0.0186 -0.2776 -1.3642
 8877TIP3    H248047   1.723   2.221   0.908  0.1122 -0.0937 -0.7234
 8878TIP3   OH248048   1.456   1.867   5.275 -0.2519  0.0968 -0.3327
 8878TIP3    H148049   1.519   1.896   5.341 -0.4794 -1.3123  0.5441
 8878TIP3    H248050   1.424   1.948   5.235  1.0661  0.8966  0.1759
 8879TIP3   OH248051   2.251   4.136   0.360 -0.3557 -0.2580  0.1092
 8879TIP3    H148052   2.194   4.154   0.285 -1.0727 -3.2444 -0.2185
 8879TIP3    H248053   2.269   4.221   0.398 -3.5332  1.0249 -0.8974
 8880TIP3   OH248054   4.763   1.218   4.123  0.0153 -0.1537  0.2784
 8880TIP3    H148055   4.704   1.208   4.049 -0.1039 -1.1558  0.4845
 8880TIP3    H248056   4.842   1.169   4.098 -0.5230 -1.6396  1.2999
 8881TIP3   OH248057   5.643   4.581   5.788 -0.2834  0.5889  0.3519
 8881TIP3    H148058   5.692   4.653   5.749  0.7875  0.5177  1.5000
 8881TIP3    H248059   5.553   4.612   5.792 -0.3424  0.8028 -1.6114
 8882TIP3   OH248060   0.789   1.998  14.909 -0.6602  0.3074 -0.2106
 8882TIP3    H148061   0.874   1.967  14.879 -1.2274  1.4747 -3.4678
 8882TIP3    H248062   0.807   2.082  14.951 -0.1062 -0.0192  0.2124
 8883TIP3   OH248063   4.106   6.377   1.975  0.1312  0.3394  0.0244
 8883TIP3    H148064   4.029   6.323   1.995  1.0474 -1.5007 -1.1932
 8883TIP3    H248065   4.070   6.457   1.937 -1.1920 -0.8889 -1.4497
 8884TIP3   OH248066   0.400   3.581  12.367 -0.1755  0.0106  0.2183
 8884TIP3    H148067   0.306   3.572  12.382 -0.5362  0.5245 -1.5667
 8884TIP3    H248068   0.409   3.659  12.312  1.2468 -0.3400 -0.0981
 8885TIP3   OH248069   0.533   0.379  15.485  0.0325 -0.2144  0.0608
 8885TIP3    H148070   0.490   0.312  15.433  2.1850 -1.8123  0.2114
 8885TIP3    H248071   0.476   0.391  15.561 -0.0836 -2.4476  0.3982
 8886TIP3   OH248072   6.227   0.362  12.653  0.0952 -0.4413 -0.2371
 8886TIP3    H148073   6.189   0.275  12.641 -1.0861  0.2098 -1.5375
 8886TIP3    H248074   6.234   0.372  12.748 -0.9658 -1.4524 -0.0261
 8887TIP3   OH248075   1.539   0.447   0.473 -0.3410 -0.0740 -0.4793
 8887TIP3    H148076   1.605   0.469   0.540 -1.9241  1.3729  0.7156
 8887TIP3    H248077   1.538   0.352   0.470  0.7049 -0.1451  0.6063
 8888TIP3   OH248078   1.203   0.003  14.386 -0.1036  0.7327 -0.0372
 8888TIP3    H148079   1.141   0.064  14.346 -2.6566 -1.2052  0.6606
 8888TIP3    H248080   1.201  -0.074  14.329  1.7325  0.6399 -0.0124
 8889TIP3   OH248081   4.973   4.434   3.176 -0.5235 -0.3049  0.3219
 8889TIP3    H148082   5.045   4.496   3.161 -0.6173  0.5197  2.8138
 8889TIP3    H248083   4.966   4.428   3.271 -1.6937 -2.8445  0.1632
 8890TIP3   OH248084   3.297   1.382  15.088 -0.1330  0.5059 -0.4679
 8890TIP3    H148085   3.351   1.449  15.130  2.0018 -2.0959  1.2693
 8890TIP3    H248086   3.209   1.397  15.122  0.3074  2.2584  0.0088
 8891TIP3   OH248087   4.342   3.523  11.923  0.0223 -0.4955 -0.1721
 8891TIP3    H148088   4.387   3.599  11.886 -2.4503  1.0178 -0.3498
 8891TIP3    H248089   4.387   3.506  12.005  1.3229  0.4731 -0.6484
 8892TIP3   OH248090   2.907   4.876   2.871  0.3051 -0.0768  0.4729
 8892TIP3    H148091   2.959   4.804   2.906  2.2245  1.0715  0.0985
 8892TIP3    H248092   2.930   4.951   2.925 -2.2173  0.1730  1.3366
 8893TIP3   OH248093   6.294   3.309   1.383 -0.3929 -0.0580 -0.4290
 8893TIP3    H148094   6.316   3.234   1.438  2.6760 -0.7876 -2.3608
 8893TIP3    H248095   6.332   3.384   1.428 -2.1694  0.1621  0.7727
 8894TIP3   OH248096   1.405   3.921  11.964  0.7428  0.2202  0.3731
 8894TIP3    H148097   1.490   3.885  11.938  0.4960  0.6672 -1.1752
 8894TIP3    H248098   1.423   4.012  11.987  0.8055  0.0889  0.8549
 8895TIP3   OH248099   0.612   3.221  15.269 -0.4007  0.5949  0.4393
 8895TIP3    H148100   0.599   3.172  15.351 -1.1460  0.7126  0.4055
 8895TIP3    H248101   0.585   3.160  15.201 -0.4130  0.7237  0.3297
 8896TIP3   OH248102   2.301   6.677  14.216 -0.1851  0.1603 -0.4442
 8896TIP3    H148103   2.224   6.624  14.197  0.1167 -0.1732 -0.7457
 8896TIP3    H248104   2.337   6.700  14.130  0.5049 -0.3600 -0.3113
 8897TIP3   OH248105   4.527   1.818  11.218  0.1579 -0.5880  0.5362
 8897TIP3    H148106   4.507   1.788  11.129  2.2605  0.4238 -0.3473
 8897TIP3    H248107   4.588   1.752  11.251  1.7641  0.6001  0.0366
 8898TIP3   OH248108   1.880   2.874   0.301  0.2554  0.3992  0.3809
 8898TIP3    H148109   1.916   2.790   0.331  0.2993 -0.6922 -2.4014
 8898TIP3    H248110   1.786   2.864   0.312  0.3484  0.7058  1.6440
 8899TIP3   OH248111   2.846   1.566   2.428 -0.4004  0.0269 -0.2653
 8899TIP3    H148112   2.934   1.591   2.401 -0.1222  0.1267  0.7121
 8899TIP3    H248113   2.827   1.622   2.503 -1.7292  0.7889 -1.1116
 8900TIP3   OH248114   2.364   2.584   5.839  0.4953 -0.6777  0.2885
 8900TIP3    H148115   2.334   2.523   5.907  0.2590 -2.7239 -1.5445
 8900TIP3    H248116   2.289   2.592   5.780  1.5472 -1.1371 -1.1749
 8901TIP3   OH248117   2.902   4.125  13.595  0.1845  0.0880  0.3625
 8901TIP3    H148118   2.958   4.048  13.588  1.1718  0.8456 -0.2984
 8901TIP3    H248119   2.871   4.139  13.505 -0.3266  0.2223  0.5584
 8902TIP3   OH248120   5.972   0.976  17.371 -0.3853  0.0596  0.0785
 8902TIP3    H148121   5.892   0.923  17.370 -1.2929  1.3804 -1.3823
 8902TIP3    H248122   6.039   0.918  17.334 -1.1886 -0.3321 -0.8041
 8903TIP3   OH248123   3.626   1.679   6.446 -0.5071 -0.1801  0.8435
 8903TIP3    H148124   3.655   1.589   6.463 -1.2261 -0.6196 -0.1673
 8903TIP3    H248125   3.707   1.727   6.430 -0.0057 -0.3288  2.6914
 8904TIP3   OH248126   4.170   5.484   0.794 -0.2509  0.5653  0.7480
 8904TIP3    H148127   4.210   5.430   0.862 -0.9550 -0.0850  0.6539
 8904TIP3    H248128   4.089   5.516   0.833 -0.9534 -0.2816  0.0428
 8905TIP3   OH248129   2.878   6.166   2.370 -0.2147  0.1642  0.4149
 8905TIP3    H148130   2.914   6.255   2.377  0.0842  0.0028  0.9812
 8905TIP3    H248131   2.819   6.170   2.294  2.0823  0.0641 -1.4890
 8906TIP3   OH248132   4.188   1.149   3.136  0.6356  0.5677 -0.8314
 8906TIP3    H148133   4.176   1.243   3.146  2.4609  0.6746  1.1791
 8906TIP3    H248134   4.172   1.132   3.043 -2.9005  2.2725 -0.6945
 8907TIP3   OH248135   1.663   0.673  13.710  0.0301 -0.8879  0.6035
 8907TIP3    H148136   1.629   0.587  13.685 -0.2299 -0.1857 -1.6482
 8907TIP3    H248137   1.751   0.655  13.745 -0.5039 -2.1579  1.3765
 8908TIP3   OH248138   4.041   0.155   5.681  0.0654  0.5438 -0.8130
 8908TIP3    H148139   4.121   0.145   5.733 -0.0986 -0.1517 -0.6872
 8908TIP3    H248140   3.986   0.214   5.734  0.4851  1.0266 -0.9006
 8909TIP3   OH248141   1.720   0.580   3.359  0.1980 -0.1786  0.5734
 8909TIP3    H148142   1.641   0.573   3.413  0.0930  0.6960  0.5410
 8909TIP3    H248143   1.732   0.492   3.323 -0.8722 -0.2736  0.4195
 8910TIP3   OH248144   5.867   2.189   6.097 -0.0862  0.1480  0.3340
 8910TIP3    H148145   5.905   2.164   6.181 -3.5202 -0.9512  1.7656
 8910TIP3    H248146   5.829   2.276   6.112 -1.3576 -0.3626  0.1987
 8911TIP3   OH248147   3.760   2.804   1.255  0.5136 -0.0789 -0.3426
 8911TIP3    H148148   3.667   2.796   1.237 -0.0588  0.4959  2.0192
 8911TIP3    H248149   3.766   2.870   1.325  2.6620 -0.3118 -0.2248
 8912TIP3   OH248150   3.852   3.831   5.369  0.0552 -0.3864 -0.3744
 8912TIP3    H148151   3.830   3.880   5.448 -1.8533 -0.3890 -0.8477
 8912TIP3    H248152   3.916   3.766   5.397  1.5286  1.4064  0.5664
 8913TIP3   OH248153   4.924   3.321   5.906  0.0386 -0.3981 -0.4386
 8913TIP3    H148154   4.982   3.359   5.972  1.2048 -0.9370 -1.1227
 8913TIP3    H248155   4.975   3.323   5.825 -0.9944 -0.6633 -1.1182
 8914TIP3   OH248156   2.743   0.553   5.652  0.0161  0.1142  0.1691
 8914TIP3    H148157   2.785   0.590   5.574  1.2012 -0.4641  0.5070
 8914TIP3    H248158   2.719   0.629   5.705 -0.4015  0.4952 -0.5436
 8915TIP3   OH248159   1.196   4.424   2.439  0.0520  0.3051  0.1531
 8915TIP3    H148160   1.199   4.357   2.507 -1.2691  0.2031  0.1348
 8915TIP3    H248161   1.223   4.505   2.484  1.0956 -0.1083  0.3069
 8916TIP3   OH248162   1.074   5.749   3.170  0.3325 -0.0429  0.0645
 8916TIP3    H148163   1.008   5.776   3.235  0.1848 -0.1116 -0.0568
 8916TIP3    H248164   1.085   5.827   3.115  0.2034 -0.0956 -0.0380
 8917TIP3   OH248165   1.082   4.435   5.361 -0.2811 -0.5145 -0.1157
 8917TIP3    H148166   1.106   4.462   5.449 -2.0847 -0.4602  0.4059
 8917TIP3    H248167   1.082   4.339   5.365 -1.0979 -0.5148  0.1947
 8918TIP3   OH248168   3.347   2.272   0.788  0.5141 -0.6861  0.2187
 8918TIP3    H148169   3.322   2.185   0.817  0.3391 -0.4123  0.9024
 8918TIP3    H248170   3.345   2.267   0.692 -1.8963 -0.7618  0.2131
 8919TIP3   OH248171   0.714   5.609   3.506  0.3478 -0.0566 -0.8097
 8919TIP3    H148172   0.790   5.557   3.478 -0.4908 -1.3683 -0.7318
 8919TIP3    H248173   0.640   5.573   3.458 -0.5986 -0.2904  0.7438
 8920TIP3   OH248174   2.767   1.661  14.945 -0.3711  0.5858  0.1710
 8920TIP3    H148175   2.851   1.659  14.898 -0.1256  0.9304  0.5923
 8920TIP3    H248176   2.765   1.579  14.993 -0.6516  0.2014 -0.4899
 8921TIP3   OH248177   4.510   5.218  15.114  0.3244  0.0852  0.0960
 8921TIP3    H148178   4.567   5.179  15.180  0.6036  1.0649  0.4507
 8921TIP3    H248179   4.567   5.230  15.038  0.3540  0.1893  0.1337
 8922TIP3   OH248180   0.604   3.176   2.985 -0.1368  0.3312 -0.3993
 8922TIP3    H148181   0.569   3.133   2.907 -0.4795  0.5508 -0.3690
 8922TIP3    H248182   0.698   3.154   2.985 -0.1618  0.2232 -0.7983
 8923TIP3   OH248183   3.017   6.315  14.564  0.4490  0.6640 -0.2976
 8923TIP3    H148184   3.076   6.250  14.602  1.6313  1.1752 -1.2288
 8923TIP3    H248185   2.945   6.264  14.528  0.1984  0.0460  1.0013
 8924TIP3   OH248186   4.637   1.501  17.117  0.4531  0.1079 -0.0168
 8924TIP3    H148187   4.558   1.503  17.172  0.2233 -2.4903 -0.0999
 8924TIP3    H248188   4.693   1.570  17.153 -1.2044  0.9662  1.0619
 8925TIP3   OH248189   4.702   1.303   0.210 -0.2475 -0.6754  0.2511
 8925TIP3    H148190   4.679   1.212   0.225 -0.9694 -0.7790 -1.2708
 8925TIP3    H248191   4.797   1.303   0.196 -0.0759 -1.0127  1.3191
 8926TIP3   OH248192   6.192   3.011   3.203  0.6084  0.0083  0.1036
 8926TIP3    H148193   6.148   3.089   3.169  1.3555  0.2105 -0.4417
 8926TIP3    H248194   6.190   3.022   3.298  0.3076  0.4740  0.0472
 8927TIP3   OH248195   0.207   4.450   3.458  0.5200  0.4579 -0.0661
 8927TIP3    H148196   0.184   4.416   3.544  0.6064 -0.5293 -0.4241
 8927TIP3    H248197   0.128   4.435   3.405  0.1249  1.9109  0.0599
 8928TIP3   OH248198   2.138   1.149   3.625 -0.4336  0.0333 -0.6122
 8928TIP3    H148199   2.190   1.112   3.697  0.3359  1.5073 -0.3787
 8928TIP3    H248200   2.098   1.228   3.661  1.6488  2.0085 -2.2892
 8929TIP3   OH248201   5.249   2.172  15.619  0.4447 -0.2101  0.2257
 8929TIP3    H148202   5.314   2.119  15.666  1.6875  0.2796 -0.8504
 8929TIP3    H248203   5.288   2.184  15.532 -0.0858  1.9276  0.2353
 8930TIP3   OH248204   0.368   2.927  12.562 -0.1696  0.5174 -0.0320
 8930TIP3    H148205   0.353   2.837  12.592 -1.0889  0.1956 -1.3679
 8930TIP3    H248206   0.287   2.973  12.585 -0.3339  0.6014 -0.7599
 8931TIP3   OH248207   2.740   4.686   0.477  0.8687  0.0396 -0.1140
 8931TIP3    H148208   2.784   4.664   0.558  1.3742 -0.1241 -0.4322
 8931TIP3    H248209   2.693   4.606   0.452 -1.2922  0.7737  1.2640
 8932TIP3   OH248210   0.284   2.402   3.320 -0.4363 -0.3479 -0.2100
 8932TIP3    H148211   0.268   2.389   3.414 -1.2247 -1.2951 -0.4613
 8932TIP3    H248212   0.379   2.416   3.314 -0.3222 -0.6271  0.6934
 8933TIP3   OH248213   4.164   0.843   3.308 -0.4483  0.8202 -1.2255
 8933TIP3    H148214   4.125   0.845   3.396  2.2008 -1.1673  0.1176
 8933TIP3    H248215   4.225   0.916   3.308 -0.3174  0.7102 -1.3494
 8934TIP3   OH248216   0.027   5.741   0.535  0.1107 -0.3701 -0.1944
 8934TIP3    H148217  -0.019   5.764   0.454 -1.5696  1.1966  1.1404
 8934TIP3    H248218   0.113   5.781   0.526 -0.7649  1.5584 -0.3885
 8935TIP3   OH248219   0.340   3.892   2.008  0.0537 -0.0246 -0.2660
 8935TIP3    H148220   0.270   3.840   1.968  1.6159 -4.2058  1.8055
 8935TIP3    H248221   0.311   3.908   2.097  0.9728 -0.2986  0.1004
 8936TIP3   OH248222   5.397   3.707   3.773 -0.0811  0.0049  0.5277
 8936TIP3    H148223   5.465   3.694   3.708  0.0285 -2.0354  0.9817
 8936TIP3    H248224   5.334   3.765   3.730  0.8455  0.1446 -0.7109
 8937TIP3   OH248225   0.971   3.928   3.675 -0.3722 -0.4474 -0.4908
 8937TIP3    H148226   0.925   3.927   3.760 -1.1119  0.1466 -0.8657
 8937TIP3    H248227   0.946   4.012   3.636  0.9110 -0.1935 -0.7957
 8938TIP3   OH248228   4.815   2.670  14.856 -0.1558 -0.9364  0.3959
 8938TIP3    H148229   4.724   2.675  14.886  0.5607  1.2975  2.4735
 8938TIP3    H248230   4.855   2.603  14.911 -0.2971 -1.2876  0.0815
 8939TIP3   OH248231   6.558   6.371   1.154 -0.1570  0.3927  0.2927
 8939TIP3    H148232   6.478   6.358   1.103  0.4438  0.5645 -0.7319
 8939TIP3    H248233   6.528   6.388   1.243 -1.2993  1.4168 -0.2615
 8940TIP3   OH248234   6.211   3.117  14.298 -0.1680  0.1866  0.9449
 8940TIP3    H148235   6.148   3.118  14.371 -0.8816  0.8178  0.3393
 8940TIP3    H248236   6.295   3.097  14.340 -0.6752 -0.1438  1.8468
 8941TIP3   OH248237   0.442   6.698   1.832  0.0005 -0.3703 -0.0263
 8941TIP3    H148238   0.407   6.725   1.917  2.1439  0.8440  0.5467
 8941TIP3    H248239   0.368   6.704   1.772 -1.4590 -0.8437  1.6514
 8942TIP3   OH248240   2.390   1.018   1.397  0.1585 -0.0952  0.5824
 8942TIP3    H148241   2.385   1.015   1.301 -0.4556 -1.2968  0.6281
 8942TIP3    H248242   2.461   0.956   1.418  0.2838  0.1594  0.9072
 8943TIP3   OH248243   3.159   4.034   2.234 -0.1202 -0.3609  0.2181
 8943TIP3    H148244   3.070   4.013   2.205 -0.8395  2.0866  0.4618
 8943TIP3    H248245   3.153   4.123   2.268  2.6255  0.1856 -0.5248
 8944TIP3   OH248246   3.865   1.323  13.325 -0.4174 -0.2678  0.2405
 8944TIP3    H148247   3.801   1.387  13.357  1.3026  2.2494 -0.9685
 8944TIP3    H248248   3.949   1.359  13.352  0.7243 -1.1599 -1.9077
 8945TIP3   OH248249   3.719   6.195  12.301  0.0229 -0.4997  0.0813
 8945TIP3    H148250   3.633   6.224  12.270  1.2681  3.1228 -0.4254
 8945TIP3    H248251   3.720   6.220  12.394  0.2541 -1.3668  0.3268
 8946TIP3   OH248252   0.123   5.934   5.038 -0.4266 -0.0170  0.5062
 8946TIP3    H148253   0.195   5.921   4.976 -1.5284 -3.4280 -0.2727
 8946TIP3    H248254   0.086   6.019   5.015  0.7607 -0.0592 -1.8671
 8947TIP3   OH248255   5.493   5.313  13.007 -0.3363 -0.0672  0.1494
 8947TIP3    H148256   5.548   5.382  12.971 -0.1552 -1.2668 -1.9977
 8947TIP3    H248257   5.405   5.349  13.005  0.0544  1.1586  1.8691
 8948TIP3   OH248258   2.131   6.289   2.998  0.3162 -0.1334 -0.0266
 8948TIP3    H148259   2.126   6.337   3.081  0.4173 -0.6801  0.2973
 8948TIP3    H248260   2.098   6.202   3.019  3.6975 -1.4780  0.3617
 8949TIP3   OH248261   6.280   1.777   6.569  0.5433  0.2885  0.4537
 8949TIP3    H148262   6.211   1.762   6.504  0.4286  1.1649  0.3607
 8949TIP3    H248263   6.351   1.720   6.541  0.8409  1.3062 -0.9913
 8950TIP3   OH248264   6.261   3.364  14.950  0.2362  0.0688 -0.5420
 8950TIP3    H148265   6.291   3.273  14.952  0.5546  0.1683 -0.9118
 8950TIP3    H248266   6.185   3.364  15.009  2.5320  0.3922  2.6801
 8951TIP3   OH248267   4.188   0.194   6.125  0.0676  0.5873 -0.3036
 8951TIP3    H148268   4.240   0.251   6.181  1.9006  0.8467 -2.1373
 8951TIP3    H248269   4.249   0.124   6.100 -1.5107 -1.0337  0.2010
 8952TIP3   OH248270   2.369   3.670   0.044  0.3043 -0.0062  0.0794
 8952TIP3    H148271   2.320   3.608   0.098  2.3947 -2.6361 -0.7932
 8952TIP3    H248272   2.308   3.694  -0.026 -0.7988 -0.5407  0.8386
 8953TIP3   OH248273   6.120   4.881   2.421 -0.2660 -0.5008  0.2430
 8953TIP3    H148274   6.052   4.949   2.426  1.0952  0.9227 -0.0589
 8953TIP3    H248275   6.115   4.837   2.506 -1.2448 -0.1161  0.4027
 8954TIP3   OH248276   0.674   2.026  13.668  0.1399 -0.0110 -0.1331
 8954TIP3    H148277   0.624   1.944  13.667  3.6692 -2.3894 -0.9639
 8954TIP3    H248278   0.661   2.063  13.580 -0.1953 -0.5654 -0.3215
 8955TIP3   OH248279   2.225   6.325  14.476  0.0886  0.1686  0.1181
 8955TIP3    H148280   2.293   6.376  14.520  0.4338 -0.5398  0.4155
 8955TIP3    H248281   2.143   6.357  14.514  0.1789  1.5823 -0.7994
 8956TIP3   OH248282   5.073   6.169   0.912 -0.3034 -0.0777  0.5377
 8956TIP3    H148283   5.151   6.200   0.957  0.5252 -1.6513  0.2348
 8956TIP3    H248284   5.085   6.075   0.903 -0.1494  0.1433 -3.4353
 8957TIP3   OH248285   3.313   6.098  15.835 -0.2587  0.3957 -0.2944
 8957TIP3    H148286   3.347   6.187  15.846  1.5083 -0.2254 -0.4096
 8957TIP3    H248287   3.325   6.058  15.921 -1.3368  0.3423 -0.1562
 8958TIP3   OH248288   3.452   2.389  12.665 -0.3552  0.3847  0.1422
 8958TIP3    H148289   3.361   2.416  12.651 -0.3641  0.8090  0.9147
 8958TIP3    H248290   3.450   2.348  12.752 -0.1640 -1.3133 -0.6253
 8959TIP3   OH248291   2.781   5.524   5.146 -0.2462 -0.0374  0.4493
 8959TIP3    H148292   2.705   5.476   5.179 -0.5809 -0.0532 -0.3112
 8959TIP3    H248293   2.786   5.602   5.200  0.3386 -0.9342  1.7482
 8960TIP3   OH248294   5.661   1.998  11.607 -0.3806  0.3681  0.3985
 8960TIP3    H148295   5.734   1.941  11.584  0.5385  2.2379 -1.6697
 8960TIP3    H248296   5.584   1.954  11.572  0.3881  0.5965 -1.7252
 8961TIP3   OH248297   6.699   0.365   3.131  0.4833 -0.1197 -0.3209
 8961TIP3    H148298   6.633   0.433   3.126  0.0901 -0.5268 -0.7170
 8961TIP3    H248299   6.749   0.386   3.210 -1.2177 -0.7843  1.0088
 8962TIP3   OH248300   1.337   6.739  12.421 -0.4264 -0.7358 -0.0937
 8962TIP3    H148301   1.325   6.662  12.476  1.1275 -0.5311  0.5644
 8962TIP3    H248302   1.325   6.706  12.332  1.1249 -1.9715  0.1043
 8963TIP3   OH248303   4.015   3.127   4.044 -0.7533  0.4730 -0.3757
 8963TIP3    H148304   4.007   3.222   4.037 -0.3964  0.3615 -3.4391
 8963TIP3    H248305   3.924   3.096   4.051 -0.8573  0.9959  1.0474
 8964TIP3   OH248306   0.942   0.465   0.003 -0.4129  0.0160  0.0604
 8964TIP3    H148307   1.032   0.449  -0.026 -0.1117  1.2228  0.3007
 8964TIP3    H248308   0.941   0.556   0.032 -1.7759  0.0886 -0.1463
 8965TIP3   OH248309   2.581   3.901   5.380 -0.1679 -0.1116 -0.0698
 8965TIP3    H148310   2.568   3.912   5.474 -0.6892 -2.0317  0.1249
 8965TIP3    H248311   2.512   3.841   5.353 -0.7579  1.3198 -1.9266
 8966TIP3   OH248312   3.830   0.740  11.703  0.6847  0.1664  0.1927
 8966TIP3    H148313   3.921   0.770  11.703  1.3648 -1.6148  2.5319
 8966TIP3    H248314   3.788   0.791  11.772  1.3527 -2.6074  2.8204
 8967TIP3   OH248315   1.799   3.957  14.315  0.1738 -0.2487 -0.2341
 8967TIP3    H148316   1.807   3.983  14.223 -2.0731  1.0006 -0.1376
 8967TIP3    H248317   1.844   4.027  14.362 -0.8845  0.4748 -0.2740
 8968TIP3   OH248318   1.905   2.380   4.223  0.7015  0.2881  0.0745
 8968TIP3    H148319   1.916   2.303   4.278 -0.4336  0.3031  0.3499
 8968TIP3    H248320   1.843   2.435   4.271  2.6255  2.0898  0.6170
 8969TIP3   OH248321   1.329   5.945  17.077 -0.3028 -0.0082  0.4875
 8969TIP3    H148322   1.334   6.040  17.076  1.5824 -0.0588  1.2584
 8969TIP3    H248323   1.282   5.922  16.997  0.2103  1.5100 -0.2786
 8970TIP3   OH248324   1.060   5.161  15.612  0.2992 -0.3339 -0.2441
 8970TIP3    H148325   0.982   5.148  15.558  0.6493 -0.5571 -0.6971
 8970TIP3    H248326   1.056   5.090  15.677  1.1698 -1.6015 -1.5026
 8971TIP3   OH248327   2.600   1.936   2.277 -0.1157  0.2196 -0.8016
 8971TIP3    H148328   2.604   1.840   2.279  1.1876  0.2490 -1.0416
 8971TIP3    H248329   2.537   1.959   2.345  0.4570 -0.7711  0.0883
 8972TIP3   OH248330   3.160   4.180  11.335 -0.3838 -0.2337  0.0838
 8972TIP3    H148331   3.172   4.275  11.333  0.9864 -0.4025 -1.1648
 8972TIP3    H248332   3.155   4.155  11.243 -0.4358 -1.4133  0.3971
 8973TIP3   OH248333   4.584   4.233   2.341 -0.3918 -0.2632  0.2265
 8973TIP3    H148334   4.528   4.176   2.289 -0.2940 -0.4686  0.3443
 8973TIP3    H248335   4.604   4.307   2.284 -0.2141 -0.5286 -0.0573
 8974TIP3   OH248336   2.945   5.330  13.241  0.0201  0.4783  0.1588
 8974TIP3    H148337   2.971   5.245  13.208 -2.4381 -0.4186  0.3260
 8974TIP3    H248338   3.000   5.392  13.193  1.0747 -1.1165 -0.7873
 8975TIP3   OH248339   5.724   3.039   4.159 -0.1170  0.4414  0.3209
 8975TIP3    H148340   5.672   3.114   4.131  0.3869  0.4600 -0.5991
 8975TIP3    H248341   5.802   3.042   4.104 -0.1745 -0.8677  0.1471
 8976TIP3   OH248342   3.179   1.842  12.150 -0.2342  0.1517  0.0915
 8976TIP3    H148343   3.225   1.849  12.234 -2.5146  0.7468  1.3710
 8976TIP3    H248344   3.245   1.865  12.085  1.0073  2.0992  1.9086
 8977TIP3   OH248345   2.613   4.676   3.035  0.2917  0.4974  0.0711
 8977TIP3    H148346   2.565   4.594   3.045 -0.2464  0.6733 -0.9005
 8977TIP3    H248347   2.702   4.656   3.062  0.0116 -0.2296  0.4807
 8978TIP3   OH248348   3.973   2.774   6.153  0.0112 -0.3887  0.0903
 8978TIP3    H148349   4.036   2.778   6.224  1.3996 -2.3460 -0.9365
 8978TIP3    H248350   3.949   2.866   6.137  0.8620  0.2124  1.9743
 8979TIP3   OH248351   1.831   0.075   4.653  0.2688 -0.3253 -0.0146
 8979TIP3    H148352   1.783   0.047   4.575  2.1218 -1.6564 -0.7728
 8979TIP3    H248353   1.921   0.090   4.622  0.7558  0.4380  1.6173
 8980TIP3   OH248354   1.342   6.500   0.035 -0.7156 -0.9155 -0.2511
 8980TIP3    H148355   1.394   6.529   0.110  0.3062  0.8509 -1.5757
 8980TIP3    H248356   1.272   6.447   0.074  0.5592 -1.2043  1.8116
 8981TIP3   OH248357   1.148   2.220  13.991  0.2859  0.9804 -0.3589
 8981TIP3    H148358   1.197   2.152  14.037 -1.4339  0.6915  1.2042
 8981TIP3    H248359   1.056   2.192  13.999 -0.1812  1.0442 -3.8491
 8982TIP3   OH248360   3.296   0.436  13.306 -0.0047  0.0827 -0.0280
 8982TIP3    H148361   3.247   0.477  13.378 -0.4612 -0.9994  0.2951
 8982TIP3    H248362   3.262   0.479  13.227  0.5303  1.3131  0.3845
 8983TIP3   OH248363   3.209   0.789   2.350 -0.1904  0.2125  0.4864
 8983TIP3    H148364   3.287   0.815   2.399 -0.5461  1.9469  0.1821
 8983TIP3    H248365   3.174   0.871   2.316 -0.9354 -0.7763 -1.2098
 8984TIP3   OH248366   0.232   1.124   5.418 -0.0531  0.7149 -0.4047
 8984TIP3    H148367   0.263   1.184   5.350 -1.2276 -1.1648 -2.7870
 8984TIP3    H248368   0.147   1.160   5.444  0.0713  1.0559 -0.4577
 8985TIP3   OH248369   4.995   6.706   3.395  0.3163  0.0963 -0.4566
 8985TIP3    H148370   5.037   6.713   3.480  0.6125 -0.4895 -0.5506
 8985TIP3    H248371   4.917   6.654   3.411  1.5319 -1.9771 -0.9237
 8986TIP3   OH248372   5.919   0.457   2.830 -0.0748  0.3932 -0.3575
 8986TIP3    H148373   5.837   0.505   2.844  0.0867  0.1619  1.6707
 8986TIP3    H248374   5.892   0.369   2.804 -0.5541 -0.0829  1.6141
 8987TIP3   OH248375   5.640   0.012   1.275 -0.0378 -0.4402 -0.4393
 8987TIP3    H148376   5.626  -0.062   1.333 -1.2607 -1.3412 -1.8014
 8987TIP3    H248377   5.570   0.006   1.211  1.0479  0.6901 -1.8181
 8988TIP3   OH248378   1.245   6.055   4.194 -0.2014  0.3041 -0.8701
 8988TIP3    H148379   1.160   6.035   4.234  0.0774  0.3189 -0.2677
 8988TIP3    H248380   1.290   5.970   4.191 -0.7716  0.0135 -2.5036
 8989TIP3   OH248381   1.043   2.057   0.462 -0.5204  0.5535 -0.2371
 8989TIP3    H148382   1.018   1.966   0.447 -1.1969  0.6089  0.5172
 8989TIP3    H248383   1.082   2.057   0.549  1.5276  0.5949 -1.0967
 8990TIP3   OH248384   5.504   5.848  12.471 -0.7302 -0.1682  0.1972
 8990TIP3    H148385   5.442   5.786  12.511 -1.3396 -1.0420 -1.9619
 8990TIP3    H248386   5.469   5.864  12.383  0.8075  1.2648 -0.2073
 8991TIP3   OH248387   4.717   4.256   4.602 -0.1010 -0.0944 -0.1114
 8991TIP3    H148388   4.696   4.329   4.545 -2.7631 -1.0367 -0.5084
 8991TIP3    H248389   4.656   4.265   4.675 -0.1162 -1.5865  0.0894
 8992TIP3   OH248390   0.518   1.571  14.376 -0.7751 -0.6492  0.0104
 8992TIP3    H148391   0.498   1.534  14.462 -1.7497  0.5242  0.3265
 8992TIP3    H248392   0.591   1.519  14.343 -1.5380 -2.2576  0.7761
 8993TIP3   OH248393   1.847   2.082  13.047 -0.0321 -0.0558 -0.1115
 8993TIP3    H148394   1.931   2.055  13.011  0.4248 -0.0789  0.9496
 8993TIP3    H248395   1.848   2.178  13.041 -0.0858 -0.0701 -0.4053
 8994TIP3   OH248396   2.758   2.149  16.116 -0.2678 -0.5584 -0.2582
 8994TIP3    H148397   2.676   2.194  16.137  0.6178  0.6651  0.7090
 8994TIP3    H248398   2.827   2.212  16.136  0.9154 -1.3606 -1.5599
 8995TIP3   OH248399   2.017   1.453   3.595 -0.2635  0.7798 -0.5584
 8995TIP3    H148400   1.998   1.391   3.525 -0.1932 -0.1702  0.2460
 8995TIP3    H248401   1.961   1.529   3.577 -1.4728 -0.1381 -0.7188
 8996TIP3   OH248402   6.292   1.262   1.838  0.3625  0.4403 -0.5775
 8996TIP3    H148403   6.283   1.322   1.913 -1.3623  2.0382 -1.9756
 8996TIP3    H248404   6.387   1.259   1.821  0.6687  1.0345  0.8620
 8997TIP3   OH248405   6.481   0.033   5.442 -0.1603  0.3188 -0.1374
 8997TIP3    H148406   6.535   0.089   5.498  0.8895 -1.2715  0.4969
 8997TIP3    H248407   6.391   0.054   5.467  0.2807 -0.1758  2.0052
 8998TIP3   OH248408   1.211   1.520  16.979  1.0742 -0.1676 -0.0737
 8998TIP3    H148409   1.260   1.526  16.897 -0.2125  0.3289 -0.8362
 8998TIP3    H248410   1.264   1.464  17.035  1.4330 -1.4720 -1.6505
 8999TIP3   OH248411   2.519   4.128  16.025  0.3218  0.4850  0.0647
 8999TIP3    H148412   2.436   4.130  15.976 -0.5140  1.1501  1.4375
 8999TIP3    H248413   2.580   4.178  15.972 -0.7736  1.8595  0.0524
 9000TIP3   OH248414   1.743   3.444   5.071 -0.0575 -0.5107 -0.2787
 9000TIP3    H148415   1.804   3.407   5.134  0.1044  0.5705  0.2212
 9000TIP3    H248416   1.788   3.520   5.036 -1.2079  0.4768  0.3029
 9001TIP3   OH248417   1.477   4.436   4.993  0.0728 -0.1643  0.2673
 9001TIP3    H148418   1.433   4.359   5.029 -0.7369 -0.3291 -1.0068
 9001TIP3    H248419   1.456   4.434   4.900  0.9890  0.9787  0.0181
 9002TIP3   OH248420   0.087   2.582   3.342  0.5946  0.4153  0.6136
 9002TIP3    H148421   0.174   2.544   3.330  1.1895  1.4121  1.6158
 9002TIP3    H248422   0.077   2.589   3.437 -0.1355  1.2794  0.4838
 9003TIP3   OH248423   0.891   1.475  14.019 -0.0254 -0.2011 -0.2213
 9003TIP3    H148424   0.949   1.538  14.062 -0.6405  2.4878 -2.9233
 9003TIP3    H248425   0.831   1.446  14.088  1.3022  0.9508  1.4874
 9004TIP3   OH248426   5.766   2.173  13.789 -0.0532  0.0388 -0.0796
 9004TIP3    H148427   5.782   2.086  13.753 -1.1973 -0.1677 -0.1192
 9004TIP3    H248428   5.671   2.183  13.788 -0.0394  0.6448  1.4338
 9005TIP3   OH248429   5.401   0.080  14.718 -0.2741  0.0702  0.2117
 9005TIP3    H148430   5.331   0.115  14.662 -0.3640 -1.2537 -0.5498
 9005TIP3    H248431   5.356   0.051  14.797 -0.5258 -0.4270 -0.1154
 9006TIP3   OH248432   0.380   5.756  15.643 -0.0981  0.6263 -0.7160
 9006TIP3    H148433   0.321   5.703  15.589 -0.1096  1.3213 -1.4204
 9006TIP3    H248434   0.334   5.840  15.652 -0.8414  0.0167  1.7637
 9007TIP3   OH248435   1.101   1.945  14.323  0.0363 -0.6911 -0.5267
 9007TIP3    H148436   1.163   1.978  14.388 -1.6795 -0.0719  0.8956
 9007TIP3    H248437   1.073   1.860  14.358 -1.1030 -0.2304 -0.2661
 9008TIP3   OH248438   5.370   5.848   5.891 -0.9002 -0.4904  0.7597
 9008TIP3    H148439   5.456   5.888   5.896 -0.9868 -0.2419  0.2959
 9008TIP3    H248440   5.378   5.781   5.823 -1.2813  0.0719  0.1454
 9009TIP3   OH248441   6.662   1.995   6.063  0.2460  0.0756 -0.5270
 9009TIP3    H148442   6.597   2.056   6.099  0.7745  1.1142 -1.2793
 9009TIP3    H248443   6.634   1.982   5.972 -0.1838 -1.2680 -0.2109
 9010TIP3   OH248444   4.012   5.597  14.937  0.4888 -0.3830  0.0543
 9010TIP3    H148445   3.969   5.652  15.002  1.8202 -0.8407  1.3904
 9010TIP3    H248446   3.959   5.518  14.933 -0.9879  0.6094 -1.2973
 9011TIP3   OH248447   0.440   1.749   1.486  0.0459 -0.0127 -0.6318
 9011TIP3    H148448   0.534   1.733   1.478 -0.0308 -0.2867 -1.0409
 9011TIP3    H248449   0.431   1.844   1.477  0.3542  0.1084  0.2064
 9012TIP3   OH248450   5.984   5.487  12.969 -0.4287 -0.5323  0.2565
 9012TIP3    H148451   5.964   5.474  13.062  1.6484 -0.4205  0.7707
 9012TIP3    H248452   6.078   5.502  12.967 -0.5996  0.6125 -1.7733
 9013TIP3   OH248453   4.542   0.609   4.252 -0.0409  0.1011  0.0962
 9013TIP3    H148454   4.606   0.543   4.280  0.3360  0.0743 -0.7889
 9013TIP3    H248455   4.457   0.569   4.269  0.1824 -0.2724  0.3455
 9014TIP3   OH248456   0.977   5.006  12.877  0.1185  0.1538 -0.2403
 9014TIP3    H148457   0.939   4.975  12.959  1.4164  0.2698  0.4331
 9014TIP3    H248458   0.994   4.926  12.827 -0.1531  0.0404 -0.1506
 9015TIP3   OH248459   2.985   3.986   3.985 -0.2333 -0.3123 -0.0481
 9015TIP3    H148460   3.069   4.030   3.997  0.3841 -1.2826 -0.6993
 9015TIP3    H248461   2.971   3.938   4.066  0.0135 -0.4361 -0.0792
 9016TIP3   OH248462   3.956   2.599   1.223 -0.3673 -0.1177  0.4416
 9016TIP3    H148463   3.887   2.649   1.267 -1.8216  0.0968 -1.8878
 9016TIP3    H248464   3.910   2.551   1.154  1.6496 -1.0440 -0.3382
 9017TIP3   OH248465   3.163   5.928  11.630 -0.7776 -0.0965  0.0773
 9017TIP3    H148466   3.187   5.997  11.567  0.4221  0.3857  1.0189
 9017TIP3    H248467   3.068   5.926  11.628 -0.7892 -1.1716 -2.8708
 9018TIP3   OH248468   0.066   1.456  12.131  0.6739 -0.3301 -0.1831
 9018TIP3    H148469   0.090   1.383  12.187 -0.3603 -0.0239  0.7041
 9018TIP3    H248470   0.097   1.431  12.044 -1.0592 -2.5817 -0.2553
 9019TIP3   OH248471   3.361   1.204  15.423 -0.4625 -0.1446 -0.3494
 9019TIP3    H148472   3.313   1.180  15.502 -0.9847 -0.1525 -0.6647
 9019TIP3    H248473   3.350   1.299  15.416 -0.6273 -0.1779 -0.5472
 9020TIP3   OH248474   3.287   0.770   5.899 -0.5571  0.5328 -0.0392
 9020TIP3    H148475   3.205   0.752   5.851 -0.6390  1.9888 -0.4786
 9020TIP3    H248476   3.283   0.863   5.920  0.6315  0.4478  0.6522
 9021TIP3   OH248477   0.873   1.906  12.241  0.4991 -0.4434  0.2607
 9021TIP3    H148478   0.895   1.876  12.153  0.8227  0.8465 -0.1161
 9021TIP3    H248479   0.779   1.892  12.248  0.2334  0.6774 -0.8046
 9022TIP3   OH248480   0.718   6.739   1.827 -0.4090  0.1920 -0.4197
 9022TIP3    H148481   0.788   6.679   1.805  1.6147  0.9740  3.1148
 9022TIP3    H248482   0.642   6.683   1.843  1.3649 -1.6204  2.6384
 9023TIP3   OH248483   3.596   4.240  12.827  0.0250  0.2036  0.0686
 9023TIP3    H148484   3.544   4.163  12.847 -0.5853  0.3053 -1.0543
 9023TIP3    H248485   3.550   4.312  12.871 -0.6843  0.2592 -0.7342
 9024TIP3   OH248486   1.338   1.337  17.383 -0.3769 -0.9380  0.0627
 9024TIP3    H148487   1.323   1.258  17.435  0.0791 -0.4253  0.9820
 9024TIP3    H248488   1.250   1.369  17.364 -0.5461 -0.6010  1.3481
 9025TIP3   OH248489   5.239   4.556   3.152  0.2605 -0.2587 -0.5499
 9025TIP3    H148490   5.295   4.633   3.151 -1.4057  0.9858 -1.1031
 9025TIP3    H248491   5.232   4.529   3.060 -0.0771 -0.3811 -0.4915
 9026TIP3   OH248492   1.975   5.851   2.207 -0.1705 -0.3188  0.2042
 9026TIP3    H148493   2.013   5.793   2.273  0.4722 -1.2485 -0.9427
 9026TIP3    H248494   2.020   5.934   2.219 -1.6444  0.2475  2.3761
 9027TIP3   OH248495   2.101   5.924  11.468  0.0732  0.1020  0.5430
 9027TIP3    H148496   2.049   5.991  11.424  0.2580  0.3267  0.6675
 9027TIP3    H248497   2.045   5.895  11.541  1.4131  2.7630  2.8065
 9028TIP3   OH248498   6.302   0.977   0.270 -0.6739  0.5533  0.1611
 9028TIP3    H148499   6.270   1.029   0.197  0.3496  0.5988 -0.2778
 9028TIP3    H248500   6.377   1.026   0.304 -0.0606 -0.3272  0.1243
 9029TIP3   OH248501   3.343   1.840  16.410  0.4604  0.3571  1.0190
 9029TIP3    H148502   3.278   1.883  16.355  0.6504  0.5888  0.9739
 9029TIP3    H248503   3.417   1.901  16.412  0.7051  0.0637  1.0117
 9030TIP3   OH248504   6.665   3.881  11.098  0.1344 -0.2492 -0.2138
 9030TIP3    H148505   6.607   3.848  11.029  2.2533 -1.9928 -1.3199
 9030TIP3    H248506   6.634   3.970  11.116 -3.3224 -1.3622 -0.0990
 9031TIP3   OH248507   5.127   4.497  14.018  0.0906 -0.0312  0.0265
 9031TIP3    H148508   5.143   4.591  14.025  0.0736 -0.1155  1.9431
 9031TIP3    H248509   5.215   4.459  14.007  0.3148  0.1163  1.1429
 9032TIP3   OH248510   6.474   2.254  11.684  0.5364 -0.2005 -0.1368
 9032TIP3    H148511   6.407   2.304  11.731  0.6493 -1.2249  1.1537
 9032TIP3    H248512   6.425   2.184  11.640  0.5948 -0.0949 -0.3678
 9033TIP3   OH248513   2.732   4.662   5.536  0.1962  0.0477  0.3853
 9033TIP3    H148514   2.762   4.652   5.445 -0.3039 -0.0580  0.2271
 9033TIP3    H248515   2.734   4.756   5.551 -0.2566  0.1125  0.0733
 9034TIP3   OH248516   2.672   0.660  15.354  0.1534 -0.3587 -0.0498
 9034TIP3    H148517   2.705   0.729  15.296  2.7089  0.0386  1.7097
 9034TIP3    H248518   2.703   0.579  15.313  0.0657 -0.2407 -0.3553
 9035TIP3   OH248519   5.100   3.388  17.222 -0.0948 -0.2998 -0.1217
 9035TIP3    H148520   5.180   3.335  17.226 -0.0467 -0.1589  1.4813
 9035TIP3    H248521   5.042   3.348  17.286 -0.7081  0.5726 -0.1220
 9036TIP3   OH248522   0.187   0.914  12.378  0.3321 -0.3688  0.3667
 9036TIP3    H148523   0.177   0.864  12.459 -1.7310  0.8576  0.9216
 9036TIP3    H248524   0.100   0.951  12.361  1.2865  1.3433 -1.1306
 9037TIP3   OH248525   3.921   0.918  16.334 -0.2099  0.1969 -0.1514
 9037TIP3    H148526   3.886   0.839  16.375 -3.3199  1.5239  0.0204
 9037TIP3    H248527   3.915   0.901  16.240  2.2178 -0.9182 -0.1851
 9038TIP3   OH248528   0.734   4.387   2.123  0.4247  0.5972  0.1194
 9038TIP3    H148529   0.737   4.481   2.144  1.5533  0.6655 -0.2697
 9038TIP3    H248530   0.644   4.373   2.093 -0.1368  1.2734  1.3742
 9039TIP3   OH248531   5.208   2.478  14.972 -0.2161 -0.3409 -0.7471
 9039TIP3    H148532   5.164   2.545  15.024  0.0023 -1.4143  0.8910
 9039TIP3    H248533   5.271   2.439  15.032  1.7616 -0.0514 -2.5038
 9040TIP3   OH248534   1.774   1.240   0.051  0.2349 -0.2584  0.4376
 9040TIP3    H148535   1.728   1.157   0.036 -0.3510  0.3083 -1.2091
 9040TIP3    H248536   1.865   1.215   0.064 -0.3175 -1.3419  2.8149
 9041TIP3   OH248537   4.000   6.628   1.890  0.7609  0.3112 -0.3296
 9041TIP3    H148538   4.029   6.697   1.830 -0.1937  0.3973 -0.7079
 9041TIP3    H248539   3.989   6.672   1.974  0.6584  0.5091 -0.4473
 9042TIP3   OH248540   5.845   6.130   4.094 -0.3752 -0.0879  0.8493
 9042TIP3    H148541   5.921   6.145   4.150  0.3501  0.6280 -0.2761
 9042TIP3    H248542   5.882   6.095   4.013 -1.2155  0.5471  0.1749
 9043TIP3   OH248543   0.986   1.202  13.462  0.4368 -0.0866  0.2092
 9043TIP3    H148544   0.949   1.278  13.418  0.5787 -0.3399 -0.3528
 9043TIP3    H248545   1.081   1.211  13.451  0.4240 -0.7268 -0.5122
 9044TIP3   OH248546   0.099   4.896  15.667 -0.2687 -0.0864 -0.0229
 9044TIP3    H148547   0.166   4.945  15.715  0.3487 -0.1540 -0.7916
 9044TIP3    H248548   0.108   4.806  15.699 -1.1015  0.1856  1.0596
 9045TIP3   OH248549   1.400   5.857   4.195 -0.0806 -0.3254  0.3090
 9045TIP3    H148550   1.469   5.800   4.163  0.1691 -0.7027  1.4529
 9045TIP3    H248551   1.376   5.820   4.280 -1.0549  0.3269  0.3384
 9046TIP3   OH248552   2.796   3.516   4.667  0.0031 -0.2190 -0.4126
 9046TIP3    H148553   2.837   3.442   4.621  1.8003  0.1938  0.4195
 9046TIP3    H248554   2.813   3.498   4.760 -2.5649 -0.4667  0.0790
 9047TIP3   OH248555   3.439   0.708   2.683  0.6474  0.1132 -0.5020
 9047TIP3    H148556   3.475   0.761   2.611 -0.2410 -0.6226 -1.5196
 9047TIP3    H248557   3.369   0.761   2.720 -2.4698 -1.4489 -3.5981
 9048TIP3   OH248558   0.966   5.439  13.929 -0.4460  0.4800 -0.1280
 9048TIP3    H148559   0.887   5.430  13.877 -0.2332  2.7166 -0.9672
 9048TIP3    H248560   0.990   5.532  13.921 -0.1757  0.9317  3.6447
 9049TIP3   OH248561   2.164   3.358   4.367 -0.3002 -0.0888 -0.3248
 9049TIP3    H148562   2.135   3.328   4.454  0.0359 -0.0963 -0.2157
 9049TIP3    H248563   2.218   3.435   4.386 -1.4530  0.8234 -0.6197
 9050TIP3   OH248564   2.473   0.864  13.634 -0.3684  0.3596 -0.3862
 9050TIP3    H148565   2.388   0.832  13.606  0.1531 -0.6710 -0.8532
 9050TIP3    H248566   2.531   0.787  13.628  0.3251  0.7263  1.0867
 9051TIP3   OH248567   0.206   5.785  10.685 -0.3266  0.2951  0.2849
 9051TIP3    H148568   0.261   5.859  10.662  1.0175 -0.7169  0.1558
 9051TIP3    H248569   0.243   5.711  10.637 -0.4298 -0.8611  1.9105
 9052TIP3   OH248570   5.943   0.306   1.804 -0.2857  0.0264 -0.0199
 9052TIP3    H148571   5.872   0.295   1.868 -0.8819  1.3125 -0.4255
 9052TIP3    H248572   5.916   0.381   1.751  1.0181  0.0498 -0.6860
 9053TIP3   OH248573   3.170   2.285   0.076  0.5551  0.3773  0.2208
 9053TIP3    H148574   3.261   2.308   0.057  1.2858 -2.4126 -0.0893
 9053TIP3    H248575   3.121   2.323   0.003  1.5684  1.2162 -0.0530
 9054TIP3   OH248576   3.769   0.101  11.099  0.3039  0.4947  0.4941
 9054TIP3    H148577   3.811   0.028  11.145  0.5950 -0.1905 -0.8050
 9054TIP3    H248578   3.832   0.127  11.032 -0.3532  1.0452  0.0738
 9055TIP3   OH248579   4.240   3.067  13.458 -0.2578 -0.2102  0.4614
 9055TIP3    H148580   4.161   3.119  13.474 -0.2900 -0.4436  1.0996
 9055TIP3    H248581   4.218   3.013  13.383 -0.3318  0.4742 -0.0248
 9056TIP3   OH248582   2.380   4.809  16.570 -0.0875 -0.2931 -0.6555
 9056TIP3    H148583   2.359   4.807  16.477 -0.0034  1.2399 -0.7314
 9056TIP3    H248584   2.298   4.832  16.613  0.0989 -0.0169 -0.4425
 9057TIP3   OH248585   4.932   0.816   1.421 -0.0373 -0.1456  0.1042
 9057TIP3    H148586   4.881   0.815   1.340  0.4504  0.2973 -0.2135
 9057TIP3    H248587   4.958   0.725   1.435 -1.6397 -0.5390  0.7418
 9058TIP3   OH248588   1.767   2.410  17.275  0.1388 -0.5231 -0.0181
 9058TIP3    H148589   1.678   2.383  17.296 -0.9641  2.1233 -0.8995
 9058TIP3    H248590   1.793   2.465  17.349  0.5587 -0.2922 -0.3325
 9059TIP3   OH248591   1.803   4.203  16.396  0.0700 -0.0851 -0.0589
 9059TIP3    H148592   1.845   4.117  16.390 -1.8199 -1.0881  0.2223
 9059TIP3    H248593   1.798   4.220  16.490  2.8283  1.6581 -0.1124
 9060TIP3   OH248594   0.708   5.890   3.471 -0.5569 -0.2459  0.9920
 9060TIP3    H148595   0.700   5.799   3.499 -0.1972 -0.1934  1.2690
 9060TIP3    H248596   0.758   5.932   3.541  0.4309 -0.1331  0.2271
 9061TIP3   OH248597   4.000   6.340  12.770 -0.1340  0.5307 -0.2813
 9061TIP3    H148598   3.948   6.420  12.781  0.9662  1.0975  0.9981
 9061TIP3    H248599   3.935   6.270  12.774 -0.8931  1.2563  0.6106
 9062TIP3   OH248600   0.345   1.433   1.939 -0.1191 -0.6263  0.2753
 9062TIP3    H148601   0.333   1.517   1.895  1.4360 -0.0120  0.9669
 9062TIP3    H248602   0.257   1.394   1.940 -0.8886  1.0139  0.0413
 9063TIP3   OH248603   0.815   2.469   4.502 -0.1072 -0.1418 -0.3312
 9063TIP3    H148604   0.870   2.547   4.509  1.0610 -0.8212 -1.3943
 9063TIP3    H248605   0.742   2.496   4.446  0.9776 -0.1242 -1.8068
 9064TIP3   OH248606   0.701   4.827   3.588 -0.3761 -0.0285  0.1260
 9064TIP3    H148607   0.722   4.734   3.582  1.1121  0.3384 -0.6346
 9064TIP3    H248608   0.777   4.872   3.553 -0.1280  1.5792  2.4967
 9065TIP3   OH248609   0.895   1.696  14.307  0.1254 -0.0228  0.1851
 9065TIP3    H148610   0.837   1.760  14.266  1.1706 -0.5478 -2.3010
 9065TIP3    H248611   0.840   1.619  14.322 -0.2273  0.0447 -0.6718
 9066TIP3   OH248612   5.165   4.177  11.254  0.2751  0.5347 -0.0654
 9066TIP3    H148613   5.126   4.093  11.230  0.3806  0.4373  0.1102
 9066TIP3    H248614   5.199   4.212  11.171  0.4991  0.2681 -0.0855
 9067TIP3   OH248615   1.911   5.914   3.583 -0.0505  0.3703  0.4360
 9067TIP3    H148616   1.866   5.973   3.522 -1.6906  1.5722  2.6502
 9067TIP3    H248617   1.841   5.863   3.624  0.9013  0.0973  1.8110
 9068TIP3   OH248618   3.542   1.637  16.762  0.6229 -0.2972 -0.3979
 9068TIP3    H148619   3.521   1.617  16.670 -0.5117  0.4710 -0.3215
 9068TIP3    H248620   3.567   1.552  16.799  0.8921 -0.6573 -1.3594
 9069TIP3   OH248621   1.265   1.243   5.713 -0.7270 -0.6271  0.3967
 9069TIP3    H148622   1.170   1.234   5.711 -0.7702 -0.1052 -0.8546
 9069TIP3    H248623   1.286   1.262   5.804 -2.0398  1.2698  0.3471
 9070TIP3   OH248624   0.391   6.032  13.625 -0.2368  0.3284 -0.4571
 9070TIP3    H148625   0.438   5.949  13.624 -1.4861 -0.3879 -0.7789
 9070TIP3    H248626   0.379   6.051  13.718 -1.0153 -0.4719 -0.3887
 9071TIP3   OH248627   1.139   5.182   0.141  0.1279 -0.1111  0.3413
 9071TIP3    H148628   1.209   5.195   0.205 -0.1839  0.4238  0.5798
 9071TIP3    H248629   1.181   5.197   0.056  0.7157 -1.5185  0.3472
 9072TIP3   OH248630   1.857   1.719  14.508  0.3943 -0.0623  0.1394
 9072TIP3    H148631   1.860   1.773  14.428 -1.1198  0.3177  0.3107
 9072TIP3    H248632   1.808   1.773  14.571  0.7211 -0.7659  1.0093
 9073TIP3   OH248633   4.994   3.333   5.226  0.0756  0.7639  0.3759
 9073TIP3    H148634   4.973   3.393   5.155 -0.7959 -1.9690 -1.8924
 9073TIP3    H248635   4.911   3.288   5.246  1.0734 -1.2213  0.3565
 9074TIP3   OH248636   2.350   2.795  11.099  0.3343  0.5380 -0.3174
 9074TIP3    H148637   2.391   2.844  11.027 -0.1523 -0.1745 -1.0938
 9074TIP3    H248638   2.281   2.853  11.130 -0.6768  0.1297 -1.6710
 9075TIP3   OH248639   1.469   4.371   3.516 -0.1595  0.5369 -0.3819
 9075TIP3    H148640   1.557   4.339   3.496 -0.2154  0.1857 -0.0760
 9075TIP3    H248641   1.471   4.392   3.609  0.5827  3.7428 -1.0030
 9076TIP3   OH248642   5.285   5.493  11.118 -0.1520 -0.0173 -0.0761
 9076TIP3    H148643   5.208   5.537  11.153 -0.9502 -0.0210 -1.7332
 9076TIP3    H248644   5.315   5.550  11.047  2.2328  0.6929  1.3897
 9077TIP3   OH248645   5.267   2.262  14.628  0.2189 -0.0521 -0.2674
 9077TIP3    H148646   5.343   2.296  14.580  0.6088  1.3648  1.2827
 9077TIP3    H248647   5.303   2.216  14.703 -0.4292  0.7392  0.5568
 9078TIP3   OH248648   0.379   5.590   1.017 -0.5041  0.0538  0.4456
 9078TIP3    H148649   0.421   5.628   1.094 -1.3608  1.2487  0.3457
 9078TIP3    H248650   0.336   5.664   0.974 -1.2863 -0.8445 -0.3677
 9079TIP3   OH248651   0.405   0.891   5.424  0.3275 -0.1606  0.6484
 9079TIP3    H148652   0.393   0.884   5.329  0.7405  2.4625  0.3234
 9079TIP3    H248653   0.349   0.964   5.449  1.5481  0.3086  2.1310
 9080TIP3   OH248654   2.164   1.898  11.850  0.5568  0.8747  0.0795
 9080TIP3    H148655   2.171   1.900  11.755 -1.3077  1.5531 -0.0838
 9080TIP3    H248656   2.130   1.811  11.870  1.9750  0.3309  0.2490
 9081TIP3   OH248657   1.816   5.889  14.686  0.3802  0.2141  0.3616
 9081TIP3    H148658   1.724   5.863  14.680 -0.0548  1.7710 -0.0377
 9081TIP3    H248659   1.851   5.834  14.755 -0.6733 -0.8857  0.0674
 9082TIP3   OH248660   5.514   5.959  12.966 -0.0151 -0.6397 -0.2879
 9082TIP3    H148661   5.427   5.951  13.005  0.1892  0.6809  0.4854
 9082TIP3    H248662   5.573   5.976  13.040  1.4087 -4.2280 -0.3957
 9083TIP3   OH248663   0.089   1.671   2.053 -0.0574 -0.4215  0.3923
 9083TIP3    H148664   0.092   1.600   2.117  0.7191 -1.6275 -0.8988
 9083TIP3    H248665   0.143   1.740   2.091  1.0988 -1.4484  0.6881
 9084TIP3   OH248666   0.775   5.612   6.036  0.2939 -0.0195 -0.4799
 9084TIP3    H148667   0.800   5.598   6.127 -0.3270 -0.0015 -0.3051
 9084TIP3    H248668   0.847   5.664   6.000  0.5885 -0.1042 -0.0278
 9085TIP3   OH248669   0.930   5.274  17.032  0.2199 -0.3108 -0.1012
 9085TIP3    H148670   0.934   5.222  16.951 -0.8518 -0.0095 -0.3683
 9085TIP3    H248671   0.996   5.342  17.020 -0.3449  0.1063 -1.0109
 9086TIP3   OH248672   2.017   1.787   3.432 -0.1005  0.0963 -0.6160
 9086TIP3    H148673   1.938   1.797   3.379 -1.4697  0.5430  1.3743
 9086TIP3    H248674   1.985   1.787   3.522  2.2565  1.1574  0.3108
 9087TIP3   OH248675   1.970   6.468   2.843 -0.1754  0.6061  0.3463
 9087TIP3    H148676   1.939   6.423   2.764  3.0709  0.2964 -0.9115
 9087TIP3    H248677   2.032   6.406   2.882 -1.2903  0.9950  2.8881
 9088TIP3   OH248678   5.811   2.455   4.893 -0.0675  0.2863  0.3374
 9088TIP3    H148679   5.900   2.472   4.864 -0.4009  2.0462  0.1749
 9088TIP3    H248680   5.773   2.402   4.823  0.7978 -0.3276  0.3259
 9089TIP3   OH248681   0.850   3.084   5.604  0.3016  0.1730 -0.3598
 9089TIP3    H148682   0.919   3.093   5.670  0.4327 -1.7190 -0.1874
 9089TIP3    H248683   0.794   3.161   5.617 -0.4226 -0.7482  2.8615
 9090TIP3   OH248684   4.177   1.140  11.190 -0.0940  0.1246  0.2992
 9090TIP3    H148685   4.139   1.126  11.103  0.8859  0.4301 -0.1838
 9090TIP3    H248686   4.115   1.199  11.233  0.0566  1.0110 -0.6598
 9091TIP3   OH248687   3.926   1.366   1.335  0.1990 -0.5570  0.3540
 9091TIP3    H148688   3.985   1.292   1.331 -0.3218 -0.9699  0.1375
 9091TIP3    H248689   3.869   1.356   1.258  1.1011  0.9007 -0.5654
 9092TIP3   OH248690   3.425   3.057  13.715 -0.5123  0.0983  0.0583
 9092TIP3    H148691   3.379   3.086  13.794  0.6784 -0.6299  1.0404
 9092TIP3    H248692   3.355   3.038  13.652 -1.6152 -1.6062  1.7204
 9093TIP3   OH248693   1.835   0.450  12.482  0.3263 -0.5063  0.0697
 9093TIP3    H148694   1.803   0.504  12.554  1.0615 -0.8695  0.6849
 9093TIP3    H248695   1.775   0.469  12.409 -1.9559 -1.9338  1.4400
 9094TIP3   OH248696   1.618   2.127   3.615  0.0023  0.5592  0.5128
 9094TIP3    H148697   1.662   2.130   3.531  1.1083  1.5391  1.0920
 9094TIP3    H248698   1.685   2.096   3.676 -0.3169  1.3510  1.2857
 9095TIP3   OH248699   3.647   0.303   1.430 -0.4867  0.1822 -0.1536
 9095TIP3    H148700   3.661   0.275   1.520 -1.3488  0.1517 -0.0253
 9095TIP3    H248701   3.722   0.359   1.410 -1.4357  2.0769  1.3475
 9096TIP3   OH248702   5.494   0.183  15.367 -0.3283 -0.2620  0.4586
 9096TIP3    H148703   5.523   0.107  15.419 -1.3571 -1.4692 -0.6407
 9096TIP3    H248704   5.398   0.176  15.367 -0.3700 -0.6309 -1.9868
 9097TIP3   OH248705   1.266   5.756  12.804 -0.2726  0.1838 -0.0707
 9097TIP3    H148706   1.336   5.789  12.861 -0.7093  1.9321 -0.4972
 9097TIP3    H248707   1.306   5.681  12.759  1.6506  1.6226 -0.9148
 9098TIP3   OH248708   6.009   5.500   6.756 -0.6053  0.5568 -0.6210
 9098TIP3    H148709   6.017   5.508   6.661 -1.1615 -4.9131 -1.4525
 9098TIP3    H248710   5.916   5.482   6.771 -0.0495 -1.8533  0.4261
 9099TIP3   OH248711   1.589   6.410   3.377 -0.0303 -0.4262  0.3996
 9099TIP3    H148712   1.679   6.406   3.408 -0.8134  0.6568  3.0783
 9099TIP3    H248713   1.536   6.403   3.456 -2.2793  0.0966 -0.9799
 9100TIP3   OH248714   6.587   0.501   0.867  0.0560  0.2778  0.2076
 9100TIP3    H148715   6.661   0.446   0.891 -0.4617 -0.7992 -0.6237
 9100TIP3    H248716   6.534   0.447   0.808 -1.6046  0.8658  1.0876
 9101TIP3   OH248717   3.420   0.712  11.617  1.2859 -0.2228 -0.4314
 9101TIP3    H148718   3.477   0.644  11.653 -1.5716 -2.2010  0.7899
 9101TIP3    H248719   3.359   0.664  11.561 -1.6482  0.9874  1.4791
 9102TIP3   OH248720   6.357   3.587   1.000 -0.4775  0.0282 -0.5633
 9102TIP3    H148721   6.323   3.498   1.004 -0.2987  0.0164  1.4133
 9102TIP3    H248722   6.341   3.624   1.087  1.5957  1.1218 -0.5743
 9103TIP3   OH248723   5.307   6.125   4.644 -0.0339  0.5096  0.1827
 9103TIP3    H148724   5.240   6.137   4.710  0.0978 -0.2873  0.4648
 9103TIP3    H248725   5.313   6.210   4.600 -0.5644  0.8521  0.7686
 9104TIP3   OH248726   1.848   4.528  11.472 -0.3142  0.1901 -0.2535
 9104TIP3    H148727   1.797   4.548  11.551 -1.1663 -0.3152 -0.6643
 9104TIP3    H248728   1.859   4.612  11.428  2.0468  0.8990  1.4550
 9105TIP3   OH248729   0.685   1.631   3.716  0.5263 -0.3064 -0.0328
 9105TIP3    H148730   0.729   1.567   3.773  0.8725  0.0650  0.1248
 9105TIP3    H248731   0.639   1.689   3.777 -1.1727 -1.3824 -0.2361
 9106TIP3   OH248732   3.363   3.932  11.174 -0.3933 -0.0281 -1.1140
 9106TIP3    H148733   3.293   3.992  11.150 -0.6555  0.7874  1.3771
 9106TIP3    H248734   3.359   3.928  11.270  1.2867 -2.0243 -1.0622
 9107TIP3   OH248735   5.013   5.171  15.066  0.1250  0.0934 -0.1848
 9107TIP3    H148736   5.019   5.109  14.993 -0.1766 -1.1098  0.7675
 9107TIP3    H248737   5.035   5.118  15.143 -0.1897  1.1787  0.6647
 9108TIP3   OH248738   1.238   4.269  13.884  0.4201  0.4258 -0.1925
 9108TIP3    H148739   1.148   4.270  13.919  0.9434 -1.2922  1.3760
 9108TIP3    H248740   1.279   4.347  13.923 -0.1676  0.7875 -0.2852
 9109TIP3   OH248741   2.427   2.338   1.378  0.5104  0.0714  0.6932
 9109TIP3    H148742   2.512   2.306   1.408  0.7393  0.0669  0.0578
 9109TIP3    H248743   2.447   2.405   1.312  0.0579 -1.2250 -0.8420
 9110TIP3   OH248744   6.629   1.838   5.251  0.2086 -0.0175  0.2186
 9110TIP3    H148745   6.619   1.778   5.178 -0.7899  0.2651  0.1006
 9110TIP3    H248746   6.717   1.875   5.241  0.4811 -0.7727 -0.2205
 9111TIP3   OH248747   3.271   0.572  11.890  0.3196  0.0836 -0.6186
 9111TIP3    H148748   3.313   0.490  11.862 -0.4726 -0.1618 -1.1184
 9111TIP3    H248749   3.341   0.637  11.886  1.2539 -0.7645  0.8527
 9112TIP3   OH248750   0.466   1.768   2.385 -0.5161  0.3404 -0.0404
 9112TIP3    H148751   0.472   1.707   2.312  0.2007  0.0433  0.2556
 9112TIP3    H248752   0.556   1.777   2.417 -0.8323  0.3527  0.8966
 9113TIP3   OH248753   3.871   4.624  11.659 -0.4639 -0.1957 -0.0788
 9113TIP3    H148754   3.907   4.638  11.571 -2.4465  0.2626 -0.8675
 9113TIP3    H248755   3.912   4.543  11.689  1.2664  0.3407 -0.8569
 9114TIP3   OH248756   3.165   4.130  16.064 -0.0276  0.1301 -0.1414
 9114TIP3    H148757   3.081   4.148  16.107  0.1378  1.5679 -0.3776
 9114TIP3    H248758   3.221   4.203  16.089  1.2907 -0.9981  0.2918
 9115TIP3   OH248759   2.631   2.682  12.942  0.3857  0.5842 -0.4115
 9115TIP3    H148760   2.537   2.678  12.960  0.2191  0.4981 -1.2750
 9115TIP3    H248761   2.662   2.759  12.989  0.0791  0.0489  0.7101
 9116TIP3   OH248762   6.418   6.544   0.788  0.3232  0.2933 -0.1548
 9116TIP3    H148763   6.509   6.532   0.761  0.7115 -0.6013  1.4306
 9116TIP3    H248764   6.390   6.458   0.817 -0.7352  0.7467  0.2284
 9117TIP3   OH248765   3.916   1.279   3.843 -0.1149  0.3836  0.2010
 9117TIP3    H148766   3.894   1.361   3.889  0.9845  1.0060 -0.3540
 9117TIP3    H248767   3.953   1.308   3.760  2.4697 -0.5987  0.9242
 9118TIP3   OH248768   2.536   4.624  16.449  0.1108 -0.5649 -0.0532
 9118TIP3    H148769   2.607   4.587  16.502 -1.0522 -1.8455  0.6375
 9118TIP3    H248770   2.479   4.667  16.513 -1.0399 -1.6940 -0.2860
 9119TIP3   OH248771   5.178   2.953   3.046  0.1142  0.1143 -0.0175
 9119TIP3    H148772   5.157   2.874   3.096 -1.2527  1.4684  1.6879
 9119TIP3    H248773   5.270   2.971   3.067  0.1628 -0.5079  0.3158
 9120TIP3   OH248774   0.425   0.630  13.744  0.0005 -0.9521  0.9795
 9120TIP3    H148775   0.390   0.687  13.676  1.4342 -1.3632 -0.1558
 9120TIP3    H248776   0.389   0.543  13.724  0.7866 -1.1696  0.4099
 9121TIP3   OH248777   3.939   6.507   2.739 -0.7194  0.3678  0.3735
 9121TIP3    H148778   3.876   6.522   2.810 -2.6240 -1.7765 -0.7050
 9121TIP3    H248779   3.907   6.428   2.695  0.4526  1.4665 -2.7818
 9122TIP3   OH248780   5.056   2.941   5.036  0.0509  0.4963 -0.2788
 9122TIP3    H148781   4.979   2.916   5.087  0.5293  0.3250  0.3635
 9122TIP3    H248782   5.111   2.862   5.036  0.7243  0.9589  0.1984
 9123TIP3   OH248783   2.000   6.209   4.901 -0.4620 -0.1381 -0.2906
 9123TIP3    H148784   2.004   6.297   4.864 -1.0004  0.1987  0.4219
 9123TIP3    H248785   2.078   6.165   4.869 -0.9727  0.0931 -1.9330
 9124TIP3   OH248786   3.233   0.635   0.950 -0.0900  0.0904 -0.4615
 9124TIP3    H148787   3.299   0.694   0.987  1.6189 -0.6600 -2.1630
 9124TIP3    H248788   3.160   0.693   0.927  0.1118  1.0099  1.0679
 9125TIP3   OH248789   5.792   5.293  16.328 -0.0009 -0.1087  0.7231
 9125TIP3    H148790   5.817   5.331  16.244 -1.6569  0.1810  0.3182
 9125TIP3    H248791   5.845   5.214  16.336 -0.2839 -0.4899 -0.9147
 9126TIP3   OH248792   0.518   0.435  12.648 -0.0053  0.8207  0.1452
 9126TIP3    H148793   0.424   0.419  12.636 -0.3650  2.9882 -0.2044
 9126TIP3    H248794   0.557   0.416  12.563 -0.5320  2.4924 -0.4928
 9127TIP3   OH248795   6.489   0.060  16.348 -0.0292 -0.0071  0.4149
 9127TIP3    H148796   6.410   0.018  16.381  0.3011  0.3923  1.7680
 9127TIP3    H248797   6.533  -0.008  16.296 -1.0317 -0.3591  0.0031
 9128TIP3   OH248798   5.474   1.626  13.181  0.1331  0.2787  0.5808
 9128TIP3    H148799   5.551   1.676  13.154  1.8946 -3.0289 -1.1721
 9128TIP3    H248800   5.415   1.631  13.105  0.7782 -1.0521 -0.0370
 9129TIP3   OH248801   6.046   3.186  12.609  0.1824  0.2649  0.3065
 9129TIP3    H148802   6.050   3.159  12.701 -0.2363  2.1660  0.9332
 9129TIP3    H248803   6.095   3.119  12.562  0.9658 -0.4133  1.9999
 9130TIP3   OH248804   6.546   4.421   3.967  0.0397  0.0274  0.0049
 9130TIP3    H148805   6.500   4.504   3.964  0.8878  0.4821 -0.5201
 9130TIP3    H248806   6.579   4.407   3.878  0.4547 -0.5439  0.2378
 9131TIP3   OH248807   4.215   2.901   3.302 -0.2243  0.2868 -0.2014
 9131TIP3    H148808   4.259   2.869   3.382 -0.9465 -1.7917 -0.5687
 9131TIP3    H248809   4.270   2.868   3.231 -1.3598 -0.7602 -0.6185
 9132TIP3   OH248810   5.154   4.683   0.247  0.4766 -0.8001  0.2900
 9132TIP3    H148811   5.221   4.651   0.187 -0.4152 -1.5679 -0.3235
 9132TIP3    H248812   5.071   4.662   0.204 -0.1700  0.6900  0.7369
 9133TIP3   OH248813   2.373   5.526   4.363  0.3739 -0.2149  0.4053
 9133TIP3    H148814   2.371   5.514   4.458  0.4659 -0.6969  0.3521
 9133TIP3    H248815   2.286   5.559   4.341 -0.6664 -2.7668  0.3340
 9134TIP3   OH248816   0.088   6.183  16.067  0.2321 -0.0267 -0.0051
 9134TIP3    H148817   0.183   6.173  16.060  0.0562 -1.1606 -1.0327
 9134TIP3    H248818   0.070   6.269  16.027  1.1712  2.1499  3.7767
 9135TIP3   OH248819   0.959   2.107  14.614  0.2557 -0.1397  0.5751
 9135TIP3    H148820   0.972   2.017  14.582 -1.0766 -0.3173  0.4785
 9135TIP3    H248821   1.023   2.159  14.565 -0.3549 -0.7255 -0.9109
 9136TIP3   OH248822   5.397   4.076   3.367 -0.2617 -0.8866 -0.1188
 9136TIP3    H148823   5.492   4.082   3.360 -0.2994  1.5140  0.4389
 9136TIP3    H248824   5.381   4.071   3.461 -0.6886 -2.0572 -0.2399
 9137TIP3   OH248825   2.577   5.514  11.255 -0.4960  0.3760  0.1724
 9137TIP3    H148826   2.650   5.555  11.208 -0.0748 -0.3530  0.1792
 9137TIP3    H248827   2.563   5.570  11.331  0.0582  0.5290  0.1687
 9138TIP3   OH248828   6.132   2.620  16.151 -0.0995  0.1663 -0.3473
 9138TIP3    H148829   6.160   2.665  16.072  0.3800 -1.2292 -1.0073
 9138TIP3    H248830   6.110   2.690  16.213 -2.2687  1.3507 -2.3043
 9139TIP3   OH248831   6.468   0.437   2.938  0.1161 -0.1048  0.3570
 9139TIP3    H148832   6.447   0.527   2.961 -0.1222  0.0551 -0.4728
 9139TIP3    H248833   6.540   0.444   2.875 -0.6541 -0.4359 -0.5776
 9140TIP3   OH248834   2.048   3.398  16.905  0.3112  0.5591  0.5247
 9140TIP3    H148835   2.088   3.402  16.818  0.8219  0.9864  0.7740
 9140TIP3    H248836   2.092   3.324  16.948 -2.5959 -2.2357 -0.8602
 9141TIP3   OH248837   1.378   6.258   0.615 -0.1827  0.6398  0.5436
 9141TIP3    H148838   1.374   6.338   0.667  1.1873  1.2159 -0.1918
 9141TIP3    H248839   1.287   6.237   0.596 -0.5391  2.6011 -0.1169
 9142TIP3   OH248840   0.737   2.939   5.151  0.0770  0.7530 -0.4645
 9142TIP3    H148841   0.769   2.985   5.228  1.3450 -1.9345  0.7756
 9142TIP3    H248842   0.655   2.898   5.179  0.7406 -0.5611 -0.3476
 9143TIP3   OH248843   5.597   3.946  13.163  0.1096  0.6718 -0.6210
 9143TIP3    H148844   5.653   4.005  13.214  0.1255 -0.5718  0.8769
 9143TIP3    H248845   5.658   3.889  13.116  0.1002  0.5461 -0.4816
 9144TIP3   OH248846   5.156   0.567  15.260 -0.3015  0.2799 -0.1804
 9144TIP3    H148847   5.076   0.605  15.298  0.1344  0.4627  0.5824
 9144TIP3    H248848   5.211   0.547  15.336 -0.3492 -1.5410 -0.5834
 9145TIP3   OH248849   3.646   2.069  15.377 -0.1863  0.7978  0.0754
 9145TIP3    H148850   3.656   1.992  15.321  0.0932  1.9016 -1.4670
 9145TIP3    H248851   3.712   2.058  15.445  2.2715  1.2656 -2.0695
 9146TIP3   OH248852   0.629   4.815  15.429 -0.4349 -0.0330  0.3928
 9146TIP3    H148853   0.555   4.770  15.389 -1.2050  1.6081 -0.1136
 9146TIP3    H248854   0.619   4.799  15.523  0.0803 -1.9938  0.1411
 9147TIP3   OH248855   0.176   3.715   5.445 -0.2568 -0.5395  0.0497
 9147TIP3    H148856   0.153   3.686   5.357 -1.2435  0.3138  0.0216
 9147TIP3    H248857   0.144   3.645   5.502 -1.3986 -0.1711 -0.1230
 9148TIP3   OH248858   1.804   5.417   2.803  0.2371  0.4364 -0.3733
 9148TIP3    H148859   1.746   5.359   2.755 -1.5774  1.1216  0.8716
 9148TIP3    H248860   1.817   5.373   2.887  0.7431  0.7497 -0.2838
 9149TIP3   OH248861   0.770   3.136   2.718  0.1870 -1.0232  0.2484
 9149TIP3    H148862   0.847   3.088   2.688  0.6164 -0.7577  0.9004
 9149TIP3    H248863   0.698   3.073   2.715  0.5790 -1.4713  0.3273
 9150TIP3   OH248864   3.159   0.852  15.153  0.4537  0.2759  0.3910
 9150TIP3    H148865   3.067   0.877  15.143  0.6141  0.7788  0.1070
 9150TIP3    H248866   3.204   0.935  15.170  0.7119 -0.0974  1.6127
 9151TIP3   OH248867   0.927   4.254   2.249  0.4114  0.1244 -0.2524
 9151TIP3    H148868   0.850   4.285   2.202  0.1473  0.4984  0.4118
 9151TIP3    H248869   0.995   4.320   2.231  0.8496 -0.6446 -1.5357
 9152TIP3   OH248870   1.496   3.784   3.373  0.7166  0.0540  0.7032
 9152TIP3    H148871   1.568   3.745   3.323  0.5778 -0.1618  0.6714
 9152TIP3    H248872   1.469   3.715   3.433  0.7379  0.2408  0.9240
 9153TIP3   OH248873   0.053   4.010  13.297  0.1874  0.1174 -0.2012
 9153TIP3    H148874  -0.022   4.030  13.353  0.7508  1.9656 -0.0549
 9153TIP3    H248875   0.123   3.988  13.358  0.0283 -0.7693 -0.3150
 9154TIP3   OH248876   4.690   5.772  10.593 -0.0885  0.5706 -0.3972
 9154TIP3    H148877   4.603   5.785  10.632 -0.7432 -0.3088 -1.4891
 9154TIP3    H248878   4.672   5.747  10.502  1.3271  0.7239 -0.7424
 9155TIP3   OH248879   0.606   1.722  15.627  0.4315  0.0191  1.2658
 9155TIP3    H148880   0.538   1.695  15.565 -0.1450  0.7829  1.5468
 9155TIP3    H248881   0.563   1.716  15.712  0.2578  1.8472  1.3309
 9156TIP3   OH248882   1.679   0.738   5.144 -0.1717  0.0198 -0.1549
 9156TIP3    H148883   1.750   0.801   5.139 -0.1851  0.0823  0.3423
 9156TIP3    H248884   1.600   0.792   5.147 -0.1834 -0.0175  0.2642
 9157TIP3   OH248885   3.736   2.315   5.283  0.2172 -0.9701 -0.1314
 9157TIP3    H148886   3.779   2.299   5.367 -0.4968  0.7857  0.6172
 9157TIP3    H248887   3.807   2.347   5.226  0.3953 -0.5618  0.3135
 9158TIP3   OH248888   4.963   4.323   5.714  0.7881  0.2323 -0.9259
 9158TIP3    H148889   5.034   4.312   5.651  1.0940 -0.2318 -0.5068
 9158TIP3    H248890   4.909   4.245   5.703 -0.1025  0.9330 -1.7767
 9159TIP3   OH248891   5.743   3.271   1.896  0.0853  0.3584  0.4232
 9159TIP3    H148892   5.721   3.332   1.826  2.2380 -0.6703 -1.2586
 9159TIP3    H248893   5.796   3.323   1.956 -0.6397  0.8978  0.6145
 9160TIP3   OH248894   5.898   0.801  14.397  0.1301 -0.2228  0.1424
 9160TIP3    H148895   5.832   0.775  14.334 -1.1510  0.5986  1.0812
 9160TIP3    H248896   5.903   0.728  14.459 -1.5378  0.5585  1.2877
 9161TIP3   OH248897   3.394   5.472  15.915 -0.4503 -0.6193  0.1297
 9161TIP3    H148898   3.327   5.523  15.960  0.7197  1.9567 -0.8660
 9161TIP3    H248899   3.472   5.481  15.969  0.2398  0.2369 -0.9654
 9162TIP3   OH248900   3.966   3.036   2.085  0.2533  0.3361  0.0589
 9162TIP3    H148901   4.041   3.072   2.133  0.8492 -1.0093  0.1661
 9162TIP3    H248902   3.910   2.999   2.153  0.8366 -1.0830 -0.1888
 9163TIP3   OH248903   1.876   2.963  15.757 -0.0186  0.1961  0.0339
 9163TIP3    H148904   1.949   2.912  15.721 -0.4938  0.2002 -0.9631
 9163TIP3    H248905   1.853   3.025  15.688  0.6712  1.9310  1.2859
 9164TIP3   OH248906   1.871   0.045   4.149 -0.0342  0.4794 -0.2646
 9164TIP3    H148907   1.821   0.090   4.081  0.1462  0.9574 -0.0905
 9164TIP3    H248908   1.900   0.115   4.207  0.4499  0.1583 -0.1127
 9165TIP3   OH248909   2.521   5.202   6.513 -0.0841  0.1752 -0.0207
 9165TIP3    H148910   2.437   5.156   6.514  0.3957 -0.7214  0.5396
 9165TIP3    H248911   2.574   5.157   6.579  0.4757  1.4260  0.4057
 9166TIP3   OH248912   6.466   4.160  14.592  0.2910 -0.4305 -0.2053
 9166TIP3    H148913   6.371   4.153  14.580  0.1073  1.2018  0.0155
 9166TIP3    H248914   6.501   4.080  14.554 -1.2926 -1.9695  1.3914
 9167TIP3   OH248915   4.579   6.524   4.014 -0.0732 -0.1188  0.0194
 9167TIP3    H148916   4.595   6.589   3.945 -0.5309 -0.1548 -0.1253
 9167TIP3    H248917   4.592   6.573   4.096 -0.3846  0.1461 -0.0889
 9168TIP3   OH248918   0.687   4.699  11.556  0.3536  0.0927  0.2034
 9168TIP3    H148919   0.596   4.668  11.563  0.2411 -0.0854 -1.5838
 9168TIP3    H248920   0.715   4.670  11.469  2.8286 -1.6320  1.4713
 9169TIP3   OH248921   4.385   5.636   2.137 -0.5957 -0.1482 -0.3918
 9169TIP3    H148922   4.452   5.650   2.070 -0.3154  1.1606  0.1300
 9169TIP3    H248923   4.426   5.666   2.218 -1.9955  1.2419 -0.1515
 9170TIP3   OH248924   2.623   3.220   0.942 -0.3911  0.0732 -0.1530
 9170TIP3    H148925   2.670   3.192   1.020  0.2648 -1.3473 -1.0196
 9170TIP3    H248926   2.629   3.316   0.943  1.4561 -0.0152  0.4085
 9171TIP3   OH248927   1.583   0.616  14.947  0.3318 -0.6104  0.6394
 9171TIP3    H148928   1.587   0.569  14.864  0.3813 -1.9699  1.3875
 9171TIP3    H248929   1.583   0.709  14.922  0.7811 -0.9860 -0.8491
 9172TIP3   OH248930   2.941   5.197  11.196 -0.5932  0.6150 -0.7758
 9172TIP3    H148931   3.028   5.156  11.195 -0.3144  1.0563  1.0193
 9172TIP3    H248932   2.888   5.144  11.137  1.0226  0.6539 -2.3303
 9173TIP3   OH248933   3.105   4.995   4.309 -0.0274  0.0769  0.1123
 9173TIP3    H148934   3.170   5.024   4.374 -0.0121 -0.9560  0.5651
 9173TIP3    H248935   3.091   4.903   4.329 -0.6263 -0.0441 -0.8554
 9174TIP3   OH248936   4.452   4.846  12.142 -0.1979 -0.3921  0.3975
 9174TIP3    H148937   4.495   4.867  12.059 -2.2553  1.0314 -0.3980
 9174TIP3    H248938   4.485   4.759  12.165 -0.9628 -1.7103 -2.9025
 9175TIP3   OH248939   1.812   1.704  13.000  0.4922  0.3364 -0.0768
 9175TIP3    H148940   1.823   1.620  12.957  0.1020  0.3015 -0.1196
 9175TIP3    H248941   1.717   1.716  13.005  0.5420  0.8608 -0.2408
 9176TIP3   OH248942   6.547   5.715  15.025 -0.1041 -0.0393 -0.0863
 9176TIP3    H148943   6.611   5.779  15.056  2.5226 -0.3462 -4.2329
 9176TIP3    H248944   6.588   5.630  15.043  0.6771 -0.2448 -2.5804
 9177TIP3   OH248945   0.838   6.027   1.462 -0.5646 -0.5021  0.4818
 9177TIP3    H148946   0.803   6.105   1.419 -0.4899 -0.0748  1.1774
 9177TIP3    H248947   0.761   5.976   1.486 -0.6066 -0.7454 -0.1548
 9178TIP3   OH248948   6.702   5.729  15.281  0.2780 -0.4968  0.3226
 9178TIP3    H148949   6.614   5.703  15.308 -0.2632  1.2968  0.4135
 9178TIP3    H248950   6.738   5.651  15.239 -1.5120 -1.1303 -0.1323
 9179TIP3   OH248951   6.351   4.716  15.616  0.0651 -0.3525  0.5917
 9179TIP3    H148952   6.310   4.637  15.650 -0.2195 -0.5783 -0.2596
 9179TIP3    H248953   6.389   4.690  15.532 -0.0290  0.4084  0.3017
 9180TIP3   OH248954   6.728   5.365  14.347 -0.6588 -0.6359 -0.2054
 9180TIP3    H148955   6.785   5.289  14.332  2.0047  1.0096  0.8019
 9180TIP3    H248956   6.747   5.424  14.274 -3.1305 -1.0883 -1.2924
 9181TIP3   OH248957   5.381   4.751  13.827 -0.6639  0.3247  0.6532
 9181TIP3    H148958   5.338   4.837  13.828 -0.1879  0.6755 -1.9496
 9181TIP3    H248959   5.465   4.767  13.784 -0.3448 -1.3599  0.6118
 9182TIP3   OH248960   6.313   3.201  13.391 -0.1476 -0.1013 -0.1088
 9182TIP3    H148961   6.405   3.215  13.369 -0.1569  0.9126  0.4368
 9182TIP3    H248962   6.302   3.106  13.388  0.9401 -0.2441 -0.0859
 9183TIP3   OH248963   2.541   3.338   4.012 -0.0488 -0.5111 -1.0911
 9183TIP3    H148964   2.574   3.277   3.947  1.3863 -0.1569 -0.7236
 9183TIP3    H248965   2.552   3.292   4.095  2.8830  0.8789 -0.5800
 9184TIP3   OH248966   3.962   0.639  15.712  0.4755  0.1337  0.4198
 9184TIP3    H148967   3.932   0.575  15.777  2.2009 -0.5853  0.5623
 9184TIP3    H248968   3.970   0.720  15.761  3.3165 -0.7459  1.6375
 9185TIP3   OH248969   4.014   0.495   0.273  0.7767 -0.3809  0.2498
 9185TIP3    H148970   3.955   0.567   0.294  0.5501 -0.2075 -0.9038
 9185TIP3    H248971   4.023   0.499   0.178 -0.1054 -2.5510  0.0428
 9186TIP3   OH248972   0.227   2.411  14.535  0.1638 -0.3128  0.0851
 9186TIP3    H148973   0.161   2.463  14.489  0.8396 -0.7708 -1.5001
 9186TIP3    H248974   0.198   2.320  14.525 -0.7247 -0.3382  2.3644
 9187TIP3   OH248975   2.417   4.430  11.197  0.0040 -0.2410 -0.0997
 9187TIP3    H148976   2.403   4.476  11.280  0.4079 -0.4811  0.1031
 9187TIP3    H248977   2.332   4.433  11.154  0.3049  1.8419 -0.6643
 9188TIP3   OH248978   1.745   5.257  15.640 -0.1005 -0.2405 -0.3467
 9188TIP3    H148979   1.683   5.321  15.605 -0.0882 -0.6455 -1.1322
 9188TIP3    H248980   1.754   5.280  15.733  0.8611  1.6567 -0.8665
 9189TIP3   OH248981   1.632   5.899   2.537  0.0589  0.0230 -0.2137
 9189TIP3    H148982   1.603   5.817   2.578  2.8016 -1.4005 -0.8850
 9189TIP3    H248983   1.626   5.882   2.443  1.0039  0.4315 -0.3614
 9190TIP3   OH248984   6.380   5.213  12.262  0.0717  0.3761 -0.0062
 9190TIP3    H148985   6.451   5.229  12.200  0.1787 -0.6649 -0.1680
 9190TIP3    H248986   6.328   5.143  12.222 -1.2163  1.3206 -0.0211
 9191TIP3   OH248987   5.536   1.954   5.306  0.1170 -0.1572 -0.2535
 9191TIP3    H148988   5.517   1.875   5.256  1.9921 -1.5835  1.1295
 9191TIP3    H248989   5.466   1.960   5.371 -1.0488  0.4100 -1.5178
 9192TIP3   OH248990   6.178   2.450   0.225 -0.2342 -0.6276 -0.2749
 9192TIP3    H148991   6.119   2.484   0.158  1.3917  2.3671 -0.3880
 9192TIP3    H248992   6.127   2.450   0.305 -0.9703 -0.1304 -0.7329
 9193TIP3   OH248993   0.033   1.337  16.818  0.0315 -0.0016  0.4417
 9193TIP3    H148994   0.018   1.264  16.757  2.1094 -0.2370  0.1535
 9193TIP3    H248995   0.004   1.415  16.771  1.7480 -0.1592 -0.9656
 9194TIP3   OH248996   4.826   4.660  13.742  0.6737 -0.1905 -0.3757
 9194TIP3    H148997   4.752   4.662  13.803  0.8290 -0.6972 -0.1713
 9194TIP3    H248998   4.785   4.670  13.656  0.5973  2.5899 -0.1173
 9195TIP3   OH248999   2.202   3.449   0.163 -0.1525 -0.1427  0.1383
 9195TIP3    H149000   2.170   3.438   0.253  0.7218 -0.2854  0.4363
 9195TIP3    H249001   2.244   3.366   0.142 -1.5631 -0.6426 -0.9307
 9196TIP3   OH249002   6.496   2.300  12.739 -0.2682  0.1237 -0.5450
 9196TIP3    H149003   6.513   2.333  12.650  1.7230  1.3224  0.1997
 9196TIP3    H249004   6.408   2.263  12.734 -0.5063  0.7910 -2.8320
 9197TIP3   OH249005   6.176   1.049  14.704 -0.2355 -0.2123  0.5580
 9197TIP3    H149006   6.160   1.090  14.619 -2.3807 -3.5458 -0.8776
 9197TIP3    H249007   6.108   1.084  14.761  1.6023  2.5359  1.2680
 9198TIP3   OH249008   1.921   6.099  11.339 -0.2690 -0.3376  0.0830
 9198TIP3    H149009   1.941   6.106  11.246 -0.5247 -0.7610 -0.0045
 9198TIP3    H249010   1.850   6.162  11.353 -0.8947 -0.9560 -0.2103
 9199TIP3   OH249011   5.574   0.766  14.399 -0.8157 -0.3649 -0.6353
 9199TIP3    H149012   5.592   0.760  14.306  0.6950 -0.9286 -0.3365
 9199TIP3    H249013   5.630   0.700  14.439 -1.2569  0.0235  0.6945
 9200TIP3   OH249014   5.591   5.998  15.379  0.2044  0.4917  0.0116
 9200TIP3    H149015   5.642   6.065  15.333  0.7752  1.4298  1.9227
 9200TIP3    H249016   5.640   5.981  15.460 -3.0625  2.4833  2.6605
 9201TIP3   OH249017   1.675   0.550   6.315  0.5519  0.2434  0.3512
 9201TIP3    H149018   1.695   0.589   6.400  0.2645  0.8465  0.1418
 9201TIP3    H249019   1.690   0.456   6.329 -3.8369 -0.4195  2.4727
 9202TIP3   OH249020   2.818   4.351  16.882  0.4135  0.5749 -0.0536
 9202TIP3    H149021   2.762   4.360  16.959  0.4288  1.2213 -0.1121
 9202TIP3    H249022   2.778   4.280  16.832 -0.2311  0.8838  0.0131
 9203TIP3   OH249023   4.189   0.825   0.702 -0.2810  0.1637  0.2382
 9203TIP3    H149024   4.252   0.762   0.666  0.6908 -0.2648  2.4807
 9203TIP3    H249025   4.243   0.897   0.733 -1.3151  1.7505 -1.4562
 9204TIP3   OH249026   6.015   6.715   2.516 -0.0109  0.0562  0.4859
 9204TIP3    H149027   6.106   6.687   2.516  0.1784  0.6117 -0.4106
 9204TIP3    H249028   5.979   6.678   2.435 -0.3375  0.5715  0.3917
 9205TIP3   OH249029   3.573   0.268  16.789 -0.3108  0.0253  0.1679
 9205TIP3    H149030   3.532   0.185  16.764  0.9074 -0.4276 -0.3936
 9205TIP3    H249031   3.563   0.323  16.711  0.9935 -0.4289 -0.3483
 9206TIP3   OH249032   2.304   1.100  17.386  0.3467 -0.7411  0.3162
 9206TIP3    H149033   2.355   1.101  17.305 -0.2647  1.9223 -0.1205
 9206TIP3    H249034   2.243   1.027  17.375  0.6750 -0.8033 -1.3621
 9207TIP3   OH249035   3.708   3.517  13.292  0.1044  0.2260  0.2949
 9207TIP3    H149036   3.683   3.425  13.305  1.3649 -0.1390  0.2992
 9207TIP3    H249037   3.625   3.565  13.294 -0.4776 -0.7646  1.4920
 9208TIP3   OH249038   3.962   1.080   0.562 -0.2822  0.5222  0.1979
 9208TIP3    H149039   3.944   1.142   0.491 -0.6756 -1.5543 -1.6534
 9208TIP3    H249040   3.876   1.043   0.584  0.0344  0.0518  0.6689
 9209TIP3   OH249041   1.271   5.627   2.597 -0.2533 -0.2525 -0.1028
 9209TIP3    H149042   1.263   5.535   2.573 -1.1638  0.3067 -2.1718
 9209TIP3    H249043   1.187   5.648   2.638 -1.0426  0.2165 -1.8700
 9210TIP3   OH249044   2.836   2.931   3.401 -0.1868  0.2061  0.4041
 9210TIP3    H149045   2.832   2.954   3.494 -2.1412  0.3941  0.3152
 9210TIP3    H249046   2.929   2.915   3.384  0.2714  0.6767  2.2577
 9211TIP3   OH249047   5.531   6.529   2.331 -0.1655 -0.1783 -1.2557
 9211TIP3    H149048   5.454   6.564   2.376  0.8863  0.7251 -0.0608
 9211TIP3    H249049   5.522   6.559   2.241 -1.5261 -0.6402 -1.2931
 9212TIP3   OH249050   0.564   3.027   0.235 -0.6042  0.9814 -0.3869
 9212TIP3    H149051   0.498   2.996   0.295 -0.3348  0.7013 -0.2316
 9212TIP3    H249052   0.515   3.057   0.158 -0.8257 -1.2571 -1.2092
 9213TIP3   OH249053   0.305   3.748  14.889  0.5418 -0.8355 -0.2287
 9213TIP3    H149054   0.252   3.688  14.942  2.3607 -2.3785 -0.0741
 9213TIP3    H249055   0.304   3.830  14.938 -1.6582 -0.8051 -0.2277
 9214TIP3   OH249056   6.393   6.183   4.000  0.4824  0.0403 -0.1377
 9214TIP3    H149057   6.314   6.195   3.947  1.4621  1.8252 -1.2958
 9214TIP3    H249058   6.448   6.124   3.948 -0.4502 -2.0840  1.1597
 9215TIP3   OH249059   2.693   2.448   3.559 -0.0664 -0.1813  0.0367
 9215TIP3    H149060   2.669   2.419   3.471  0.9300 -0.6809 -0.0895
 9215TIP3    H249061   2.771   2.502   3.546  0.2006 -0.4162  0.6228
 9216TIP3   OH249062   1.113   2.291  15.124 -0.6760  0.0972  0.0802
 9216TIP3    H149063   1.117   2.372  15.073 -0.6866 -0.9598 -1.6635
 9216TIP3    H249064   1.129   2.221  15.060  0.9445 -1.2106  1.7915
 9217TIP3   OH249065   5.491   4.393  16.251  0.1106  0.2251 -0.6312
 9217TIP3    H149066   5.450   4.474  16.220 -1.4792 -0.2293  0.1635
 9217TIP3    H249067   5.418   4.331  16.258  1.2121 -1.1140 -0.7048
 9218TIP3   OH249068   1.633   4.274  15.183 -0.6452  0.3296 -0.7631
 9218TIP3    H149069   1.569   4.212  15.218 -1.0814  0.0108 -2.0923
 9218TIP3    H249070   1.581   4.347  15.151 -0.1889  0.9861 -0.0517
 9219TIP3   OH249071   1.703   1.357  14.564  0.3572 -0.4715 -0.0163
 9219TIP3    H149072   1.651   1.419  14.614 -0.1681 -1.6817  0.9902
 9219TIP3    H249073   1.679   1.271  14.599  1.8636 -1.1820 -0.6121
 9220TIP3   OH249074   0.058   5.510   5.443  0.1822 -0.1692 -0.0666
 9220TIP3    H149075  -0.033   5.522   5.417  0.8558  1.5007 -1.8802
 9220TIP3    H249076   0.053   5.463   5.526 -2.3862  1.4768  0.8288
 9221TIP3   OH249077   3.338   0.408   5.222 -0.8518  0.1781  0.1662
 9221TIP3    H149078   3.412   0.349   5.233 -1.5308 -0.6935  0.2305
 9221TIP3    H249079   3.265   0.364   5.266 -1.1332  1.5907  1.1769
 9222TIP3   OH249080   5.088   5.958   2.310  0.0450 -0.0545  0.4315
 9222TIP3    H149081   5.010   5.976   2.361  0.4061 -1.9011  1.7244
 9222TIP3    H249082   5.140   5.900   2.365  1.4313 -0.4353 -1.1954
 9223TIP3   OH249083   2.725   2.666  13.741  0.2054  0.1621 -0.1755
 9223TIP3    H149084   2.662   2.733  13.714  2.2303  2.8524  1.3124
 9223TIP3    H249085   2.791   2.666  13.671  0.8061  0.6270  0.3728
 9224TIP3   OH249086   2.598   0.587   1.768 -0.3153  0.2527 -0.0280
 9224TIP3    H149087   2.579   0.639   1.846  1.0731 -1.6005  1.6442
 9224TIP3    H249088   2.554   0.503   1.783  1.4889 -0.7935 -0.3500
 9225TIP3   OH249089   1.075   1.189  15.922 -0.8681 -0.1959  0.4922
 9225TIP3    H149090   1.150   1.238  15.887 -0.5713 -0.2658  1.0308
 9225TIP3    H249091   0.999   1.229  15.880 -0.5719  0.2516  0.3767
 9226TIP3   OH249092   0.075   3.882   5.661  0.1709  0.5191  0.3249
 9226TIP3    H149093   0.126   3.841   5.731 -0.6871 -1.1774  0.0312
 9226TIP3    H249094   0.112   3.847   5.580  0.7192  1.9431 -0.0717
 9227TIP3   OH249095   6.679   3.342   1.648  0.2379 -0.1650 -0.8623
 9227TIP3    H149096   6.677   3.268   1.587 -0.2391 -0.8499 -0.0522
 9227TIP3    H249097   6.732   3.310   1.721 -1.7023 -0.5106  0.4545
 9228TIP3   OH249098   2.377   3.831   4.647  0.3273  0.1155  0.1739
 9228TIP3    H149099   2.318   3.827   4.722 -0.3364  0.0178 -0.3388
 9228TIP3    H249100   2.464   3.813   4.683  0.3820  2.3521  1.2932
 9229TIP3   OH249101   0.388   3.901   3.958  0.5917 -0.1528  0.6535
 9229TIP3    H149102   0.376   3.917   4.051 -1.6828  1.6920  0.1292
 9229TIP3    H249103   0.378   3.806   3.949 -0.7711 -0.1986  2.1132
 9230TIP3   OH249104   2.087   6.053  13.646  0.0671 -0.2862  0.3166
 9230TIP3    H149105   2.009   6.098  13.678  0.0433  1.8159 -2.3930
 9230TIP3    H249106   2.073   6.043  13.552  2.3590 -1.3485  0.0230
 9231TIP3   OH249107   2.692   5.698   2.856 -0.2515 -0.0607  0.2086
 9231TIP3    H149108   2.642   5.693   2.937  1.4625 -1.3063  1.2534
 9231TIP3    H249109   2.626   5.708   2.787 -1.7327  1.0316  1.7294
 9232TIP3   OH249110   2.510   5.658  13.616  0.2808  0.0080  0.3879
 9232TIP3    H149111   2.443   5.679  13.552  1.0456 -0.4054 -0.5855
 9232TIP3    H249112   2.496   5.719  13.688  0.5412  1.7575 -0.9769
 9233TIP3   OH249113   2.019   1.060   0.238 -0.6080  0.1050 -0.0950
 9233TIP3    H149114   1.988   0.993   0.177 -0.6009  0.6729 -0.7250
 9233TIP3    H249115   2.114   1.055   0.232 -0.6111  0.3266 -0.3053
 9234TIP3   OH249116   2.371   1.412  13.463  0.3355  0.2934  0.2203
 9234TIP3    H149117   2.362   1.320  13.486  1.5993 -0.5355 -2.1832
 9234TIP3    H249118   2.298   1.456  13.507 -1.3639 -2.1265  0.0008
 9235TIP3   OH249119   3.344   1.462  10.669 -0.0725 -0.3377  0.5483
 9235TIP3    H149120   3.370   1.508  10.749  2.7805  2.4958 -1.7053
 9235TIP3    H249121   3.410   1.394  10.657  0.9101  0.7379 -0.4432
 9236TIP3   OH249122   2.804   4.065   3.424 -0.4832  0.1290 -0.2268
 9236TIP3    H149123   2.760   4.136   3.471 -0.2934  0.7996 -1.0388
 9236TIP3    H249124   2.853   4.019   3.492 -1.0359  0.4422  0.4004
 9237TIP3   OH249125   6.301   1.821  11.997  0.0370  0.0294  0.0232
 9237TIP3    H149126   6.343   1.907  11.985  0.4445 -0.1819 -0.0794
 9237TIP3    H249127   6.335   1.789  12.080  0.4924 -0.3765 -0.3156
 9238TIP3   OH249128   5.111   0.627  11.762  0.4070 -0.3442  0.4425
 9238TIP3    H149129   5.101   0.674  11.680  0.7271 -1.5707 -0.3339
 9238TIP3    H249130   5.191   0.576  11.750  1.3387  0.6477  2.1288
 9239TIP3   OH249131   5.270   4.921  12.622 -0.5326 -0.0663 -0.2149
 9239TIP3    H149132   5.252   4.881  12.707  1.0631  1.1386  0.7507
 9239TIP3    H249133   5.247   5.013  12.633 -0.2310  0.1191 -1.0527
 9240TIP3   OH249134   0.581   5.573  16.813 -0.2726  0.4706 -0.0615
 9240TIP3    H149135   0.511   5.637  16.820 -1.7607 -1.1318  0.4463
 9240TIP3    H249136   0.547   5.495  16.857  1.6568 -0.5212 -0.2032
 9241TIP3   OH249137   5.726   4.087   0.197  0.6617 -0.2272 -0.5843
 9241TIP3    H149138   5.675   4.102   0.277 -0.7610 -0.1836 -1.4748
 9241TIP3    H249139   5.715   3.994   0.178 -2.2744  0.4548 -2.8198
 9242TIP3   OH249140   6.630   2.226   2.173  0.2328  0.2378 -0.0450
 9242TIP3    H149141   6.587   2.164   2.232  0.7737  0.8219  0.9859
 9242TIP3    H249142   6.696   2.270   2.227  0.9205  0.6137 -1.1469
 9243TIP3   OH249143   5.543   0.968   3.283  0.2020 -0.4943 -0.0912
 9243TIP3    H149144   5.470   0.911   3.306 -0.6045  0.5508 -0.0345
 9243TIP3    H249145   5.538   1.041   3.344  1.7789 -0.7892  0.4406
 9244TIP3   OH249146   0.805   3.282   0.102  0.2946 -0.2721  0.5348
 9244TIP3    H149147   0.852   3.366   0.096  1.3751 -0.8423  0.8801
 9244TIP3    H249148   0.765   3.272   0.016  0.6542  0.3148  0.2893
 9245TIP3   OH249149   3.194   6.652  16.311  0.1956  0.7430 -0.5086
 9245TIP3    H149150   3.099   6.636  16.306  0.3969 -0.4770 -0.5735
 9245TIP3    H249151   3.205   6.737  16.268 -1.1027  1.8595  1.2314
 9246TIP3   OH249152   2.195   6.740   3.583 -0.4574 -0.2630 -0.0883
 9246TIP3    H149153   2.248   6.767   3.508 -0.5233  1.3109  0.4034
 9246TIP3    H249154   2.126   6.806   3.588  0.7012  0.8643  2.5489
 9247TIP3   OH249155   5.717   2.531  11.746 -0.2751  0.2993 -0.1759
 9247TIP3    H149156   5.675   2.449  11.719  0.0714 -0.0690  0.3915
 9247TIP3    H249157   5.794   2.503  11.796 -0.2935  0.9723  0.2289
 9248TIP3   OH249158   6.709   1.338  16.137  0.2441  0.5287  0.4392
 9248TIP3    H149159   6.700   1.259  16.190  0.7165 -1.1043 -1.7760
 9248TIP3    H249160   6.804   1.350  16.128  0.1770  0.4043 -0.5280
 9249TIP3   OH249161   0.711   4.409  16.916  0.6036  0.3851 -0.0975
 9249TIP3    H149162   0.640   4.437  16.973 -2.1697 -0.2112 -2.9581
 9249TIP3    H249163   0.751   4.335  16.961 -2.7914 -1.3876  0.2992
 9250TIP3   OH249164   1.727   5.876   0.376 -0.1327 -0.3857  0.3426
 9250TIP3    H149165   1.693   5.916   0.456  0.0653  2.2285 -0.7646
 9250TIP3    H249166   1.649   5.844   0.330 -0.7342  1.5996 -0.1374
 9251TIP3   OH249167   0.209   4.023   5.214  0.2542  0.0957  0.3368
 9251TIP3    H149168   0.184   3.933   5.193 -4.3781  1.0447  0.8107
 9251TIP3    H249169   0.237   4.061   5.131  2.3488 -1.6447  0.1409
 9252TIP3   OH249170   5.829   6.596  14.160  0.2066  0.5105  0.2202
 9252TIP3    H149171   5.863   6.664  14.102  0.7083  0.5578  0.5678
 9252TIP3    H249172   5.902   6.576  14.219  0.4562 -1.1385 -0.5898
 9253TIP3   OH249173   3.469   1.744  15.479 -0.9477 -0.4629 -0.5003
 9253TIP3    H149174   3.484   1.830  15.517  0.8176 -0.7142 -0.5565
 9253TIP3    H249175   3.411   1.700  15.542 -0.7142  0.2723  0.2415
 9254TIP3   OH249176   0.230   1.839  12.831  0.0695  0.2840 -0.2576
 9254TIP3    H149177   0.231   1.892  12.751 -1.3776  2.2954  0.9483
 9254TIP3    H249178   0.292   1.884  12.890 -0.4503  0.0769  0.4565
 9255TIP3   OH249179   3.732   3.148   4.034 -0.1354 -0.2898  0.0621
 9255TIP3    H149180   3.668   3.131   4.103 -0.4902 -0.2360 -0.2465
 9255TIP3    H249181   3.736   3.243   4.028  1.0369 -0.2572  1.0443
 9256TIP3   OH249182   2.235   6.479   1.405 -0.1393 -0.5385  0.6027
 9256TIP3    H149183   2.160   6.540   1.408 -0.1540 -0.5578  0.6262
 9256TIP3    H249184   2.309   6.531   1.437 -0.3292 -0.7903  1.4740
 9257TIP3   OH249185   6.047   4.728  14.495  1.0007 -0.3611 -0.1564
 9257TIP3    H149186   6.026   4.801  14.436  1.8902  0.9621  1.0993
 9257TIP3    H249187   6.002   4.749  14.577 -0.3474 -2.2571 -0.3576
 9258TIP3   OH249188   2.343   1.395  11.417 -0.6175 -0.3851  0.1969
 9258TIP3    H149189   2.279   1.333  11.382 -0.9442 -1.2702  2.2412
 9258TIP3    H249190   2.295   1.446  11.482 -0.2173  1.7355 -1.0902
 9259TIP3   OH249191   1.854   5.089   4.150  0.0901  0.0769  0.0058
 9259TIP3    H149192   1.813   5.017   4.197  1.3839  0.1647  1.3440
 9259TIP3    H249193   1.871   5.054   4.063 -2.4167 -0.0689 -0.4953
 9260TIP3   OH249194   5.199   0.566   3.708 -0.4219 -0.1044  0.5383
 9260TIP3    H149195   5.284   0.574   3.751 -0.3099  3.0495 -0.0303
 9260TIP3    H249196   5.137   0.602   3.772 -1.3971 -2.2103  0.8780
 9261TIP3   OH249197   1.509   2.126   0.732 -0.0938  0.1299 -0.0357
 9261TIP3    H149198   1.561   2.059   0.776 -2.9868 -0.4271  2.9004
 9261TIP3    H249199   1.502   2.095   0.642  1.7618 -1.5041  0.3156
 9262TIP3   OH249200   4.748   6.588   3.438  0.0908 -0.6220 -0.1736
 9262TIP3    H149201   4.680   6.528   3.468 -1.3477  0.8361 -0.3278
 9262TIP3    H249202   4.707   6.637   3.367  1.6151 -0.2973 -0.8679
 9263TIP3   OH249203   2.455   4.171   6.471 -0.6327  0.0214  0.4420
 9263TIP3    H149204   2.533   4.145   6.421  0.1690 -0.0924  1.7156
 9263TIP3    H249205   2.471   4.262   6.494 -0.3808 -0.3039  1.5943
 9264TIP3   OH249206   1.169   6.592  13.525  0.4902  0.0871 -0.2547
 9264TIP3    H149207   1.226   6.590  13.448 -1.2197 -0.7436 -1.5486
 9264TIP3    H249208   1.138   6.502  13.534  0.9965  0.0646  1.7062
 9265TIP3   OH249209   6.260   2.693   4.738  0.5088 -0.3750 -0.3609
 9265TIP3    H149210   6.243   2.763   4.801 -1.0697 -0.2591 -0.8840
 9265TIP3    H249211   6.332   2.727   4.684 -1.1492  1.4938 -1.5058
 9266TIP3   OH249212   5.836   5.405   3.706 -0.1264  0.0640 -0.3325
 9266TIP3    H149213   5.821   5.493   3.740 -0.6425 -0.6199  1.3317
 9266TIP3    H249214   5.900   5.367   3.766 -0.0969 -0.7767 -0.8794
 9267TIP3   OH249215   0.253   3.921   1.643  0.3489 -0.1247  0.3003
 9267TIP3    H149216   0.286   3.832   1.652  0.1622 -0.5499 -2.4849
 9267TIP3    H249217   0.166   3.911   1.603  0.4415  1.3228 -0.3116
 9268TIP3   OH249218   6.418   3.902  13.328  0.1608  0.1698 -0.0856
 9268TIP3    H149219   6.444   3.982  13.375 -0.9573  1.6762 -1.8609
 9268TIP3    H249220   6.338   3.873  13.373 -0.2853  0.9607 -0.3375
 9269TIP3   OH249221   3.929   1.441  16.439 -0.6085 -0.2548  0.1744
 9269TIP3    H149222   3.851   1.445  16.383 -0.4118  0.3248 -0.0666
 9269TIP3    H249223   3.953   1.349  16.440 -0.3679 -0.2198 -1.0357
 9270TIP3   OH249224   0.634   4.783   0.290 -0.3335 -0.3182 -0.3473
 9270TIP3    H149225   0.652   4.816   0.378  1.1637 -1.5195 -0.1656
 9270TIP3    H249226   0.609   4.691   0.304 -1.3139 -0.1746 -1.0828
 9271TIP3   OH249227   2.734   0.944   2.495 -0.0538  0.0738  0.3251
 9271TIP3    H149228   2.715   0.850   2.493 -0.4187  0.1558 -0.5262
 9271TIP3    H249229   2.648   0.986   2.494  0.0977  0.4284  1.0784
 9272TIP3   OH249230   5.702   2.922  17.090  0.2372 -0.2172  0.2007
 9272TIP3    H149231   5.667   3.008  17.115  1.2231 -0.0375  1.0441
 9272TIP3    H249232   5.737   2.934  17.002 -0.3573  0.0233 -0.0058
 9273TIP3   OH249233   6.343   5.619   6.181  0.7414  0.7088  0.6303
 9273TIP3    H149234   6.249   5.628   6.195  0.0458 -2.5334 -1.0015
 9273TIP3    H249235   6.367   5.697   6.131 -0.8627  1.9989  1.7558
 9274TIP3   OH249236   1.562   5.361  15.435  0.0472 -0.2356 -0.5882
 9274TIP3    H149237   1.563   5.455  15.419  2.4051 -0.1101 -0.1140
 9274TIP3    H249238   1.473   5.342  15.464  0.1337  2.2783  1.6839
 9275TIP3   OH249239   4.463   5.311  16.990  0.3711  0.1504 -0.9296
 9275TIP3    H149240   4.508   5.359  16.920  0.4546 -1.1654 -1.8349
 9275TIP3    H249241   4.386   5.273  16.947 -0.2730  0.3764  0.0147
 9276TIP3   OH249242   5.626   4.207  16.384 -0.0556 -0.5693 -0.2884
 9276TIP3    H149243   5.589   4.281  16.336  0.6165 -0.7661 -1.1355
 9276TIP3    H249244   5.554   4.174  16.438  0.1122  1.8943  1.6289
 9277TIP3   OH249245   4.568   1.672  15.617  0.4394  0.3740  0.1572
 9277TIP3    H149246   4.654   1.636  15.595 -0.2268 -2.2826  1.4263
 9277TIP3    H249247   4.581   1.717  15.700  0.6822  0.2047  0.2138
 9278TIP3   OH249248   4.432   4.002  16.182  0.2135 -0.0674 -0.2028
 9278TIP3    H149249   4.520   4.012  16.217 -0.2056  0.6587  0.6814
 9278TIP3    H249250   4.443   3.948  16.104  1.3908 -0.2738  0.0906
 9279TIP3   OH249251   1.635   1.333   0.283  0.5121 -0.5381 -0.4856
 9279TIP3    H149252   1.718   1.306   0.244  1.0686 -1.2678  1.1288
 9279TIP3    H249253   1.594   1.252   0.311 -0.4561 -0.1226 -0.6523
 9280TIP3   OH249254   3.633   5.362  16.450 -0.1104  0.0937  0.3412
 9280TIP3    H149255   3.669   5.400  16.531 -0.9565  0.5250  0.5358
 9280TIP3    H249256   3.690   5.394  16.381 -0.1555  0.8235  0.6325
 9281TIP3   OH249257   1.376   5.878   2.152  0.2100  0.3552  0.0212
 9281TIP3    H149258   1.426   5.813   2.201 -0.7459  0.4837  1.2156
 9281TIP3    H249259   1.302   5.900   2.209 -1.1003  0.3241 -1.5979
 9282TIP3   OH249260   5.901   1.553   4.128  0.3157 -0.0536 -0.6731
 9282TIP3    H149261   5.898   1.474   4.180  0.1130  0.0386 -0.5425
 9282TIP3    H249262   5.958   1.613   4.176 -1.1341  0.6135  0.2775
 9283TIP3   OH249263   0.393   0.957  15.927  0.5056  0.1164  0.5420
 9283TIP3    H149264   0.348   0.878  15.957  0.0921  0.3568  0.5720
 9283TIP3    H249265   0.479   0.953  15.969  0.6899 -0.5872  0.1193
 9284TIP3   OH249266   5.021   5.348   2.094 -0.0877 -0.1224 -0.6314
 9284TIP3    H149267   5.059   5.435   2.109 -0.0234 -0.2092 -0.2754
 9284TIP3    H249268   5.093   5.288   2.111 -0.4299 -0.2995  0.2446
 9285TIP3   OH249269   5.267   3.953   5.393  0.0260 -0.2937 -0.3798
 9285TIP3    H149270   5.181   3.911   5.399 -0.4648  0.8372  1.1194
 9285TIP3    H249271   5.279   3.971   5.300 -1.7231  0.2125 -0.5365
 9286TIP3   OH249272   6.704   2.683  16.279  0.4757  0.1780  0.7149
 9286TIP3    H149273   6.706   2.595  16.317  0.0372 -0.2981 -0.3344
 9286TIP3    H249274   6.663   2.737  16.346 -1.6810 -0.9378  0.3688
 9287TIP3   OH249275   2.840   5.147   5.302 -0.3070 -0.2524 -0.2316
 9287TIP3    H149276   2.803   5.233   5.325 -1.0241 -0.7278  0.4598
 9287TIP3    H249277   2.858   5.153   5.208  0.7985  1.0645  0.0248
 9288TIP3   OH249278   3.893   5.499   6.199 -0.3205 -0.0113  0.9666
 9288TIP3    H149279   3.847   5.514   6.281 -0.3274 -1.7380  1.3036
 9288TIP3    H249280   3.827   5.464   6.139 -0.0738  0.2123  0.5505
 9289TIP3   OH249281   4.832   4.318  15.500 -0.0978 -0.4618  0.1108
 9289TIP3    H149282   4.845   4.224  15.503 -0.9335 -0.5647  0.9627
 9289TIP3    H249283   4.889   4.353  15.568 -1.2175 -0.5493  1.1259
 9290TIP3   OH249284   4.500   2.622   3.876  0.3965  0.1400 -0.3558
 9290TIP3    H149285   4.446   2.543   3.871  0.4273  0.1035 -0.0724
 9290TIP3    H249286   4.436   2.694   3.871  0.1819  0.1046  1.4155
 9291TIP3   OH249287   4.436   4.793   5.415  0.0461 -1.1876  0.3796
 9291TIP3    H149288   4.494   4.744   5.474 -0.7779 -0.3095  1.9939
 9291TIP3    H249289   4.348   4.775   5.448 -0.3356  0.5471  0.3784
 9292TIP3   OH249290   2.411   2.885   0.030  0.3650  0.2531  0.2495
 9292TIP3    H149291   2.377   2.811  -0.019 -1.8443  1.9567 -0.9841
 9292TIP3    H249292   2.445   2.945  -0.036 -1.3222  1.9486  0.8107
 9293TIP3   OH249293   4.447   3.152  15.177  0.1576  0.2282  0.8514
 9293TIP3    H149294   4.366   3.164  15.127  2.0631  0.8399 -2.3714
 9293TIP3    H249295   4.426   3.085  15.242 -2.0963 -2.1466 -2.0314
 9294TIP3   OH249296   5.868   5.884  15.577  0.4021  0.3483 -0.2128
 9294TIP3    H149297   5.891   5.941  15.650  1.0589 -0.5155  0.2728
 9294TIP3    H249298   5.932   5.903  15.509  2.6172 -1.9121  1.0621
 9295TIP3   OH249299   4.634   4.814   2.441 -0.5035 -0.2632  0.1337
 9295TIP3    H149300   4.695   4.848   2.375  1.1610 -1.9401  0.7198
 9295TIP3    H249301   4.689   4.796   2.517 -1.6147 -2.3720  0.5125
 9296TIP3   OH249302   1.151   2.579   6.788 -0.0836  0.5213 -0.0037
 9296TIP3    H149303   1.167   2.650   6.851 -0.3194  1.3415 -0.8417
 9296TIP3    H249304   1.208   2.600   6.715 -0.9694  0.4575 -0.7254
 9297TIP3   OH249305   3.027   5.055  16.159  0.0018 -0.4079  0.0958
 9297TIP3    H149306   3.055   4.980  16.212 -0.2416 -0.2797  0.4077
 9297TIP3    H249307   3.107   5.084  16.115  0.1633 -0.6509  0.2238
 9298TIP3   OH249308   6.476   0.890   4.929  0.3153 -0.2962 -0.1133
 9298TIP3    H149309   6.404   0.953   4.920 -0.5379 -1.1459  0.5736
 9298TIP3    H249310   6.450   0.817   4.872  0.2230 -0.9582  0.7592
 9299TIP3   OH249311   5.985   6.189  16.397 -0.5686  0.4331  0.0183
 9299TIP3    H149312   5.929   6.252  16.443 -2.0844  1.6228 -3.1260
 9299TIP3    H249313   6.068   6.234  16.386 -0.5922  0.5987  0.4805
 9300TIP3   OH249314   1.671   3.319  12.479 -0.1635 -0.1716  0.1673
 9300TIP3    H149315   1.655   3.401  12.526 -0.1892 -0.5723  0.8595
 9300TIP3    H249316   1.678   3.253  12.547 -2.5718 -1.1869 -0.4497
 9301TIP3   OH249317   3.478   3.320  14.973  0.1953 -0.0444  0.0460
 9301TIP3    H149318   3.563   3.321  14.928 -1.4519  1.3576 -3.4248
 9301TIP3    H249319   3.468   3.409  15.007 -0.3803  0.1665 -0.6617
 9302TIP3   OH249320   5.310   3.606  10.852 -0.4519  0.2263 -0.1328
 9302TIP3    H149321   5.290   3.552  10.776  1.0543  0.8516 -1.0212
 9302TIP3    H249322   5.394   3.648  10.831  0.3441 -0.0714  2.1226
 9303TIP3   OH249323   0.568   0.942  15.108 -0.1593 -0.3005 -0.1170
 9303TIP3    H149324   0.514   1.005  15.155 -2.4848 -2.3235  0.0885
 9303TIP3    H249325   0.569   0.864  15.164 -0.1179 -1.5762 -1.8190
 9304TIP3   OH249326   5.649   4.986  14.741  0.2531  0.5478 -0.2643
 9304TIP3    H149327   5.696   5.068  14.727  0.2836  0.5912  0.0660
 9304TIP3    H249328   5.587   4.981  14.669  0.6886  0.5453 -0.6412
 9305TIP3   OH249329   2.292   0.569  15.035  0.3290  0.1519 -0.5218
 9305TIP3    H149330   2.320   0.575  14.944  1.1394  0.2758 -0.2799
 9305TIP3    H249331   2.258   0.656  15.056  0.0836  0.1043 -0.7234
 9306TIP3   OH249332   6.304   1.663  16.392  0.2754 -0.7916  0.1231
 9306TIP3    H149333   6.302   1.573  16.423 -2.9814 -0.8301  0.1502
 9306TIP3    H249334   6.218   1.699  16.415  1.1365  2.0748 -0.6403
 9307TIP3   OH249335   5.014   6.148  12.353  0.3108 -0.1285  0.0587
 9307TIP3    H149336   5.074   6.157  12.279  1.5491 -1.4272  0.8406
 9307TIP3    H249337   5.034   6.223  12.409  2.9259 -1.6723  1.4041
 9308TIP3   OH249338   6.054   0.254  15.024 -0.4461  0.5634  0.1297
 9308TIP3    H149339   6.077   0.308  14.948  1.2225  1.2177  1.0607
 9308TIP3    H249340   6.123   0.188  15.027 -1.4317 -0.4855  0.1212
 9309TIP3   OH249341   2.999   5.074  14.058 -0.1598 -0.1488 -0.1599
 9309TIP3    H149342   2.977   5.141  13.994  0.6654  0.4864  0.1997
 9309TIP3    H249343   2.973   4.991  14.016 -0.1267  0.2928 -1.0828
 9310TIP3   OH249344   5.624   2.077   2.539 -0.0800 -0.3576  0.3885
 9310TIP3    H149345   5.650   2.168   2.528  0.4601 -0.3036  1.8921
 9310TIP3    H249346   5.676   2.045   2.613  0.0841 -2.0270 -0.3893
 9311TIP3   OH249347   4.429   0.140  11.453  0.3859  0.9215 -0.7036
 9311TIP3    H149348   4.414   0.149  11.547 -3.7044  2.7621 -1.3342
 9311TIP3    H249349   4.524   0.130  11.445  0.7714 -2.3151  3.7353
 9312TIP3   OH249350   4.031   0.532   4.521 -0.0201 -0.2432  0.3864
 9312TIP3    H149351   4.039   0.627   4.507 -0.8477  0.2836  2.8924
 9312TIP3    H249352   4.116   0.505   4.555  1.2266 -1.0737 -3.0335
 9313TIP3   OH249353   3.975   1.600  17.213  0.0409 -0.4589 -0.0487
 9313TIP3    H149354   4.025   1.519  17.204  2.2133  0.8259 -0.2900
 9313TIP3    H249355   4.036   1.661  17.253 -1.3281  1.2624 -0.4770
 9314TIP3   OH249356   0.222   6.294   3.608  0.0681  0.7291  0.3911
 9314TIP3    H149357   0.165   6.369   3.590  0.1147  0.3430 -1.5854
 9314TIP3    H249358   0.162   6.220   3.616  0.0774  0.8357  1.6458
 9315TIP3   OH249359   4.342   6.680   1.756 -0.5304 -0.2432 -0.0750
 9315TIP3    H149360   4.408   6.730   1.803  0.9251 -1.9168 -0.2325
 9315TIP3    H249361   4.348   6.592   1.794 -2.0639 -0.6586 -0.7233
 9316TIP3   OH249362   6.195   4.815  12.631  0.5617 -0.3814 -0.0245
 9316TIP3    H149363   6.128   4.880  12.650  1.0128 -0.5223  2.3746
 9316TIP3    H249364   6.151   4.750  12.576  0.3799  2.3380 -3.3789
 9317TIP3   OH249365   5.398   3.640  11.487 -0.5110 -0.1039  0.5127
 9317TIP3    H149366   5.480   3.621  11.532  0.1581  0.5963 -0.3614
 9317TIP3    H249367   5.352   3.700  11.545 -0.2696 -0.2681  0.8789
 9318TIP3   OH249368   3.238   2.835   3.779  0.3857 -0.3551  0.7028
 9318TIP3    H149369   3.195   2.751   3.799  1.3790 -0.5475  2.2549
 9318TIP3    H249370   3.315   2.810   3.727  0.2993 -0.3424  0.5705
 9319TIP3   OH249371   4.995   3.390  15.639  0.0805 -0.8112  0.3811
 9319TIP3    H149372   4.944   3.332  15.582  1.1308 -0.7864 -0.6268
 9319TIP3    H249373   4.995   3.474  15.593  0.0482 -0.4931  0.9577
 9320TIP3   OH249374   1.963   1.693   5.503 -0.8375 -0.0737  0.8650
 9320TIP3    H149375   1.953   1.769   5.560  0.1440 -1.2486  2.6698
 9320TIP3    H249376   2.014   1.630   5.554  0.1805 -1.1564 -1.3522
 9321TIP3   OH249377   1.145   0.189  12.391 -0.0693  0.1489  0.4101
 9321TIP3    H149378   1.210   0.121  12.410 -0.5243  0.1444  2.0998
 9321TIP3    H249379   1.196   0.261  12.354  0.4559 -0.9871 -1.1687
 9322TIP3   OH249380   0.827   6.326   1.458  0.3262 -0.7263 -0.5144
 9322TIP3    H149381   0.889   6.313   1.386  0.9090  0.6633 -0.2933
 9322TIP3    H249382   0.803   6.419   1.452  0.0592 -0.6974  0.8168
 9323TIP3   OH249383   3.860   3.516  12.205  0.3409  0.1678 -0.0962
 9323TIP3    H149384   3.878   3.503  12.298 -0.0730  1.3367  0.1649
 9323TIP3    H249385   3.940   3.556  12.171  0.0133  0.9556  0.0456
 9324TIP3   OH249386   0.778   4.049   4.540 -0.0836 -0.1408  0.1773
 9324TIP3    H149387   0.731   4.129   4.560 -1.0308 -0.2583 -1.4228
 9324TIP3    H249388   0.819   4.066   4.455  4.4838  0.6731  2.2654
 9325TIP3   OH249389   1.403   0.998   1.898  0.0791 -0.3141 -0.2568
 9325TIP3    H149390   1.419   0.935   1.828 -0.2948  1.5539 -2.1145
 9325TIP3    H249391   1.433   1.082   1.863 -0.6383  0.7980  1.6158
 9326TIP3   OH249392   5.049   1.057  16.305 -0.1768 -0.6438  0.0197
 9326TIP3    H149393   4.990   0.987  16.276 -0.4071  0.0418 -1.2122
 9326TIP3    H249394   5.118   1.011  16.354  0.0447 -1.8267 -1.3515
 9327TIP3   OH249395   3.334   4.232   5.280 -0.6183  0.6736  0.1819
 9327TIP3    H149396   3.325   4.138   5.294 -0.4066  0.6819  0.3845
 9327TIP3    H249397   3.244   4.266   5.282 -0.8399  0.2535 -1.5486
 9328TIP3   OH249398   0.347   3.304  16.637  0.8003  0.4268  0.1958
 9328TIP3    H149399   0.323   3.361  16.709  0.2974  0.0474  0.3379
 9328TIP3    H249400   0.405   3.238  16.675  1.0669  0.6175  0.1154
 9329TIP3   OH249401   5.044   1.382  11.524  0.1307  0.1942 -0.0828
 9329TIP3    H149402   5.065   1.382  11.431  1.5224  1.2377  0.2143
 9329TIP3    H249403   5.106   1.320  11.563  0.6396  0.9854  0.3748
 9330TIP3   OH249404   0.688   2.543   3.623  0.0742 -0.0866 -0.2500
 9330TIP3    H149405   0.767   2.529   3.675  1.4146  0.3424 -2.0660
 9330TIP3    H249406   0.629   2.591   3.681  1.6042  0.6416  0.7671
 9331TIP3   OH249407   5.496   4.513   0.535  0.0166  0.0814  0.4971
 9331TIP3    H149408   5.556   4.577   0.496 -0.3001  0.4378  0.5964
 9331TIP3    H249409   5.528   4.502   0.625 -0.9964  1.4624  1.0594
 9332TIP3   OH249410   3.182   5.405   3.006  0.1346  0.2791 -0.1644
 9332TIP3    H149411   3.153   5.403   2.915 -2.0186 -1.4975  0.4558
 9332TIP3    H249412   3.223   5.319   3.020 -0.9303 -0.0802  0.8906
 9333TIP3   OH249413   4.429   1.386   1.858  0.0709  0.6688  0.3360
 9333TIP3    H149414   4.439   1.481   1.866 -1.2474  0.9640 -1.0004
 9333TIP3    H249415   4.389   1.360   1.941 -1.6059  1.6564 -0.1023
 9334TIP3   OH249416   0.923   3.373  13.091 -0.1454  0.2729 -0.1597
 9334TIP3    H149417   0.860   3.369  13.163 -1.5062  0.3073 -1.3051
 9334TIP3    H249418   0.871   3.351  13.014  1.6021 -1.2575 -0.9537
 9335TIP3   OH249419   2.076   5.594   1.798  0.0617  0.8563  0.5594
 9335TIP3    H149420   2.141   5.643   1.748 -0.3846  0.6300 -0.2751
 9335TIP3    H249421   2.031   5.660   1.851 -0.4569  1.3528 -0.4655
 9336TIP3   OH249422   5.644   3.518   4.173  0.0831 -0.1996  0.5410
 9336TIP3    H149423   5.584   3.588   4.146 -0.0089  0.7368  2.9528
 9336TIP3    H249424   5.611   3.440   4.129 -0.5146  1.0285 -1.3027
 9337TIP3   OH249425   2.711   1.421  14.554 -0.2073 -0.1188 -0.2742
 9337TIP3    H149426   2.726   1.329  14.578  0.0406 -0.4410 -1.6271
 9337TIP3    H249427   2.784   1.444  14.497 -1.6294  0.0985 -2.0957
 9338TIP3   OH249428   5.207   3.548  12.348 -0.1174  0.8368 -0.1803
 9338TIP3    H149429   5.290   3.501  12.346  0.5980  1.9936  0.9607
 9338TIP3    H249430   5.143   3.486  12.313  0.9043 -0.7152  0.6067
 9339TIP3   OH249431   0.457   2.462  12.297 -0.0335 -0.1070 -0.4966
 9339TIP3    H149432   0.462   2.396  12.228  0.7445 -2.0883  1.3367
 9339TIP3    H249433   0.472   2.545  12.253  1.6344 -1.4079 -2.5409
 9340TIP3   OH249434   6.431   5.032   1.361 -0.2764  0.4366 -0.2320
 9340TIP3    H149435   6.495   5.014   1.292  0.8227  1.4388  0.4712
 9340TIP3    H249436   6.475   5.003   1.442 -1.2529 -0.0745  0.1287
 9341TIP3   OH249437   4.520   4.539  16.085 -0.7181 -0.2637  1.2791
 9341TIP3    H149438   4.449   4.509  16.141 -0.8880  0.2250  1.3299
 9341TIP3    H249439   4.477   4.591  16.017 -0.4443 -0.2691  1.1005
 9342TIP3   OH249440   6.392   4.088   4.735 -0.1666 -0.0919 -0.6956
 9342TIP3    H149441   6.352   4.003   4.717 -0.8612  0.2181 -0.6574
 9342TIP3    H249442   6.404   4.089   4.830 -2.8453  0.9720 -0.2860
 9343TIP3   OH249443   5.205   4.983  13.840  0.0203 -0.2959  0.5250
 9343TIP3    H149444   5.121   4.941  13.823  0.5823 -1.0398 -0.5572
 9343TIP3    H249445   5.199   5.067  13.794  0.5361 -1.1647 -1.2301
 9344TIP3   OH249446   1.999   0.349   1.061 -0.3274 -0.5954  0.4275
 9344TIP3    H149447   2.021   0.442   1.070 -1.2919 -0.2944 -0.1209
 9344TIP3    H249448   2.019   0.311   1.147  2.0120 -0.3282  0.0513
 9345TIP3   OH249449   2.797   6.189   5.084 -0.3204  0.0684 -0.1090
 9345TIP3    H149450   2.877   6.185   5.032 -0.1643  2.2885 -0.1607
 9345TIP3    H249451   2.747   6.262   5.046 -2.4278 -1.2946 -0.1318
 9346TIP3   OH249452   1.218   3.112  12.965 -0.9349  0.3840  0.0905
 9346TIP3    H149453   1.155   3.118  13.037  0.4379 -1.1781  1.5070
 9346TIP3    H249454   1.195   3.184  12.907 -0.7266  3.1394  3.1726
 9347TIP3   OH249455   2.454   4.662   2.149 -0.0842 -0.1695 -0.3805
 9347TIP3    H149456   2.367   4.697   2.132  0.6139  1.3942 -0.9374
 9347TIP3    H249457   2.456   4.645   2.243 -1.3530 -1.3347 -0.5407
 9348TIP3   OH249458   3.229   1.077  10.934  0.0691  0.3006  0.1300
 9348TIP3    H149459   3.178   1.023  10.874  0.6826 -0.7050  0.4905
 9348TIP3    H249460   3.307   1.025  10.952 -0.5850  0.0549  2.6499
 9349TIP3   OH249461   1.675   1.513  16.580 -0.1025 -0.6474 -0.0916
 9349TIP3    H149462   1.733   1.566  16.634 -0.6966  0.2122 -0.2685
 9349TIP3    H249463   1.588   1.525  16.618 -0.4841 -0.2525 -1.0477
 9350TIP3   OH249464   4.918   0.649  11.937  0.0841  0.2790  0.0189
 9350TIP3    H149465   4.987   0.621  11.877 -0.1842 -0.0914 -0.1223
 9350TIP3    H249466   4.893   0.568  11.982 -1.4867  0.0536 -1.1936
 9351TIP3   OH249467   5.010   0.731  16.731  0.6115  0.0376 -0.1001
 9351TIP3    H149468   4.922   0.762  16.752  0.6370 -0.1764  0.3328
 9351TIP3    H249469   5.039   0.685  16.810  1.3778  0.6940  0.0201
 9352TIP3   OH249470   0.110   5.155  12.503  0.0782 -0.1575  0.9885
 9352TIP3    H149471   0.107   5.172  12.597  0.2472  0.1640  0.9383
 9352TIP3    H249472   0.141   5.065  12.495  1.7399  0.3605  1.1958
 9353TIP3   OH249473   2.216   5.675  11.687 -1.0163 -0.0112  0.1668
 9353TIP3    H149474   2.302   5.635  11.700 -0.7743  0.5439  0.2983
 9353TIP3    H249475   2.213   5.694  11.594 -0.1754  1.7699  0.4552
 9354TIP3   OH249476   0.685   0.912  10.882  0.3700  0.5318  0.1591
 9354TIP3    H149477   0.741   0.909  10.804 -0.3071  1.5946 -0.3992
 9354TIP3    H249478   0.642   0.827  10.885  0.1953  0.5757 -0.8091
 9355TIP3   OH249479   5.613   0.086   3.437 -0.2130 -0.0996 -0.1014
 9355TIP3    H149480   5.661   0.084   3.520  1.8904 -1.7382 -1.2716
 9355TIP3    H249481   5.544   0.021   3.448  0.2867 -0.5803  0.2481
 9356TIP3   OH249482   6.353   1.905   1.773 -0.0174  0.4737  0.1304
 9356TIP3    H149483   6.343   1.897   1.868 -0.1434 -1.1074  0.0154
 9356TIP3    H249484   6.289   1.843   1.737  0.4418  0.6128 -0.9627
 9357TIP3   OH249485   5.624   3.424   1.656 -0.0720  0.0506  0.4514
 9357TIP3    H149486   5.536   3.463   1.651  0.0157  0.0734 -1.7621
 9357TIP3    H249487   5.614   3.337   1.617  0.9856  0.2809 -0.3925
 9358TIP3   OH249488   3.711   1.112   0.077 -0.4165  0.2912  0.3128
 9358TIP3    H149489   3.708   1.092  -0.016 -0.4423 -0.3650  0.4548
 9358TIP3    H249490   3.668   1.197   0.084  0.8922  1.0567 -0.4718
 9359TIP3   OH249491   5.512   5.798   4.375 -0.7994 -0.6667 -0.1583
 9359TIP3    H149492   5.582   5.806   4.440 -0.9226  0.9191 -0.1928
 9359TIP3    H249493   5.554   5.821   4.292 -1.2741 -0.0281 -0.2257
 9360TIP3   OH249494   2.469   5.302  14.142 -0.1593  0.2637  0.2248
 9360TIP3    H149495   2.378   5.275  14.126  0.1696 -0.4980 -0.3892
 9360TIP3    H249496   2.515   5.222  14.164  0.7666  0.3260 -1.3169
 9361TIP3   OH249497   5.578   5.566  11.424  0.1217 -0.3286  0.2267
 9361TIP3    H149498   5.555   5.517  11.346  1.8633 -1.2540  0.2488
 9361TIP3    H249499   5.666   5.600  11.407  1.0528 -1.5367  2.1819
 9362TIP3   OH249500   5.807   5.612  14.408  0.0739  0.4464  0.0758
 9362TIP3    H149501   5.799   5.516  14.412 -0.2106  0.4169 -0.8732
 9362TIP3    H249502   5.871   5.634  14.475  3.4924 -0.8371 -2.4686
 9363TIP3   OH249503   2.228   4.199   4.929 -0.5384 -0.1453 -0.2925
 9363TIP3    H149504   2.191   4.272   4.880 -0.2478  1.2288  1.4201
 9363TIP3    H249505   2.316   4.188   4.893 -0.5806  0.3666 -0.5521
 9364TIP3   OH249506   6.323   6.566   5.680  0.6222 -0.0650 -0.6156
 9364TIP3    H149507   6.305   6.567   5.586 -1.9536 -0.5479 -0.1964
 9364TIP3    H249508   6.288   6.649   5.712 -3.3812 -1.9824  0.5803
 9365TIP3   OH249509   0.111   4.004  14.527  0.0939 -0.2906 -0.5925
 9365TIP3    H149510   0.133   4.046  14.444 -1.3021  0.8658 -0.4244
 9365TIP3    H249511   0.036   3.949  14.507  0.6328 -1.1134 -0.3786
 9366TIP3   OH249512   2.160   1.676   1.402  0.7444  0.0823 -0.5061
 9366TIP3    H149513   2.236   1.726   1.372 -0.1140  1.9411  0.2936
 9366TIP3    H249514   2.085   1.727   1.371 -0.1677 -0.7172  0.3542
 9367TIP3   OH249515   2.002   1.425  11.930 -0.3515 -0.2376  0.5775
 9367TIP3    H149516   1.972   1.341  11.895  0.0281 -0.5514  0.9925
 9367TIP3    H249517   2.083   1.404  11.976 -0.1152  0.4059  0.4602
 9368TIP3   OH249518   3.295   4.090   6.274  0.1872 -0.1712  0.1308
 9368TIP3    H149519   3.322   4.162   6.331  0.5487 -0.0004 -0.2528
 9368TIP3    H249520   3.319   4.119   6.186 -2.1646  0.4585 -0.3799
 9369TIP3   OH249521   1.637   3.022  16.482 -1.1486  0.1063 -0.0740
 9369TIP3    H149522   1.643   2.933  16.448  2.1689 -0.1427  0.7803
 9369TIP3    H249523   1.581   3.015  16.559  0.2357 -1.6314  0.8463
 9370TIP3   OH249524   4.408   0.914   4.896 -0.1022 -0.2866  0.8200
 9370TIP3    H149525   4.459   0.962   4.962 -1.2080  2.7087 -0.3484
 9370TIP3    H249526   4.467   0.905   4.821 -0.1854  0.0724  0.7114
 9371TIP3   OH249527   5.119   2.841  13.258 -0.7066 -0.1080  0.5348
 9371TIP3    H149528   5.164   2.925  13.273 -1.0528 -0.1448  1.9299
 9371TIP3    H249529   5.026   2.862  13.265 -0.7879 -0.6494  1.1851
 9372TIP3   OH249530   1.114   6.443   3.663 -0.4389 -0.1281  0.1218
 9372TIP3    H149531   1.146   6.352   3.668 -1.0586 -0.3293  0.5826
 9372TIP3    H249532   1.171   6.485   3.599  0.3519 -0.6436  0.4656
 9373TIP3   OH249533   6.584   3.949  14.453 -0.1260 -0.0076  0.0138
 9373TIP3    H149534   6.549   3.965  14.365 -1.0139 -1.3330  0.0956
 9373TIP3    H249535   6.573   3.855  14.467  0.1762  0.1467  1.4712
 9374TIP3   OH249536   2.398   5.535   1.857  0.4179  0.4531  0.2445
 9374TIP3    H149537   2.491   5.534   1.878  0.0661 -0.7583  1.8999
 9374TIP3    H249538   2.354   5.549   1.941 -0.9175  0.4893 -0.4368
 9375TIP3   OH249539   3.020   2.098  13.444  0.2764  0.1751 -0.5626
 9375TIP3    H149540   3.030   2.046  13.363 -0.3364 -1.1373  0.1630
 9375TIP3    H249541   3.010   2.032  13.512 -0.5011  1.2871  0.4149
 9376TIP3   OH249542   6.555   2.537  13.678 -0.1682 -0.0008 -0.2782
 9376TIP3    H149543   6.647   2.566  13.678 -0.4610  1.0279 -1.5457
 9376TIP3    H249544   6.505   2.617  13.662 -1.2562 -0.6430 -0.1745
 9377TIP3   OH249545   2.765   2.954  14.093 -0.1945 -0.1930 -0.1932
 9377TIP3    H149546   2.773   2.878  14.035 -2.4345  0.7706 -1.9275
 9377TIP3    H249547   2.678   2.945  14.132  0.2427  0.5692  1.0128
 9378TIP3   OH249548   2.638   5.011  15.397  0.0267  0.2068  0.3091
 9378TIP3    H149549   2.562   5.028  15.340 -0.5828  0.3383  1.1324
 9378TIP3    H249550   2.599   4.991  15.482  0.9372  1.7502  1.1453
 9379TIP3   OH249551   3.082   1.907  17.126 -0.3273 -0.6550 -0.0563
 9379TIP3    H149552   3.062   1.929  17.035 -0.1906 -0.9191 -0.1537
 9379TIP3    H249553   3.170   1.943  17.141  0.3026 -1.9250 -0.5100
 9380TIP3   OH249554   1.351   1.526   6.019 -0.1175  0.2286 -0.6354
 9380TIP3    H149555   1.305   1.598   6.061  0.6057  0.1205  0.3861
 9380TIP3    H249556   1.282   1.475   5.976 -0.4753  2.3554 -2.7275
 9381TIP3   OH249557   4.532   6.106  12.761 -0.2208  0.1775 -0.6414
 9381TIP3    H149558   4.562   6.020  12.731 -3.8114 -1.1927 -0.7242
 9381TIP3    H249559   4.547   6.104  12.856 -2.7956 -1.8293 -0.1605
 9382TIP3   OH249560   0.736   2.082   0.369  0.0211 -0.4745 -0.1209
 9382TIP3    H149561   0.677   2.070   0.444  0.7221  0.6491  0.6513
 9382TIP3    H249562   0.824   2.069   0.405  0.3342 -0.5102 -0.8835
 9383TIP3   OH249563   6.326   0.272  14.758  0.4090 -0.5803  0.3002
 9383TIP3    H149564   6.380   0.302  14.685  0.2503  2.1951  1.2033
 9383TIP3    H249565   6.239   0.260  14.720  0.2832  1.0260  0.0179
 9384TIP3   OH249566   0.792   4.992  15.327 -0.5179 -0.1888 -0.7158
 9384TIP3    H149567   0.726   4.926  15.349  0.1631 -0.8476 -0.6351
 9384TIP3    H249568   0.797   5.048  15.404 -0.4698 -0.5618 -0.4505
 9385TIP3   OH249569   5.189   5.564   3.764  0.2330  0.3312  0.0164
 9385TIP3    H149570   5.267   5.607   3.800 -0.1569  0.9077  0.1834
 9385TIP3    H249571   5.216   5.473   3.749  1.1973  0.7120 -0.7051
 9386TIP3   OH249572   6.322   0.625   1.356  0.4270 -0.0160  0.4335
 9386TIP3    H149573   6.348   0.623   1.264 -0.1701  1.6730  0.1934
 9386TIP3    H249574   6.226   0.628   1.353  0.4330  1.6743  1.0287
 9387TIP3   OH249575   3.907   0.441   2.173 -0.8426  0.1071  0.1663
 9387TIP3    H149576   3.992   0.400   2.187 -2.0969 -2.8486 -0.1598
 9387TIP3    H249577   3.851   0.404   2.242 -2.1671  1.0054 -0.3932
 9388TIP3   OH249578   1.284   6.480   5.352 -0.9638 -0.9753 -0.1600
 9388TIP3    H149579   1.247   6.567   5.365 -2.2263 -1.5847  0.4232
 9388TIP3    H249580   1.367   6.496   5.307 -1.8313  0.4332 -1.3397
 9389TIP3   OH249581   6.702   3.373   3.628 -0.6118 -0.9266  0.1677
 9389TIP3    H149582   6.665   3.420   3.703 -0.6570 -0.9478  0.1591
 9389TIP3    H249583   6.628   3.365   3.567 -0.5382 -0.7854  0.0618
 9390TIP3   OH249584   5.509   2.736  13.925  0.7131 -0.2091  0.3723
 9390TIP3    H149585   5.532   2.782  14.006 -1.3754  0.1839  0.7890
 9390TIP3    H249586   5.429   2.779  13.895  0.3227 -1.6802 -0.8130
 9391TIP3   OH249587   4.348   0.527  13.958 -0.7025  0.7974  0.4599
 9391TIP3    H149588   4.349   0.505  13.865 -1.2797 -0.8923  0.8216
 9391TIP3    H249589   4.382   0.616  13.962 -1.2194  1.1155 -1.4249
 9392TIP3   OH249590   5.925   1.858   1.841 -0.4373 -0.5633 -0.3019
 9392TIP3    H149591   5.967   1.773   1.827  1.4256  0.5828 -2.2470
 9392TIP3    H249592   5.901   1.888   1.753  0.6389  1.7130  0.1101
 9393TIP3   OH249593   2.102   5.238  13.319 -0.1053  0.2508  0.3612
 9393TIP3    H149594   2.039   5.175  13.285  0.6594  0.3567 -1.3743
 9393TIP3    H249595   2.166   5.186  13.366 -0.3095 -0.0892  0.2654
 9394TIP3   OH249596   0.757   5.090   2.219  0.7202 -0.1417  0.4246
 9394TIP3    H149597   0.698   5.148   2.269  0.5773  0.0151  0.0782
 9394TIP3    H249598   0.825   5.149   2.186  0.6971 -0.2082  0.2592
 9395TIP3   OH249599   2.568   2.966  11.686  0.0787 -0.0856  0.3369
 9395TIP3    H149600   2.598   2.880  11.716  0.1382  0.0832  0.7767
 9395TIP3    H249601   2.545   3.012  11.767 -0.6289  0.0633  0.0565
 9396TIP3   OH249602   2.167   0.107  14.074 -0.0058  0.2172 -0.4212
 9396TIP3    H149603   2.158   0.072  14.163  0.3609 -1.9820 -1.1976
 9396TIP3    H249604   2.209   0.037  14.025  2.4222  2.4191 -1.7157
 9397TIP3   OH249605   1.604   6.398   2.888  0.0543 -0.2882 -0.0636
 9397TIP3    H149606   1.644   6.332   2.944 -1.4128 -0.7488  0.5097
 9397TIP3    H249607   1.510   6.379   2.893 -0.1234 -0.6141 -3.0264
 9398TIP3   OH249608   3.162   5.751   0.454 -0.3447 -0.0248 -0.4034
 9398TIP3    H149609   3.076   5.772   0.418 -0.3903  0.2452 -0.1503
 9398TIP3    H249610   3.166   5.802   0.535  1.1072  2.1245 -1.7233
 9399TIP3   OH249611   2.866   3.080   4.103  0.5831  0.1539  0.2312
 9399TIP3    H149612   2.801   3.019   4.068 -0.5961  1.0371  0.8117
 9399TIP3    H249613   2.947   3.060   4.055 -0.2689 -0.5578 -0.9422
 9400TIP3   OH249614   1.917   1.807   3.707 -0.2350  0.5219  0.0437
 9400TIP3    H149615   1.871   1.729   3.677  0.8456 -0.2612  0.3526
 9400TIP3    H249616   1.856   1.851   3.765 -1.1879  0.3857 -0.8247
 9401TIP3   OH249617   6.429   3.211   0.554  0.1221  0.0878  0.3390
 9401TIP3    H149618   6.349   3.160   0.567  0.8739 -0.9395  1.1066
 9401TIP3    H249619   6.402   3.283   0.497 -1.4300 -0.0111  0.8934
 9402TIP3   OH249620   4.923   2.723  11.694 -0.0877 -0.4569  0.2448
 9402TIP3    H149621   4.873   2.651  11.734  1.4840 -1.5628  0.2849
 9402TIP3    H249622   4.914   2.795  11.756 -3.9921  0.4229 -1.0612
 9403TIP3   OH249623   3.982   6.631  13.304 -0.0870  0.2741 -0.1250
 9403TIP3    H149624   4.029   6.616  13.386 -0.0759  1.2783  0.0693
 9403TIP3    H249625   3.915   6.695  13.326 -1.2887 -0.8023 -0.5003
 9404TIP3   OH249626   4.176   4.408   2.980  0.1565 -0.2442 -0.0614
 9404TIP3    H149627   4.229   4.420   2.901  2.1520  0.3653  1.3116
 9404TIP3    H249628   4.159   4.314   2.983  2.1251 -0.6395  0.0122
 9405TIP3   OH249629   2.653   2.422   4.674 -0.0822 -0.5574  0.6333
 9405TIP3    H149630   2.581   2.444   4.732  0.0739 -1.1690  1.0726
 9405TIP3    H249631   2.725   2.398   4.733  0.6896  0.6590  0.2188
 9406TIP3   OH249632   5.186   6.201   3.276  0.2347 -0.1982 -0.3589
 9406TIP3    H149633   5.128   6.270   3.243  0.7302  1.1266  1.4226
 9406TIP3    H249634   5.274   6.235   3.262  0.5337 -1.1534 -0.8545
 9407TIP3   OH249635   6.705   5.282  13.313 -0.5184 -0.4052  0.2178
 9407TIP3    H149636   6.800   5.288  13.307 -0.5086 -0.6466  0.0963
 9407TIP3    H249637   6.685   5.298  13.405 -0.6101  2.8591 -0.2554
 9408TIP3   OH249638   5.260   5.377   3.360  0.2222  0.0976 -0.3011
 9408TIP3    H149639   5.260   5.448   3.297  0.4419  0.5655  0.2163
 9408TIP3    H249640   5.341   5.329   3.342  1.6272  1.7272  1.2465
 9409TIP3   OH249641   6.377   6.357  14.971 -0.0529  0.1857 -0.1415
 9409TIP3    H149642   6.394   6.269  15.005  0.4737  0.6415  0.8213
 9409TIP3    H249643   6.294   6.383  15.011 -0.8221 -0.3246 -1.3684
 9410TIP3   OH249644   3.382   4.205  13.078  0.1211 -0.5420  0.0071
 9410TIP3    H149645   3.401   4.284  13.028  1.8476  0.0699  1.5269
 9410TIP3    H249646   3.443   4.207  13.151 -3.0171 -0.7828  2.8571
 9411TIP3   OH249647   0.464   1.037  11.114  0.5715  0.3837 -0.0336
 9411TIP3    H149648   0.528   1.077  11.173  0.8892 -0.0142 -0.1005
 9411TIP3    H249649   0.502   0.951  11.093  0.4266  0.4928 -0.7604
 9412TIP3   OH249650   4.813   4.836   2.655  0.6327  0.6382  0.2002
 9412TIP3    H149651   4.783   4.801   2.739  0.8352 -0.9557 -0.3544
 9412TIP3    H249652   4.781   4.926   2.654 -2.9664 -0.4786  0.2459
 9413TIP3   OH249653   5.048   5.702  15.230  0.3037 -0.7750  0.0580
 9413TIP3    H149654   4.996   5.625  15.207  0.8072 -1.2871  0.6216
 9413TIP3    H249655   5.125   5.696  15.174 -0.4901  0.3163 -1.2327
 9414TIP3   OH249656   0.071   4.055   3.660  0.3626 -0.0785 -0.4997
 9414TIP3    H149657   0.084   4.134   3.712 -0.7034  1.6894 -2.7260
 9414TIP3    H249658   0.008   4.003   3.710  0.2552  1.0026  0.5292
 9415TIP3   OH249659   4.576   0.950   5.640  0.0477 -0.0019  0.4162
 9415TIP3    H149660   4.518   0.935   5.566 -0.5042  0.1309  0.8128
 9415TIP3    H249661   4.629   0.871   5.646 -1.8878 -1.3073  1.6483
 9416TIP3   OH249662   0.249   6.716  15.014  0.4591 -0.2048  0.3176
 9416TIP3    H149663   0.229   6.733  15.106 -0.3932  1.2657 -0.0967
 9416TIP3    H249664   0.301   6.792  14.986  1.2553 -0.9414 -0.2692
 9417TIP3   OH249665   5.874   2.389   1.176  0.1898  0.3821 -0.4332
 9417TIP3    H149666   5.852   2.319   1.237  1.2495 -2.2515 -2.8687
 9417TIP3    H249667   5.821   2.464   1.205 -2.8539 -2.0654  0.9148
 9418TIP3   OH249668   3.553   1.573   2.969  0.1868 -0.0759  0.7784
 9418TIP3    H149669   3.645   1.561   2.942  0.0384 -1.1820  0.7124
 9418TIP3    H249670   3.504   1.576   2.886 -0.1634 -2.5503  0.8307
 9419TIP3   OH249671   3.845   5.038   0.507  0.1724 -0.0364 -0.3470
 9419TIP3    H149672   3.781   5.037   0.436  0.0952 -0.9157 -0.2779
 9419TIP3    H249673   3.853   4.946   0.534  0.0086  0.3036  0.9517
 9420TIP3   OH249674   2.245   1.642   3.628 -0.0794 -0.0496 -0.5352
 9420TIP3    H149675   2.197   1.560   3.617  0.9768 -1.0209  1.4128
 9420TIP3    H249676   2.181   1.703   3.664 -0.5742 -0.4189 -0.7809
 9421TIP3   OH249677   3.997   0.739   5.469 -0.3758 -0.5769  0.2314
 9421TIP3    H149678   3.913   0.728   5.513  0.2128 -0.9497  1.3080
 9421TIP3    H249679   4.005   0.833   5.455 -0.6400 -0.4604  0.8282
 9422TIP3   OH249680   0.408   1.326  15.121  0.4730  0.2655 -0.3724
 9422TIP3    H149681   0.422   1.238  15.155 -0.7883  0.1879 -0.0141
 9422TIP3    H249682   0.483   1.376  15.153 -0.5394  0.1584  2.4197
 9423TIP3   OH249683   5.654   0.473   2.846 -0.3790 -0.4811 -0.1264
 9423TIP3    H149684   5.611   0.547   2.804  1.7538 -0.1298 -1.8528
 9423TIP3    H249685   5.617   0.396   2.802 -0.7033 -0.3035 -0.1673
 9424TIP3   OH249686   4.017   0.568   1.847 -0.1849  0.1811  0.1507
 9424TIP3    H149687   4.061   0.601   1.769 -1.4109 -0.3635 -0.8151
 9424TIP3    H249688   3.986   0.481   1.821  1.0652 -0.8588  1.8961
 9425TIP3   OH249689   1.156   2.214  15.730  0.1102  0.3943 -0.3948
 9425TIP3    H149690   1.118   2.154  15.794 -0.1689 -1.2130 -1.9991
 9425TIP3    H249691   1.088   2.281  15.718  0.1652  0.7273  0.9464
 9426TIP3   OH249692   3.155   3.628  14.239  0.4481 -0.4285  0.2302
 9426TIP3    H149693   3.249   3.643  14.245  0.4999 -0.1530 -1.0477
 9426TIP3    H249694   3.116   3.705  14.280  0.7743 -0.0846 -0.1004
 9427TIP3   OH249695   5.627   6.070   5.088 -0.4879  0.2991  0.2874
 9427TIP3    H149696   5.687   6.016   5.036  0.2575 -0.3353  1.7543
 9427TIP3    H249697   5.546   6.018   5.092 -0.5475  0.3459 -0.2080
 9428TIP3   OH249698   6.295   2.961  12.954  0.2785 -0.0156  0.3716
 9428TIP3    H149699   6.256   3.034  12.906  2.7909  0.9464 -0.3306
 9428TIP3    H249700   6.334   3.001  13.032 -0.0306 -0.9349  1.0221
 9429TIP3   OH249701   0.627   3.585   5.837 -0.3582  0.3600 -0.2247
 9429TIP3    H149702   0.632   3.499   5.880  0.8334  0.1607 -0.7070
 9429TIP3    H249703   0.557   3.631   5.883  0.1428 -0.2441  1.2262
 9430TIP3   OH249704   0.773   4.871  17.155  0.3538 -0.1552 -0.0514
 9430TIP3    H149705   0.693   4.822  17.174 -0.4578  1.3760  0.7244
 9430TIP3    H249706   0.815   4.822  17.084 -1.2093 -1.0695 -0.3996
 9431TIP3   OH249707   0.783   1.562  17.134 -0.0789  0.2362  0.4177
 9431TIP3    H149708   0.744   1.503  17.198 -0.6392  0.6013  0.4230
 9431TIP3    H249709   0.790   1.511  17.054  2.2468 -0.7951  1.1908
 9432TIP3   OH249710   2.237   2.178   1.824  0.1761  0.0175 -0.2170
 9432TIP3    H149711   2.326   2.147   1.805 -0.1255 -0.3807 -1.0318
 9432TIP3    H249712   2.239   2.272   1.803  0.5720  0.1581  0.4075
 9433TIP3   OH249713   4.659   2.161  16.270  0.6399  0.2162  0.1363
 9433TIP3    H149714   4.585   2.101  16.260 -0.0025  0.6619  1.9218
 9433TIP3    H249715   4.720   2.115  16.328  0.2766  1.1535  1.2786
 9434TIP3   OH249716   2.274   3.831   5.806  0.1422  0.5510 -0.3076
 9434TIP3    H149717   2.203   3.887   5.836 -1.3227 -0.5367 -1.5522
 9434TIP3    H249718   2.231   3.765   5.752  1.8384 -1.4814  0.6748
 9435TIP3   OH249719   2.105   3.692   2.139  0.2133 -0.1045 -0.6152
 9435TIP3    H149720   2.023   3.740   2.136  0.3162  0.3024  1.5038
 9435TIP3    H249721   2.118   3.660   2.050 -1.1761  1.5837 -1.4743
 9436TIP3   OH249722   5.052   1.097  14.629  0.5572 -0.5325  0.3992
 9436TIP3    H149723   5.138   1.140  14.633  0.9357 -1.2946  0.5866
 9436TIP3    H249724   5.037   1.065  14.717 -0.9856  1.5610  0.9930
 9437TIP3   OH249725   0.921   3.765  17.258 -0.0899 -0.7466  0.1352
 9437TIP3    H149726   0.871   3.803  17.186 -0.2742  0.9248  1.0720
 9437TIP3    H249727   1.012   3.776  17.233 -0.0375  2.5320  1.3159
 9438TIP3   OH249728   6.365   6.250  13.052  0.1522  0.0608 -0.2167
 9438TIP3    H149729   6.359   6.342  13.026  0.8175  0.0502 -0.4470
 9438TIP3    H249730   6.458   6.236  13.068  0.0581 -0.5756 -0.1917
 9439TIP3   OH249731   2.780   0.498   0.248 -0.4663 -0.2241 -0.2944
 9439TIP3    H149732   2.796   0.415   0.293 -1.2350 -1.0399 -1.4609
 9439TIP3    H249733   2.773   0.474   0.155 -0.8287  1.1295 -0.6422
 9440TIP3   OH249734   0.123   2.390   4.736  0.0669  0.0363  0.4013
 9440TIP3    H149735   0.176   2.384   4.657 -0.7450 -0.8700 -0.0941
 9440TIP3    H249736   0.100   2.299   4.757  2.2221 -0.0514  3.0595
 9441TIP3   OH249737   0.021   0.237   5.289 -0.1321  0.0758 -0.3512
 9441TIP3    H149738  -0.059   0.243   5.237 -1.5896  0.1322  1.7706
 9441TIP3    H249739   0.045   0.328   5.306 -2.6312  0.2887  3.1992
 9442TIP3   OH249740   6.123   3.124   1.126 -0.3512 -0.3596 -0.1588
 9442TIP3    H149741   6.084   3.161   1.205  0.7751  1.5938 -0.4407
 9442TIP3    H249742   6.179   3.053   1.157 -0.4576 -0.0643  0.7121
 9443TIP3   OH249743   1.773   0.950  17.229 -0.0200  0.5275 -0.5555
 9443TIP3    H149744   1.762   0.953  17.134 -0.4415  0.3091 -0.5178
 9443TIP3    H249745   1.693   0.991  17.263  0.3380  1.0310 -0.3027
 9444TIP3   OH249746   3.819   2.333   1.513 -0.2862  0.0412 -0.4683
 9444TIP3    H149747   3.745   2.321   1.573  0.9813 -4.6762  0.5500
 9444TIP3    H249748   3.881   2.387   1.562 -0.8912 -0.4352  0.8736
 9445TIP3   OH249749   1.895   3.667   5.004 -0.3100 -0.2694  0.4007
 9445TIP3    H149750   1.884   3.741   4.944 -0.4005 -0.3085  0.3696
 9445TIP3    H249751   1.987   3.671   5.029  0.2062 -1.3439 -1.1738
 9446TIP3   OH249752   5.183   1.075   3.251 -0.0796 -0.0289  0.1585
 9446TIP3    H149753   5.140   1.068   3.166  0.1079  0.0836  0.0538
 9446TIP3    H249754   5.181   0.986   3.287 -1.6200  0.2111  0.7519
 9447TIP3   OH249755   5.290   2.506  12.180 -0.2422  0.0837  0.2620
 9447TIP3    H149756   5.365   2.462  12.140  0.7251  0.0508  1.9996
 9447TIP3    H249757   5.217   2.489  12.121  0.3332 -2.8851  0.2582
 9448TIP3   OH249758   4.484   2.464   3.413  0.0554 -0.0117  0.3375
 9448TIP3    H149759   4.530   2.492   3.335  0.4453 -1.3948  0.0531
 9448TIP3    H249760   4.412   2.409   3.381 -1.0453  1.0689  0.8469
 9449TIP3   OH249761   2.129   4.487  11.777  0.0247  0.7401  0.1514
 9449TIP3    H149762   2.099   4.419  11.837 -1.3103  0.8983 -0.3136
 9449TIP3    H249763   2.184   4.544  11.831  0.4945 -0.2381  0.7309
 9450TIP3   OH249764   4.523   0.171   5.698 -0.0328 -0.0103  0.7007
 9450TIP3    H149765   4.469   0.092   5.697 -0.6182  0.2856 -2.8655
 9450TIP3    H249766   4.467   0.238   5.737 -1.9334  0.0013 -1.8126
 9451TIP3   OH249767   1.840   5.700   0.922  0.3663  0.1408 -0.3280
 9451TIP3    H149768   1.803   5.612   0.926  0.5819 -0.0360 -1.7236
 9451TIP3    H249769   1.833   5.733   1.012  0.7930 -1.5046  0.3594
 9452TIP3   OH249770   1.929   0.662   4.666  0.3805  0.0416  0.1336
 9452TIP3    H149771   1.884   0.728   4.613 -0.8016 -1.1423 -0.3933
 9452TIP3    H249772   1.887   0.667   4.752  0.3322  0.0320  0.1106
 9453TIP3   OH249773   6.051   5.101  16.960 -0.5338 -0.5348  0.0220
 9453TIP3    H149774   6.010   5.107  17.047 -1.6504  0.0852 -0.5345
 9453TIP3    H249775   6.067   5.191  16.935 -2.1775 -0.5722 -1.3151
 9454TIP3   OH249776   5.960   2.838  11.929  0.2893 -0.3039  0.2969
 9454TIP3    H149777   5.866   2.827  11.939  0.2879 -1.9829 -1.1168
 9454TIP3    H249778   5.992   2.855  12.018 -1.3138  0.1629  0.8167
 9455TIP3   OH249779   4.609   2.401   1.233  0.1580  0.0491 -0.4701
 9455TIP3    H149780   4.530   2.409   1.179 -0.1875 -0.4865 -0.0593
 9455TIP3    H249781   4.612   2.482   1.284 -2.2695 -1.4283  2.3117
 9456TIP3   OH249782   2.311   1.854   2.034  0.2051  0.4778  0.6972
 9456TIP3    H149783   2.278   1.798   2.104  1.3759 -0.9000  0.1970
 9456TIP3    H249784   2.233   1.875   1.982 -0.2949 -0.5637  0.9941
 9457TIP3   OH249785   3.635   0.325  13.487  0.0143 -0.2796  0.7107
 9457TIP3    H149786   3.649   0.408  13.442  1.4211 -0.7451  0.2490
 9457TIP3    H249787   3.541   0.308  13.476 -0.9424  2.5471  3.1676
 9458TIP3   OH249788   3.215   4.076   0.134 -0.0977  0.1815  0.6320
 9458TIP3    H149789   3.280   4.010   0.157 -0.9743 -0.8054  0.4022
 9458TIP3    H249790   3.265   4.154   0.113  0.9969 -0.5342  0.5256
 9459TIP3   OH249791   2.061   0.444   6.541 -0.1036  0.0361 -0.0439
 9459TIP3    H149792   1.973   0.415   6.566  0.2811 -0.2976  0.9940
 9459TIP3    H249793   2.053   0.539   6.532 -0.2163  0.2334  1.7355
 9460TIP3   OH249794   4.374   4.378   4.374 -0.2395  0.5504  0.0417
 9460TIP3    H149795   4.416   4.411   4.294  0.6980 -1.7671 -0.4974
 9460TIP3    H249796   4.313   4.448   4.398  1.9703  2.9184 -0.6406
 9461TIP3   OH249797   4.411   1.971   1.418  0.3713 -0.4284 -0.4862
 9461TIP3    H149798   4.483   1.937   1.365  0.8828  0.3549 -0.3111
 9461TIP3    H249799   4.447   1.978   1.506  0.6102  1.4524 -0.6868
 9462TIP3   OH249800   1.419   3.597   1.106  0.3303  0.4914  0.3395
 9462TIP3    H149801   1.342   3.647   1.131 -0.0681 -0.0032  0.1313
 9462TIP3    H249802   1.459   3.569   1.188 -0.6405 -0.6342  0.4619
 9463TIP3   OH249803   3.047   2.727   3.966  0.0129 -0.5980 -0.5218
 9463TIP3    H149804   3.115   2.660   3.958  0.1256 -0.3834 -1.5509
 9463TIP3    H249805   3.096   2.810   3.965 -0.3000 -0.3990 -2.3192
 9464TIP3   OH249806   1.479   0.210   3.480 -0.2087 -0.3391 -0.3723
 9464TIP3    H149807   1.459   0.304   3.481  1.3537  0.0193  0.5582
 9464TIP3    H249808   1.527   0.196   3.398 -1.4207 -0.5739 -1.0628
 9465TIP3   OH249809   1.081   4.955   1.625  0.4710  0.2344  0.2548
 9465TIP3    H149810   1.095   4.960   1.530 -0.2600 -1.3761  0.0392
 9465TIP3    H249811   1.162   4.917   1.658  0.3737 -0.0684  0.1532
 9466TIP3   OH249812   0.034   6.516   3.552 -0.1938 -0.4091  0.8516
 9466TIP3    H149813  -0.059   6.538   3.544 -0.3170 -1.5108 -2.0808
 9466TIP3    H249814   0.079   6.583   3.501  0.5107 -0.5637  1.2587
 9467TIP3   OH249815   0.920   5.644  11.506 -0.0359  0.2264  0.3240
 9467TIP3    H149816   0.907   5.705  11.578  1.7500  2.1642 -0.8867
 9467TIP3    H249817   0.992   5.681  11.455 -2.8597  0.5187 -4.0175
 9468TIP3   OH249818   1.714   0.200   2.765  0.0334 -0.0776 -0.0863
 9468TIP3    H149819   1.670   0.120   2.791  0.1389 -0.2644 -0.4862
 9468TIP3    H249820   1.772   0.220   2.839 -0.2878 -0.1467  0.1868
 9469TIP3   OH249821   4.152   4.692  15.589  0.0429  0.3110  0.3284
 9469TIP3    H149822   4.060   4.683  15.563 -0.0078  1.0575  0.2432
 9469TIP3    H249823   4.155   4.773  15.641  0.5242 -0.0754  0.9238
 9470TIP3   OH249824   6.283   3.071   2.395  0.2776  0.5683  0.3569
 9470TIP3    H149825   6.317   3.152   2.432  0.1612  0.7388  0.0981
 9470TIP3    H249826   6.282   3.087   2.300  0.6149  0.1231  0.2784
 9471TIP3   OH249827   1.386   0.640   0.334  0.6947  1.0778 -0.5916
 9471TIP3    H149828   1.446   0.572   0.365  0.4555  1.0672 -0.1330
 9471TIP3    H249829   1.408   0.717   0.386  1.1122  1.4236 -1.2625
 9472TIP3   OH249830   4.535   5.982   3.236 -0.5704 -0.3006 -0.3611
 9472TIP3    H149831   4.487   5.983   3.318 -1.3230 -0.7754 -0.7857
 9472TIP3    H249832   4.625   5.964   3.261 -0.6269  0.4489  0.4336
 9473TIP3   OH249833   5.183   2.120   5.719  0.0501 -0.2490  0.4722
 9473TIP3    H149834   5.250   2.069   5.764  0.7295  2.2463  2.5526
 9473TIP3    H249835   5.116   2.136   5.787 -0.9691  0.1708 -0.6007
 9474TIP3   OH249836   0.244   6.394   2.890 -0.6065  0.3767  0.2455
 9474TIP3    H149837   0.223   6.304   2.916  0.3516  0.2990  0.7752
 9474TIP3    H249838   0.339   6.400   2.899 -0.6932  1.5199  0.4601
 9475TIP3   OH249839   2.153   1.268   3.357 -0.2173  0.0327  0.7417
 9475TIP3    H149840   2.171   1.250   3.449 -1.6496  0.3821  1.1158
 9475TIP3    H249841   2.147   1.363   3.351  0.6532  0.0645  0.1077
 9476TIP3   OH249842   4.182   4.227   0.424 -0.0941 -0.0483  0.4347
 9476TIP3    H149843   4.112   4.283   0.389 -1.0167 -1.0054  0.6992
 9476TIP3    H249844   4.245   4.289   0.462 -0.4394  0.8670 -0.4387
 9477TIP3   OH249845   1.767   5.041   1.443 -0.0069 -0.1454 -0.3435
 9477TIP3    H149846   1.718   5.118   1.415 -0.7694 -0.1405  0.9063
 9477TIP3    H249847   1.810   5.068   1.524 -2.2026 -1.6545  1.4676
 9478TIP3   OH249848   5.957   0.416  15.924  0.0783  0.1537  0.0990
 9478TIP3    H149849   5.984   0.488  15.866 -2.9521  0.6907 -0.8441
 9478TIP3    H249850   6.038   0.389  15.968  2.4072  0.3650 -3.6047
 9479TIP3   OH249851   4.575   0.391   1.015 -0.1176 -0.1550  0.1794
 9479TIP3    H149852   4.538   0.316   0.968 -0.7301  1.6118 -2.3784
 9479TIP3    H249853   4.500   0.436   1.053  0.0573  0.0509  0.2877
 9480TIP3   OH249854   1.060   2.961  14.505  0.3893  0.0710 -0.4163
 9480TIP3    H149855   1.045   3.043  14.458 -1.1563  0.6583  1.0011
 9480TIP3    H249856   0.979   2.912  14.492  0.9991 -0.9145 -0.5809
 9481TIP3   OH249857   5.709   4.040  16.947  0.6335 -0.6231 -0.3182
 9481TIP3    H149858   5.713   4.055  17.042  3.1931  0.7393 -0.5390
 9481TIP3    H249859   5.757   3.958  16.934 -1.8218 -2.1521 -0.3003
 9482TIP3   OH249860   0.422   4.891  10.690 -0.1336 -0.2604  0.5360
 9482TIP3    H149861   0.375   4.973  10.707  0.7712  0.1391  1.1697
 9482TIP3    H249862   0.477   4.909  10.614  1.0365  0.1568  1.4450
 9483TIP3   OH249863   1.210   0.453  14.113 -0.4037 -0.5483  0.1818
 9483TIP3    H149864   1.224   0.429  14.204 -0.4809  0.7833  0.5669
 9483TIP3    H249865   1.290   0.425  14.068  0.7885  1.0926  1.1575
 9484TIP3   OH249866   2.387   6.533  14.489 -0.4106 -0.3136 -0.3458
 9484TIP3    H149867   2.451   6.589  14.534 -0.6700 -1.2540  1.2916
 9484TIP3    H249868   2.366   6.581  14.409  1.4851  0.5653 -0.3908
 9485TIP3   OH249869   2.718   3.141   6.418  0.0198 -0.0146  0.1692
 9485TIP3    H149870   2.730   3.057   6.463 -0.0340  0.0245  0.2572
 9485TIP3    H249871   2.650   3.186   6.469  1.0386  0.6694  0.9726
 9486TIP3   OH249872   3.843   3.284  11.937 -0.4349 -0.2106 -0.2852
 9486TIP3    H149873   3.768   3.253  11.987 -1.0994  2.0694  0.2716
 9486TIP3    H249874   3.906   3.314  12.003 -0.3405  0.6933 -0.7638
 9487TIP3   OH249875   1.176   3.185   3.428 -0.1570  0.4343 -0.0124
 9487TIP3    H149876   1.156   3.139   3.510 -1.5009  0.7367 -0.1359
 9487TIP3    H249877   1.193   3.115   3.365  2.3429  0.2090  0.8181
 9488TIP3   OH249878   1.002   4.962  12.468 -0.4825  0.4697  0.1115
 9488TIP3    H149879   0.906   4.957  12.465 -0.4696 -1.5364  1.2002
 9488TIP3    H249880   1.031   4.912  12.391 -0.3570 -1.6885  1.4823
 9489TIP3   OH249881   4.402   6.319  16.253  0.3824 -0.0822 -0.6743
 9489TIP3    H149882   4.377   6.360  16.170 -0.2148 -1.0290 -0.9696
 9489TIP3    H249883   4.328   6.264  16.276  0.5303  0.2014  0.5180
 9490TIP3   OH249884   0.276   1.641   1.317  0.4062  0.1311  0.3410
 9490TIP3    H149885   0.346   1.686   1.363  1.3887  1.4072 -2.1727
 9490TIP3    H249886   0.198   1.696   1.330  0.7168  0.5709  0.3479
 9491TIP3   OH249887   6.431   6.328  12.324 -0.1399  0.6434  0.3975
 9491TIP3    H149888   6.414   6.244  12.281 -0.5346  1.4536 -1.0629
 9491TIP3    H249889   6.515   6.315  12.368  0.2541 -0.2230 -0.5692
 9492TIP3   OH249890   3.664   2.355  16.921  0.0798 -0.4459 -0.6465
 9492TIP3    H149891   3.683   2.354  17.015 -0.2875 -1.3167 -0.5671
 9492TIP3    H249892   3.653   2.447  16.899  1.2126 -0.1490 -0.0500
 9493TIP3   OH249893   5.763   2.030   3.638  0.1802 -0.2074 -0.9001
 9493TIP3    H149894   5.673   2.021   3.666  0.4755 -0.2688  0.0465
 9493TIP3    H249895   5.786   1.944   3.601  0.5336 -0.9307  0.9062
 9494TIP3   OH249896   5.682   4.903  15.851 -0.4550  0.0970  0.2356
 9494TIP3    H149897   5.734   4.832  15.889 -0.7630  0.1049  0.6797
 9494TIP3    H249898   5.726   4.983  15.880  0.5330  0.0987 -1.1630
 9495TIP3   OH249899   1.064   2.481   1.427 -1.1589 -0.5168 -0.4453
 9495TIP3    H149900   1.138   2.509   1.481 -1.0965 -0.0118 -0.7818
 9495TIP3    H249901   1.102   2.416   1.368 -1.1538 -0.8212 -0.1105
 9496TIP3   OH249902   5.973   6.289  13.767 -0.2007  0.0014 -0.5717
 9496TIP3    H149903   5.947   6.250  13.850  1.6048  1.4847  0.7771
 9496TIP3    H249904   5.933   6.376  13.768 -0.3485 -0.0502 -1.3668
 9497TIP3   OH249905   3.996   4.617   1.029 -0.4011  0.1518 -0.6694
 9497TIP3    H149906   3.925   4.558   1.004 -0.7996 -0.1253  0.9929
 9497TIP3    H249907   4.065   4.558   1.061 -0.0004  0.4951 -0.8979
 9498TIP3   OH249908   1.027   2.434   3.437 -0.1509  0.1528  0.0055
 9498TIP3    H149909   1.085   2.505   3.408 -0.1220  0.9383  1.8471
 9498TIP3    H249910   1.044   2.427   3.531 -1.4234 -1.1366  0.1569
 9499TIP3   OH249911   4.558   5.104   6.406 -0.3175 -0.0618  0.2242
 9499TIP3    H149912   4.531   5.112   6.314 -0.1424  1.6541  0.2815
 9499TIP3    H249913   4.481   5.130   6.456 -0.2779 -0.5772  0.5558
 9500TIP3   OH249914   2.325   1.789  10.562 -0.1123 -0.0395 -0.3529
 9500TIP3    H149915   2.232   1.810  10.557 -0.5168 -1.3006  1.0672
 9500TIP3    H249916   2.364   1.862  10.610 -0.4137  0.3380 -0.6753
 9501TIP3   OH249917   4.445   6.311  13.752 -0.3850 -0.2601  0.0624
 9501TIP3    H149918   4.370   6.339  13.700 -0.1832 -1.0918 -0.6930
 9501TIP3    H249919   4.488   6.393  13.778 -0.0598  0.1818 -1.7276
 9502TIP3   OH249920   3.609   4.595   5.879  0.3433  0.0858 -0.3897
 9502TIP3    H149921   3.698   4.590   5.914 -0.0142 -1.3289  0.3771
 9502TIP3    H249922   3.554   4.560   5.948 -0.7163  0.0809 -1.2100
 9503TIP3   OH249923   2.992   2.421   1.859  0.0781  0.6759  1.1784
 9503TIP3    H149924   2.931   2.435   1.932  0.7240 -0.7047  2.0217
 9503TIP3    H249925   3.031   2.336   1.877  0.6214  0.5308 -0.5433
 9504TIP3   OH249926   5.081   2.905  16.416  0.0714 -1.0177  0.5569
 9504TIP3    H149927   4.993   2.940  16.429  0.7881  1.5373 -0.7719
 9504TIP3    H249928   5.128   2.929  16.496  0.9487  2.7143 -0.8864
 9505TIP3   OH249929   5.911   5.989   3.342  0.2316 -0.4375 -0.6138
 9505TIP3    H149930   5.943   5.932   3.412  0.8895  0.4010 -0.2167
 9505TIP3    H249931   5.841   5.939   3.300  0.6716 -1.4620 -0.1577
 9506TIP3   OH249932   1.320   3.220   6.147 -0.1659 -0.1663 -0.0350
 9506TIP3    H149933   1.350   3.263   6.067 -0.7002  0.3113  0.0040
 9506TIP3    H249934   1.384   3.245   6.214  0.5090 -0.9055 -0.3919
 9507TIP3   OH249935   3.343   3.759  15.403 -0.1697 -0.2244 -0.1353
 9507TIP3    H149936   3.299   3.675  15.416  0.9350 -0.6595  1.0077
 9507TIP3    H249937   3.273   3.819  15.376 -1.0444 -1.4027 -0.5601
 9508TIP3   OH249938   3.263   0.165  16.909  0.0124 -0.0609 -0.6966
 9508TIP3    H149939   3.358   0.177  16.914 -0.1594  1.0222  1.4532
 9508TIP3    H249940   3.239   0.130  16.995 -1.7516  1.9185 -0.2823
 9509TIP3   OH249941   0.047   4.729  12.579  0.4012 -0.1872  0.0148
 9509TIP3    H149942   0.019   4.640  12.557 -1.0805 -0.0465  1.2203
 9509TIP3    H249943  -0.012   4.786  12.530  1.1227  0.1501 -0.4788
 9510TIP3   OH249944   4.818   3.872  15.332 -0.2894  0.2297  0.5090
 9510TIP3    H149945   4.851   3.817  15.261 -0.6356 -0.7299  1.0682
 9510TIP3    H249946   4.799   3.956  15.291 -1.3038 -0.5707 -0.7268
 9511TIP3   OH249947   2.473   1.612  10.717 -0.3017  0.2210  0.1097
 9511TIP3    H149948   2.445   1.679  10.655 -1.4126  1.0035  1.3695
 9511TIP3    H249949   2.414   1.538  10.701  1.2419 -0.7212 -1.6155
 9512TIP3   OH249950   0.700   6.570   1.507 -0.2296 -0.4347  0.1760
 9512TIP3    H149951   0.780   6.623   1.510 -0.3365 -0.1834 -0.9997
 9512TIP3    H249952   0.647   6.602   1.581  1.4073 -1.7256  2.0027
 9513TIP3   OH249953   1.359   2.859  13.503 -0.2812  0.0486 -0.1551
 9513TIP3    H149954   1.423   2.803  13.545 -1.5053 -1.4999 -0.2772
 9513TIP3    H249955   1.305   2.800  13.451 -2.6316  1.0700  0.9667
 9514TIP3   OH249956   1.967   1.852   2.146 -0.2557  0.5597 -0.2166
 9514TIP3    H149957   1.949   1.766   2.184  2.9272 -0.2950 -0.3377
 9514TIP3    H249958   1.996   1.906   2.220  1.5887  0.2473 -0.6476
 9515TIP3   OH249959   4.072   6.641  15.011  0.6266  0.7001 -0.4400
 9515TIP3    H149960   4.045   6.565  14.959 -0.9432  1.7500 -1.2372
 9515TIP3    H249961   4.158   6.664  14.977  1.7627 -1.4896  0.7333
 9516TIP3   OH249962   6.341   2.473   3.200 -0.1452 -0.7588  0.7904
 9516TIP3    H149963   6.307   2.543   3.256  0.9486 -1.6423  2.6690
 9516TIP3    H249964   6.434   2.491   3.192  0.0833 -1.7714  0.9974
 9517TIP3   OH249965   5.097   1.903   1.243 -0.2910  0.6290  0.4662
 9517TIP3    H149966   5.090   1.809   1.226  1.4014  0.8563 -1.9751
 9517TIP3    H249967   5.042   1.944   1.176 -0.1259  1.4110  0.7934
 9518TIP3   OH249968   5.011   5.541  16.555  0.5175  0.3117  0.1849
 9518TIP3    H149969   5.100   5.511  16.574  0.8755  1.2894  0.0957
 9518TIP3    H249970   5.015   5.636  16.568 -0.3171  0.4545 -0.5730
 9519TIP3   OH249971   4.127   3.631  16.985 -0.1204 -0.0227  0.0781
 9519TIP3    H149972   4.035   3.645  17.008 -0.3517 -0.4461 -0.5626
 9519TIP3    H249973   4.128   3.629  16.890  0.3272 -1.4326  0.0847
 9520TIP3   OH249974   1.592   4.250  13.869  0.4234 -0.0590 -0.0001
 9520TIP3    H149975   1.564   4.226  13.957  1.3631  0.0670  0.3539
 9520TIP3    H249976   1.679   4.289  13.882  0.2288  0.7140 -0.8921
 9521TIP3   OH249977   2.231   4.615  13.101 -0.4404 -0.0068 -0.0023
 9521TIP3    H149978   2.312   4.577  13.068  0.2299  0.9578  0.4696
 9521TIP3    H249979   2.220   4.695  13.050  0.6157  1.5142  2.0117
 9522TIP3   OH249980   2.743   6.190  16.698  0.0418  0.5426  0.3878
 9522TIP3    H149981   2.712   6.234  16.777  0.2850 -0.5725  1.1293
 9522TIP3    H249982   2.693   6.229  16.627  0.3219  2.0651  1.0015
 9523TIP3   OH249983   2.707   5.808   1.138  0.1705  0.5153 -0.4458
 9523TIP3    H149984   2.650   5.738   1.107 -2.3414  1.8058  0.9421
 9523TIP3    H249985   2.790   5.765   1.157 -0.6368 -1.6710 -1.5400
 9524TIP3   OH249986   5.725   2.301  13.261  0.1452 -0.3822 -0.3280
 9524TIP3    H149987   5.780   2.378  13.276 -0.8190  0.1392  0.6744
 9524TIP3    H249988   5.735   2.249  13.341 -1.7877  0.3533  0.4392
 9525TIP3   OH249989   4.188   1.924  17.242 -0.1871  0.0626  0.5599
 9525TIP3    H149990   4.101   1.909  17.281 -0.0675 -2.4861  0.0174
 9525TIP3    H249991   4.233   1.841  17.253  1.0458  0.3083 -2.0333
 9526TIP3   OH249992   3.148   4.246  13.243  0.5150  0.0259 -0.2082
 9526TIP3    H149993   3.214   4.248  13.173  0.7519  0.8169  0.0259
 9526TIP3    H249994   3.118   4.155  13.246  0.1501  0.0695 -1.6734
 9527TIP3   OH249995   5.859   6.595  13.537  0.2851 -0.0639  0.5734
 9527TIP3    H149996   5.919   6.565  13.604 -1.6449 -2.2932  1.4305
 9527TIP3    H249997   5.814   6.516  13.507 -2.1577  1.4506 -0.0597
 9528TIP3   OH249998   3.658   5.416   6.083 -0.3140  0.1763  0.3813
 9528TIP3    H149999   3.585   5.471   6.053 -0.3428  1.2809  2.3305
 9528TIP3    H250000   3.616   5.347   6.134  0.0073  1.6419  2.7550
 9529TIP3   OH250001   3.906   6.367   3.229 -0.2145  0.3100  0.4385
 9529TIP3    H150002   3.997   6.340   3.220 -0.6314 -1.0100 -0.0104
 9529TIP3    H250003   3.856   6.286   3.223 -1.5943  1.2438 -1.7845
 9530TIP3   OH250004   5.917   3.382   3.818  0.1533 -0.7193 -0.4130
 9530TIP3    H150005   5.929   3.353   3.727 -0.1484  0.6009 -0.8861
 9530TIP3    H250006   5.877   3.468   3.811  2.3645  0.5166  0.8962
 9531TIP3   OH250007   0.255   3.633   0.698 -0.4684 -0.2996 -0.0461
 9531TIP3    H150008   0.208   3.635   0.614 -0.4305 -0.0353 -0.0634
 9531TIP3    H250009   0.305   3.715   0.698 -0.0818 -0.5341  0.0138
 9532TIP3   OH250010   5.742   1.297  14.609 -0.6696  0.2004 -0.2012
 9532TIP3    H150011   5.693   1.292  14.691  0.6618  1.5725  0.7287
 9532TIP3    H250012   5.756   1.206  14.584  0.7118 -0.3574  2.2508
 9533TIP3   OH250013   6.062   6.469   0.737  0.1017  0.4249  0.6833
 9533TIP3    H150014   5.978   6.452   0.694  0.7176 -0.9474 -0.0235
 9533TIP3    H250015   6.084   6.558   0.711 -1.4058  1.0369  1.3675
 9534TIP3   OH250016   6.166   1.496  14.674  0.3465 -0.5534  0.3649
 9534TIP3    H150017   6.077   1.532  14.677  0.4655 -0.2152 -0.0635
 9534TIP3    H250018   6.223   1.574  14.671  0.6743 -0.7596  1.0480
 9535TIP3   OH250019   5.674   1.916   0.225  0.2271  0.2304  0.0029
 9535TIP3    H150020   5.686   2.000   0.267  0.2184 -0.0545  0.5836
 9535TIP3    H250021   5.760   1.874   0.229  0.0329 -0.1327  0.4868
 9536TIP3   OH250022   2.800   1.464  13.954 -0.4590  0.0799  0.4345
 9536TIP3    H150023   2.822   1.544  13.906  2.9910 -2.0090 -1.9739
 9536TIP3    H250024   2.770   1.402  13.887  1.8551 -2.1101  1.2342
 9537TIP3   OH250025   4.832   2.805  12.879 -0.1724  0.0806  0.4653
 9537TIP3    H150026   4.891   2.745  12.925 -1.4200 -0.5352  1.3266
 9537TIP3    H250027   4.780   2.845  12.948 -1.3875 -0.1001 -0.3178
 9538TIP3   OH250028   5.199   2.243   2.879  0.1423 -0.0021  0.3258
 9538TIP3    H150029   5.221   2.205   2.965 -0.1491  1.4726  1.0892
 9538TIP3    H250030   5.283   2.249   2.833  0.3791 -0.3573  0.7035
 9539TIP3   OH250031   3.712   0.985   0.624 -0.2755  0.2092 -0.2087
 9539TIP3    H150032   3.706   0.988   0.719  1.9127  0.3277 -0.0342
 9539TIP3    H250033   3.656   1.058   0.594  0.2747  1.1880  1.0670
 9540TIP3   OH250034   0.459   2.922  14.461  0.3868  0.4801 -0.1256
 9540TIP3    H150035   0.398   2.881  14.523 -1.5384  0.6434 -1.7855
 9540TIP3    H250036   0.451   3.016  14.478  0.8777  0.4601  0.2418
 9541TIP3   OH250037   4.747   0.858   2.556 -0.3270 -0.7361 -0.3891
 9541TIP3    H150038   4.703   0.783   2.515  1.4700 -1.8011 -0.4948
 9541TIP3    H250039   4.818   0.880   2.496  0.6412 -0.5165  0.7951
 9542TIP3   OH250040   5.140   2.631   5.920 -0.1629  0.2701 -0.1987
 9542TIP3    H150041   5.226   2.634   5.964 -0.7605 -0.8481  1.1412
 9542TIP3    H250042   5.144   2.551   5.867 -1.2875 -1.4088  2.0508
 9543TIP3   OH250043   0.477   3.017   3.327 -0.0279 -0.6605 -0.4796
 9543TIP3    H150044   0.498   2.923   3.330  1.2486 -0.4327 -1.1960
 9543TIP3    H250045   0.396   3.022   3.277 -0.4112 -1.4191  0.0431
 9544TIP3   OH250046   2.956   5.826   0.844  0.0355 -0.1481  0.0329
 9544TIP3    H150047   3.051   5.813   0.845 -0.1916 -2.2074  0.7345
 9544TIP3    H250048   2.939   5.874   0.763  1.3862 -2.8518 -2.0271
 9545TIP3   OH250049   4.186   4.960  16.411  0.1068 -0.0105 -0.0043
 9545TIP3    H150050   4.218   5.046  16.382  1.8371 -0.7239 -0.3858
 9545TIP3    H250051   4.224   4.949  16.498  1.8784 -1.2913 -0.8589
 9546TIP3   OH250052   6.716   6.014   0.820 -0.6129 -0.2294 -0.4027
 9546TIP3    H150053   6.717   5.924   0.788  0.6643  0.1060 -1.3756
 9546TIP3    H250054   6.793   6.021   0.876 -1.3264 -0.0319  0.5831
 9547TIP3   OH250055   2.742   1.665  12.146 -0.1340 -0.2770  0.3095
 9547TIP3    H150056   2.794   1.736  12.184  0.9759 -1.5466  1.2816
 9547TIP3    H250057   2.789   1.641  12.066  0.2534 -0.7800  0.6801
 9548TIP3   OH250058   1.690   4.372  14.391 -0.1611 -0.0395 -0.4048
 9548TIP3    H150059   1.722   4.392  14.479 -1.0497 -0.2417 -0.0256
 9548TIP3    H250060   1.742   4.296  14.364  1.7600  1.4290 -1.0154
 9549TIP3   OH250061   6.368   5.702   0.302  0.3987 -0.2640 -0.5559
 9549TIP3    H150062   6.306   5.641   0.263  0.3975 -0.4559 -0.2518
 9549TIP3    H250063   6.316   5.781   0.318  0.2017 -0.4650 -0.1913
 9550TIP3   OH250064   1.130   3.783   0.173 -0.0835  0.3385 -0.1549
 9550TIP3    H150065   1.190   3.709   0.167 -0.9253 -0.3152 -0.9498
 9550TIP3    H250066   1.049   3.751   0.132 -0.8881  1.2691  0.6426
 9551TIP3   OH250067   1.933   0.081   3.756 -0.3095 -0.0914 -0.6031
 9551TIP3    H150068   1.913  -0.004   3.796 -0.9173 -0.0819 -0.8785
 9551TIP3    H250069   1.943   0.140   3.831 -0.6410 -0.2458 -0.4316
 9552TIP3   OH250070   1.001   0.406   1.313 -0.9816  0.0585 -0.0920
 9552TIP3    H150071   0.978   0.494   1.283 -0.5812  0.4672  0.7747
 9552TIP3    H250072   0.977   0.349   1.239  0.3788  1.0598 -1.3582
 9553TIP3   OH250073   4.833   3.382  14.370 -0.6079 -0.6977 -0.2644
 9553TIP3    H150074   4.866   3.321  14.437 -1.5772  0.2524  1.1252
 9553TIP3    H250075   4.768   3.435  14.415  1.0161  2.2276 -1.0772
 9554TIP3   OH250076   2.250   5.091   5.891  0.1737  0.1730 -0.3589
 9554TIP3    H150077   2.242   5.079   5.986  0.8965  0.2734 -0.2845
 9554TIP3    H250078   2.159   5.094   5.860 -0.0724 -0.7170  0.2215
 9555TIP3   OH250079   6.414   6.606  14.257  0.7217 -0.0454  0.2744
 9555TIP3    H150080   6.365   6.671  14.205  2.7238 -0.6473 -2.6134
 9555TIP3    H250081   6.350   6.538  14.275 -0.3244  0.6623 -0.5916
 9556TIP3   OH250082   0.839   1.181  12.148 -0.1899 -0.0422 -0.3091
 9556TIP3    H150083   0.803   1.195  12.235 -1.0188 -1.3515 -0.4169
 9556TIP3    H250084   0.859   1.269  12.115 -0.4397  0.4952  0.9484
 9557TIP3   OH250085   1.280   1.331   1.063  0.2695 -0.3555 -0.0151
 9557TIP3    H150086   1.236   1.412   1.089  0.3389 -0.5769  0.8264
 9557TIP3    H250087   1.370   1.341   1.093  1.0488  0.4175 -2.4147
 9558TIP3   OH250088   2.098   0.271  12.728 -0.3019  0.2564 -0.3726
 9558TIP3    H150089   2.133   0.182  12.726 -0.3142  0.2572 -2.0157
 9558TIP3    H250090   2.058   0.279  12.815 -0.9066 -1.5601 -0.4396
 9559TIP3   OH250091   5.474   1.982  13.750  0.2578  0.2014 -1.1015
 9559TIP3    H150092   5.493   2.075  13.738  1.4666  0.1543  0.2335
 9559TIP3    H250093   5.533   1.937  13.689  2.4266  0.1966  0.8657
 9560TIP3   OH250094   6.551   0.887   6.230 -0.3432 -0.7736  0.7967
 9560TIP3    H150095   6.645   0.879   6.211 -0.4937 -1.5805  0.3673
 9560TIP3    H250096   6.525   0.801   6.260 -1.3192 -1.0829 -0.7978
 9561TIP3   OH250097   3.647   3.323   2.889 -0.4709 -0.3856 -0.0359
 9561TIP3    H150098   3.576   3.263   2.910 -0.7887 -0.3085 -0.8756
 9561TIP3    H250099   3.725   3.268   2.883 -0.2132 -0.3318  1.9984
 9562TIP3   OH250100   5.450   1.724   2.821 -0.1843  0.2592  0.0978
 9562TIP3    H150101   5.462   1.630   2.804 -1.0573  0.0841  0.3636
 9562TIP3    H250102   5.502   1.740   2.899 -2.0072 -0.6128  1.5923
 9563TIP3   OH250103   6.284   2.994  12.471  0.3020 -0.2553 -0.0192
 9563TIP3    H150104   6.244   3.050  12.404 -1.8650  0.1364  1.5078
 9563TIP3    H250105   6.372   3.030  12.482  0.1355  0.6957 -1.4859
 9564TIP3   OH250106   1.523   1.551  16.968  0.1678 -0.1478 -0.2223
 9564TIP3    H150107   1.594   1.490  16.949 -1.3049 -2.0284 -0.0097
 9564TIP3    H250108   1.487   1.573  16.882 -0.4966 -1.1137 -0.2023
 9565TIP3   OH250109   5.369   0.756  16.652 -0.2861 -0.4385  0.0194
 9565TIP3    H150110   5.362   0.817  16.579  0.8222  0.5599  0.6968
 9565TIP3    H250111   5.293   0.775  16.707  1.4813  2.5267  1.7370
 9566TIP3   OH250112   1.632   6.000   4.509 -1.0620  0.5122 -0.5804
 9566TIP3    H150113   1.672   5.929   4.458 -1.5682 -0.3345  0.1794
 9566TIP3    H250114   1.636   6.076   4.451  3.9507  1.2398  0.2633
 9567TIP3   OH250115   2.587   2.093   5.143 -0.1697  0.2646 -0.3448
 9567TIP3    H150116   2.573   2.072   5.051  2.6165 -0.8640 -0.6144
 9567TIP3    H250117   2.629   2.015   5.180  0.4738  1.3687  1.4053
 9568TIP3   OH250118   5.177   1.230  11.681  0.0079  0.8534 -0.3389
 9568TIP3    H150119   5.206   1.225  11.772  0.8027  1.8032 -0.5276
 9568TIP3    H250120   5.112   1.161  11.673  0.3213  0.4042  0.8070
 9569TIP3   OH250121   1.059   1.744   2.087 -0.4681 -0.5560  0.0073
 9569TIP3    H150122   1.028   1.834   2.093 -0.1030 -0.4563  0.4491
 9569TIP3    H250123   1.047   1.708   2.175  0.6375 -0.5200  0.1888
 9570TIP3   OH250124   5.002   3.032  13.574 -0.1167 -0.4417  0.4568
 9570TIP3    H150125   4.969   3.121  13.585  2.1111  0.4875  0.0683
 9570TIP3    H250126   4.924   2.980  13.555 -1.1537  2.0316 -2.9845
 9571TIP3   OH250127   5.937   0.687  17.191 -0.1828  0.4092  0.8143
 9571TIP3    H150128   5.844   0.664  17.191 -0.1876  0.2069 -1.3923
 9571TIP3    H250129   5.957   0.705  17.099  1.8814  0.8164  1.3001
 9572TIP3   OH250130   0.859   5.192  11.455 -0.2630 -0.5436 -0.0894
 9572TIP3    H150131   0.866   5.264  11.518 -2.1847 -2.3038  2.3505
 9572TIP3    H250132   0.944   5.188  11.413  0.0831  2.7594  0.0730
 9573TIP3   OH250133   6.374   3.401   0.298 -0.2951  0.1710 -0.1532
 9573TIP3    H150134   6.392   3.484   0.254 -0.5303 -0.7241 -2.0323
 9573TIP3    H250135   6.460   3.368   0.325 -0.1562  0.7634  0.1333
 9574TIP3   OH250136   0.683   0.143   3.776 -0.4071 -0.5106  0.5543
 9574TIP3    H150137   0.731   0.071   3.735  1.6372 -0.4692  2.6609
 9574TIP3    H250138   0.703   0.219   3.722  0.3647 -0.8759  0.3031
 9575TIP3   OH250139   0.733   3.036  14.217 -0.1457 -0.2350 -0.2749
 9575TIP3    H150140   0.750   3.050  14.310 -0.8291  1.0324 -0.3102
 9575TIP3    H250141   0.819   3.046  14.175  0.1955 -1.0029  0.2253
 9576TIP3   OH250142   0.200   5.054   1.661  0.7475  0.1646 -0.4634
 9576TIP3    H150143   0.206   4.966   1.700  2.3406  1.5111  2.7170
 9576TIP3    H250144   0.289   5.074   1.633  0.3042  0.6192 -1.5768
 9577TIP3   OH250145   6.116   3.386  14.151 -0.0840  0.0890 -0.0679
 9577TIP3    H150146   6.133   3.357  14.062 -2.6077  0.5411 -0.7643
 9577TIP3    H250147   6.192   3.355  14.201  0.6415 -1.5499 -2.0550
 9578TIP3   OH250148   4.603   4.313  15.188 -0.2830 -0.1349  0.2305
 9578TIP3    H150149   4.563   4.327  15.274 -1.8685 -0.2459 -0.4541
 9578TIP3    H250150   4.694   4.339  15.199 -0.0470 -1.6623  2.3526
 9579TIP3   OH250151   5.098   5.185   1.416 -0.0730  0.0281  0.2369
 9579TIP3    H150152   5.077   5.161   1.325  0.2621  1.5820 -0.2801
 9579TIP3    H250153   5.023   5.153   1.466 -0.5348 -0.3512 -0.6624
 9580TIP3   OH250154   5.595   3.301  13.692  0.4918 -0.8900 -0.2590
 9580TIP3    H150155   5.614   3.394  13.694 -0.3126 -0.6089 -2.4058
 9580TIP3    H250156   5.500   3.295  13.699  0.1584 -1.2124 -3.3157
 9581TIP3   OH250157   5.179   4.383  11.482  0.6895  0.1115 -0.1134
 9581TIP3    H150158   5.271   4.382  11.510  0.6981 -0.8979 -0.1470
 9581TIP3    H250159   5.164   4.295  11.447  0.1838  0.7736 -1.6449
 9582TIP3   OH250160   4.431   4.721   1.072  0.3381  0.1124  0.1969
 9582TIP3    H150161   4.370   4.725   1.145  1.2851  0.0324  1.0079
 9582TIP3    H250162   4.504   4.776   1.098  1.9747 -2.0710  0.5696
 9583TIP3   OH250163   0.352   3.757  11.555  0.3816  0.7774 -0.5188
 9583TIP3    H150164   0.403   3.817  11.500  0.6769  1.4531  0.4686
 9583TIP3    H250165   0.415   3.725  11.620 -0.0704  0.3512 -0.2832
 9584TIP3   OH250166   2.932   3.429  13.497 -0.5400 -0.3104  0.6743
 9584TIP3    H150167   2.855   3.486  13.490  0.1817  0.5419 -1.0766
 9584TIP3    H250168   2.991   3.476  13.555 -0.6310 -0.0913  0.5922
 9585TIP3   OH250169   2.987   0.861   3.031  0.2487 -0.4962  0.0641
 9585TIP3    H150170   3.069   0.887   3.073  0.1527  0.4508 -0.3325
 9585TIP3    H250171   2.927   0.934   3.046 -0.4218 -1.0279  0.0448
 9586TIP3   OH250172   3.929   5.138  17.058  0.1197 -0.4829 -0.2569
 9586TIP3    H150173   3.898   5.218  17.017 -3.0559 -0.6559  1.4457
 9586TIP3    H250174   3.941   5.162  17.150 -0.9148 -1.8900  0.2845
 9587TIP3   OH250175   0.033   5.014  16.738 -0.2579  0.4760  0.6990
 9587TIP3    H150176   0.060   4.952  16.805  0.0586 -0.2612 -0.1001
 9587TIP3    H250177  -0.059   4.992  16.719 -0.8460  1.6607  1.9405
 9588TIP3   OH250178   2.171   2.804   3.066 -0.0580  0.1147  0.0342
 9588TIP3    H150179   2.164   2.719   3.110 -0.3503  0.4281  0.6081
 9588TIP3    H250180   2.111   2.798   2.992  1.1877 -0.7840 -0.9507
 9589TIP3   OH250181   3.976   6.074  11.542  0.4108 -0.7809  0.7102
 9589TIP3    H150182   3.946   6.147  11.596 -0.3327  0.2764 -1.0371
 9589TIP3    H250183   3.947   5.996  11.589 -0.5748  0.1008  1.6261
 9590TIP3   OH250184   6.042   4.356  13.464  0.3031 -0.5220  0.1581
 9590TIP3    H150185   5.994   4.281  13.502  1.4069 -1.5751 -0.4466
 9590TIP3    H250186   6.124   4.359  13.514  0.2269  0.3693  0.2432
 9591TIP3   OH250187   1.997   0.719  11.082  0.0248  0.3944 -0.2117
 9591TIP3    H150188   2.082   0.760  11.068  0.8181 -1.2694 -0.5874
 9591TIP3    H250189   1.979   0.673  11.000 -0.5220 -0.4716  0.3791
 9592TIP3   OH250190   4.909   4.332  14.080 -0.2999  0.0059 -0.3083
 9592TIP3    H150191   4.989   4.369  14.041  0.4255 -0.9673  0.2122
 9592TIP3    H250192   4.890   4.255  14.027  0.4590 -1.0935  0.9467
 9593TIP3   OH250193   5.843   2.200  14.205 -0.1586  0.2238 -0.1028
 9593TIP3    H150194   5.751   2.200  14.181 -0.2301  2.0462  0.0371
 9593TIP3    H250195   5.888   2.241  14.131  0.4592 -0.0248  0.1233
 9594TIP3   OH250196   3.207   0.132  12.937 -0.0709  0.1323  0.4559
 9594TIP3    H150197   3.152   0.129  12.858  1.2825 -0.6297 -0.4874
 9594TIP3    H250198   3.184   0.053  12.985  0.7629 -0.6123 -0.3439
 9595TIP3   OH250199   3.478   1.408   6.024  0.0207  0.2855 -0.5972
 9595TIP3    H150200   3.404   1.412   6.085  1.1610  1.1637  0.8110
 9595TIP3    H250201   3.460   1.332   5.969 -1.8444  0.3925 -0.2098
 9596TIP3   OH250202   1.298   6.692  15.809  0.2548 -0.0092  0.2919
 9596TIP3    H150203   1.319   6.740  15.889  1.1087  0.6040 -0.2860
 9596TIP3    H250204   1.253   6.613  15.839  0.2061  0.4125  1.3473
 9597TIP3   OH250205   1.352   1.206   0.631  0.2654  0.0633 -0.6032
 9597TIP3    H150206   1.258   1.222   0.637 -0.0755 -1.8763 -0.3895
 9597TIP3    H250207   1.362   1.155   0.551  0.8201 -1.7513  0.5779
 9598TIP3   OH250208   5.775   1.877  13.834  0.1997  0.0802 -0.2204
 9598TIP3    H150209   5.838   1.933  13.879  0.3442 -1.5318  1.7670
 9598TIP3    H250210   5.709   1.857  13.901 -0.0590 -1.7339 -0.9612
 9599TIP3   OH250211   3.146   0.007   3.975  0.1314 -0.2984 -0.4280
 9599TIP3    H150212   3.051  -0.001   3.973  0.0666 -2.7494  2.8272
 9599TIP3    H250213   3.175  -0.027   3.891 -1.8704 -2.2935 -0.4289
 9600TIP3   OH250214   4.227   2.260  10.913  0.2862 -0.3707  0.0212
 9600TIP3    H150215   4.178   2.291  10.989 -0.2471  0.0752 -0.4895
 9600TIP3    H250216   4.163   2.208  10.863  0.0719  0.8924 -1.0724
 9601TIP3   OH250217   0.834   1.313  15.816 -0.4358  0.1035 -0.5495
 9601TIP3    H150218   0.781   1.240  15.785 -1.5019  0.7710 -0.3622
 9601TIP3    H250219   0.820   1.382  15.751  1.0501 -0.0340 -1.0606
 9602TIP3   OH250220   4.643   2.296  11.354  0.4862 -0.3149  0.2093
 9602TIP3    H150221   4.664   2.316  11.263  0.2839  0.5366  0.3436
 9602TIP3    H250222   4.604   2.209  11.350 -0.3219  0.0591 -0.6433
 9603TIP3   OH250223   3.459   5.869   0.681 -0.1917  0.0184 -0.7092
 9603TIP3    H150224   3.465   5.922   0.760 -1.1451 -0.5868 -0.2192
 9603TIP3    H250225   3.423   5.929   0.615 -0.8069  0.1172 -0.2898
 9604TIP3   OH250226   2.685   1.349  17.061  0.6249 -0.4445  0.4267
 9604TIP3    H150227   2.603   1.365  17.108  0.7466  1.0155  0.1840
 9604TIP3    H250228   2.691   1.254  17.056 -0.6692 -0.5911  1.1222
 9605TIP3   OH250229   0.356   2.649  17.172  0.2008  0.2711  0.0190
 9605TIP3    H150230   0.341   2.629  17.264 -1.6633  2.4186  0.2860
 9605TIP3    H250231   0.329   2.571  17.125 -2.7727  0.4889  1.1403
 9606TIP3   OH250232   1.011   0.371   6.664 -0.0709  0.4774 -0.2652
 9606TIP3    H150233   0.965   0.448   6.629 -1.2601 -0.5083 -0.9249
 9606TIP3    H250234   1.011   0.308   6.592  1.5654  0.1130  0.0195
 9607TIP3   OH250235   4.122   0.549   3.267  0.5755  0.2615  0.3770
 9607TIP3    H150236   4.195   0.495   3.298  1.1647 -0.0600 -1.4635
 9607TIP3    H250237   4.143   0.637   3.298  1.2506  0.0003  0.6898
 9608TIP3   OH250238   6.205   1.426   2.062  0.2069 -0.0182  0.0432
 9608TIP3    H150239   6.271   1.440   2.130  0.3306  0.2719 -0.1335
 9608TIP3    H250240   6.133   1.483   2.087 -1.1059 -2.2359  1.6849
 9609TIP3   OH250241   1.737   5.591  17.299  0.1918 -0.0177  0.3668
 9609TIP3    H150242   1.721   5.498  17.282  0.5899 -0.0052 -0.0751
 9609TIP3    H250243   1.802   5.592  17.370  0.1131 -0.0753  0.4398
 9610TIP3   OH250244   4.377   4.121  12.427  0.3929  0.1416  0.0564
 9610TIP3    H150245   4.406   4.038  12.389  4.5116  0.7792  1.3113
 9610TIP3    H250246   4.380   4.106  12.522  0.8581  1.5919  0.2918
 9611TIP3   OH250247   3.656   5.567   1.964  0.0007 -0.1941 -0.5789
 9611TIP3    H150248   3.724   5.501   1.981  1.2315  0.8369 -1.3073
 9611TIP3    H250249   3.635   5.602   2.051  2.0069  0.9746 -0.4897
 9612TIP3   OH250250   6.493   5.940   2.136 -0.7026 -0.1078  0.3835
 9612TIP3    H150251   6.473   5.973   2.049 -1.1036 -2.9773 -0.7034
 9612TIP3    H250252   6.460   6.007   2.195  0.2151  2.2566 -1.6140
 9613TIP3   OH250253   5.502   5.341  12.723 -0.4752 -0.1684  0.2186
 9613TIP3    H150254   5.542   5.255  12.710 -1.8009 -0.5382 -2.0955
 9613TIP3    H250255   5.568   5.392  12.769  1.0057 -1.9291  0.1481
 9614TIP3   OH250256   3.559   0.626  16.475  0.3086 -0.0113 -0.2485
 9614TIP3    H150257   3.589   0.716  16.465  1.5361 -0.3791 -0.1051
 9614TIP3    H250258   3.502   0.611  16.399  1.1013  0.5077 -0.9675
 9615TIP3   OH250259   2.214   3.804   4.944  0.9397  0.3901 -0.1223
 9615TIP3    H150260   2.274   3.743   4.987  0.6141  0.1793  0.0380
 9615TIP3    H250261   2.221   3.884   4.995 -0.9975 -0.4768  1.6567
 9616TIP3   OH250262   0.559   2.050  15.504  0.4168  0.0203 -0.0830
 9616TIP3    H150263   0.547   2.079  15.594  1.1244  0.1698 -0.0317
 9616TIP3    H250264   0.477   2.006  15.482  0.5982 -0.8809  0.9613
 9617TIP3   OH250265   5.511   4.972  12.467  0.4372 -0.1778  0.0516
 9617TIP3    H150266   5.461   5.000  12.390  0.2658  0.4424  0.3794
 9617TIP3    H250267   5.445   4.932  12.524  0.2146  1.0792  0.6957
 9618TIP3   OH250268   0.648   4.900   1.575 -0.4471 -0.8244  0.0383
 9618TIP3    H150269   0.580   4.876   1.636 -1.5308  1.3757 -0.1959
 9618TIP3    H250270   0.614   4.873   1.489 -0.9931  0.1293 -0.0605
 9619TIP3   OH250271   2.594   3.017  14.728 -0.0953  0.2963 -0.1773
 9619TIP3    H150272   2.654   2.964  14.675  1.2227  2.1233 -0.6446
 9619TIP3    H250273   2.609   2.989  14.818 -0.2184 -0.8280 -0.4899
 9620TIP3   OH250274   4.839   2.036   1.387  0.0159  0.2041  0.1707
 9620TIP3    H150275   4.922   1.989   1.378  0.1007  0.2737  0.5684
 9620TIP3    H250276   4.794   1.991   1.458 -0.8061 -0.5824 -0.8097
 9621TIP3   OH250277   1.949   3.745   6.469  0.0140 -0.3483 -0.5959
 9621TIP3    H150278   1.904   3.828   6.482 -0.2336 -0.3394 -1.4223
 9621TIP3    H250279   2.031   3.768   6.426  0.0972 -0.5002 -0.5193
 9622TIP3   OH250280   6.167   1.662  16.648  0.4292  0.1442  0.1196
 9622TIP3    H150281   6.125   1.660  16.734 -0.7834  0.1119 -0.4520
 9622TIP3    H250282   6.130   1.586  16.602  0.2918  0.7367 -0.7663
 9623TIP3   OH250283   6.390   6.007  14.275  0.0923 -0.0260  0.0332
 9623TIP3    H150284   6.368   6.056  14.354 -0.2727  0.5180 -0.3879
 9623TIP3    H250285   6.461   6.057  14.235 -0.9077  0.7277 -0.8851
 9624TIP3   OH250286   3.879   6.506  16.669  0.5722  0.1178  0.5783
 9624TIP3    H150287   3.914   6.574  16.727  1.2591 -0.3135  0.6807
 9624TIP3    H250288   3.810   6.463  16.721 -0.1712  1.0068  0.3543
 9625TIP3   OH250289   5.139   3.553  13.689 -0.1495 -0.5876  0.3422
 9625TIP3    H150290   5.105   3.483  13.744 -0.4933 -0.0842  0.7769
 9625TIP3    H250291   5.164   3.509  13.607  0.3766 -1.3405  0.8904
 9626TIP3   OH250292   2.254   0.418   3.067 -0.0284  0.2976 -0.4167
 9626TIP3    H150293   2.233   0.393   3.157 -1.1611 -0.0581 -0.7594
 9626TIP3    H250294   2.256   0.335   3.019 -1.8985  0.6462 -1.1885
 9627TIP3   OH250295   4.456   2.174  12.357 -0.1529  0.1893 -0.3474
 9627TIP3    H150296   4.466   2.109  12.287  0.1261  0.5695 -0.6651
 9627TIP3    H250297   4.518   2.145  12.425  1.3505  1.1193 -1.2549
 9628TIP3   OH250298   1.318   3.418   1.873 -0.7148  0.2581  0.5620
 9628TIP3    H150299   1.227   3.402   1.846  0.1519 -4.5961 -0.3684
 9628TIP3    H250300   1.338   3.346   1.933  3.3320 -0.7368 -1.6376
 9629TIP3   OH250301   1.279   2.366  13.828  0.2819 -0.6461 -0.5536
 9629TIP3    H150302   1.214   2.358  13.898  0.5325 -0.3478 -0.2785
 9629TIP3    H250303   1.341   2.431  13.862 -0.4588  0.7239 -1.7060
 9630TIP3   OH250304   4.715   3.476   1.844  0.5335 -0.0389  0.1000
 9630TIP3    H150305   4.795   3.503   1.890  0.9139 -0.2796 -0.4104
 9630TIP3    H250306   4.718   3.524   1.761  0.8278 -1.0477 -0.4909
 9631TIP3   OH250307   1.651   3.572  12.532  1.1546 -0.1546  0.0515
 9631TIP3    H150308   1.736   3.609  12.556  0.7233  0.7545  0.2323
 9631TIP3    H250309   1.654   3.564  12.437  2.0099 -1.5888  0.1781
 9632TIP3   OH250310   1.006   6.509  17.208 -0.0025  0.3129  0.1644
 9632TIP3    H150311   0.922   6.553  17.218 -0.5702 -0.4895 -0.8156
 9632TIP3    H250312   0.992   6.422  17.246  0.8489  0.6606  1.3255
 9633TIP3   OH250313   6.695   3.878   2.107 -0.3983 -0.1280 -0.5170
 9633TIP3    H150314   6.697   3.783   2.104  1.5635 -0.1337 -0.1304
 9633TIP3    H250315   6.722   3.906   2.019  0.7136  0.0404 -0.1363
 9634TIP3   OH250316   0.169   2.025   1.989 -0.3171  0.2787  0.1717
 9634TIP3    H150317   0.229   1.987   1.925 -0.4654 -2.5051  1.5443
 9634TIP3    H250318   0.083   2.022   1.947 -0.0540  0.8894 -0.4293
 9635TIP3   OH250319   5.303   2.916   2.082  0.1191  0.5667 -0.0493
 9635TIP3    H150320   5.338   2.859   2.150  0.4931 -3.1969 -3.0283
 9635TIP3    H250321   5.381   2.950   2.036 -0.0739 -0.2753 -1.0380
 9636TIP3   OH250322   2.404   4.602   2.769 -0.3032  0.0397  0.5876
 9636TIP3    H150323   2.310   4.608   2.751 -0.3480 -0.5832  0.5889
 9636TIP3    H250324   2.410   4.597   2.864 -0.0007  4.5087  0.9921
 9637TIP3   OH250325   5.869   4.858  17.004  0.3617  0.4149 -0.5410
 9637TIP3    H150326   5.881   4.767  16.977  1.1093  0.2135  0.4274
 9637TIP3    H250327   5.936   4.906  16.956 -0.8922  0.7009 -2.1083
 9638TIP3   OH250328   6.226   1.906   2.875  0.4139  0.3393 -0.2401
 9638TIP3    H150329   6.263   1.846   2.940  0.3540  0.3156 -0.2281
 9638TIP3    H250330   6.164   1.960   2.924 -0.7539 -0.6655 -0.5486
 9639TIP3   OH250331   3.666   5.778  16.129 -0.3298  0.6425  0.3840
 9639TIP3    H150332   3.606   5.764  16.202  0.2344  1.4462  1.0198
 9639TIP3    H250333   3.626   5.849  16.079  0.1772  1.3252  0.9277
 9640TIP3   OH250334   0.217   1.860  14.279  0.3979  0.0519  0.4112
 9640TIP3    H150335   0.253   1.910  14.205 -0.6959  0.9395  0.4617
 9640TIP3    H250336   0.291   1.850  14.339  1.6763 -1.7935 -1.3257
 9641TIP3   OH250337   6.435   6.339   5.239 -0.0684  0.0308  0.1863
 9641TIP3    H150338   6.358   6.283   5.242 -0.2010  0.1833 -0.2917
 9641TIP3    H250339   6.449   6.357   5.146  0.2432  0.4174  0.3007
 9642TIP3   OH250340   1.741   5.583   2.007 -0.2638  0.0764  0.4735
 9642TIP3    H150341   1.646   5.581   2.013 -0.2248 -1.8449  1.4321
 9642TIP3    H250342   1.761   5.532   1.928 -0.0345  0.3276  0.3692
 9643TIP3   OH250343   6.505   1.808  13.409  0.3016  0.7077  0.5878
 9643TIP3    H150344   6.468   1.838  13.493 -2.6149  0.2600 -0.4146
 9643TIP3    H250345   6.529   1.889  13.364 -2.6029  1.3693  0.0185
 9644TIP3   OH250346   6.578   3.263  13.346 -0.0986 -0.7324 -0.0361
 9644TIP3    H150347   6.608   3.246  13.435 -0.0457 -0.1111  0.0699
 9644TIP3    H250348   6.650   3.313  13.306 -0.0918 -1.0700 -0.4481
 9645TIP3   OH250349   6.736   4.851   5.105  0.1852  0.2156 -0.6211
 9645TIP3    H150350   6.687   4.770   5.121 -1.6712  1.1566 -1.2915
 9645TIP3    H250351   6.717   4.873   5.014  1.0535  1.1775 -0.5861
 9646TIP3   OH250352   6.169   3.973  14.325 -0.1619  0.5333 -0.4917
 9646TIP3    H150353   6.187   4.034  14.397 -2.6215  0.7159  0.0781
 9646TIP3    H250354   6.108   3.909  14.363 -2.3710  1.2223 -2.5764
 9647TIP3   OH250355   2.575   1.233  14.302 -0.2608 -0.5556  0.0336
 9647TIP3    H150356   2.577   1.327  14.283  0.1161 -0.1683  1.7803
 9647TIP3    H250357   2.666   1.209  14.315 -0.3756 -1.1250 -0.2001
 9648TIP3   OH250358   4.267   3.057   4.863 -0.0358  0.0027  0.4151
 9648TIP3    H150359   4.342   2.997   4.864  0.5702  0.6862 -0.9711
 9648TIP3    H250360   4.283   3.115   4.938  1.1408  0.4892 -0.1811
 9649TIP3   OH250361   4.254   3.838   2.201 -0.1686  0.0542  0.0520
 9649TIP3    H150362   4.254   3.752   2.159  0.3017  0.2403 -0.3395
 9649TIP3    H250363   4.248   3.820   2.294  0.3839 -0.4182 -0.0006
 9650TIP3   OH250364   3.019   6.693   4.320  0.1397 -0.1988  0.7521
 9650TIP3    H150365   3.107   6.731   4.322  0.3967 -0.8167  1.6466
 9650TIP3    H250366   2.964   6.764   4.286  1.1510 -0.2013 -1.0482
 9651TIP3   OH250367   1.499   6.056   4.823  0.0943 -0.1573 -0.3376
 9651TIP3    H150368   1.475   6.131   4.877 -1.1987  1.0282 -2.4417
 9651TIP3    H250369   1.595   6.056   4.824  0.1168 -0.0140  1.6532
 9652TIP3   OH250370   4.694   4.003   0.016 -0.0139 -0.1005 -0.2705
 9652TIP3    H150371   4.665   3.944  -0.054 -0.9409 -2.6989  2.1200
 9652TIP3    H250372   4.616   4.019   0.068  0.8887  0.8243  0.8505
 9653TIP3   OH250373   6.115   1.981  15.631 -0.7685  0.0559  0.5666
 9653TIP3    H150374   6.180   2.049  15.648  2.0571 -2.4935  0.8627
 9653TIP3    H250375   6.063   1.976  15.711 -0.2865  1.1252  0.9609
 9654TIP3   OH250376   4.928   6.071  13.958  0.5438  0.4710  0.2916
 9654TIP3    H150377   4.865   6.054  13.888 -0.6614  0.6161  1.2995
 9654TIP3    H250378   4.932   6.167  13.963  0.1335  0.4709  0.8138
 9655TIP3   OH250379   1.874   1.687  12.073 -0.4352  0.1736  0.2886
 9655TIP3    H150380   1.920   1.612  12.037  0.4844  0.3072  1.1468
 9655TIP3    H250381   1.781   1.664  12.067 -0.1966 -0.6794 -0.1971
 9656TIP3   OH250382   0.035   6.373  12.034  0.5363  0.2001 -0.2642
 9656TIP3    H150383   0.091   6.315  12.085  0.1203  1.5339  1.8308
 9656TIP3    H250384  -0.009   6.427  12.099 -0.8240  1.3159 -2.0155
 9657TIP3   OH250385   3.017   4.345   1.884 -0.1689 -0.1671 -0.4519
 9657TIP3    H150386   3.079   4.324   1.814  0.6402 -0.3385  0.2982
 9657TIP3    H250387   3.072   4.376   1.956 -0.9298 -0.5919  0.3304
 9658TIP3   OH250388   6.082   4.051   6.291  0.2870 -0.4305 -0.1078
 9658TIP3    H150389   6.122   4.118   6.345 -2.0786 -0.4965  1.9006
 9658TIP3    H250390   6.045   4.099   6.217  0.7510  0.1297  0.0179
 9659TIP3   OH250391   1.426   2.956   5.942 -0.0300  0.1999  0.6586
 9659TIP3    H150392   1.378   3.038   5.947 -0.1541  0.3582 -2.0553
 9659TIP3    H250393   1.511   2.975   5.981 -0.4740  1.2560  1.1297
 9660TIP3   OH250394   5.253   5.181  11.601  0.0386 -0.1150  0.8369
 9660TIP3    H150395   5.254   5.086  11.588 -0.6385 -0.1023  0.6528
 9660TIP3    H250396   5.250   5.217  11.512  0.1135  0.0708  0.9097
 9661TIP3   OH250397   3.805   1.438   5.153  0.1325 -0.9152 -0.0050
 9661TIP3    H150398   3.791   1.490   5.074  0.4690 -0.8257 -0.0086
 9661TIP3    H250399   3.725   1.387   5.163 -0.9056  0.7973  0.9184
 9662TIP3   OH250400   2.842   2.958   1.079 -0.3498  0.3003  0.5435
 9662TIP3    H150401   2.748   2.957   1.098 -0.1023 -0.5799  1.9095
 9662TIP3    H250402   2.851   3.012   1.000 -2.0663 -0.2081 -0.0236
 9663TIP3   OH250403   6.005   0.145   5.049  0.1301 -0.0270  0.0396
 9663TIP3    H150404   5.987   0.231   5.012 -0.5666 -1.5764 -3.7175
 9663TIP3    H250405   5.921   0.098   5.043  0.8940 -1.4916  0.2697
 9664TIP3   OH250406   4.818   1.567  12.136  0.0995  0.4479  0.2446
 9664TIP3    H150407   4.755   1.503  12.103  1.4558 -0.9720  0.2728
 9664TIP3    H250408   4.803   1.569  12.231  1.2755 -1.3386  0.5319
 9665TIP3   OH250409   6.607   5.688  11.781  0.4005 -0.4336  0.0237
 9665TIP3    H150410   6.604   5.617  11.718 -0.0451 -0.3119 -0.0990
 9665TIP3    H250411   6.695   5.725  11.773 -0.5275  1.4449 -2.5930
 9666TIP3   OH250412   0.047   4.568   1.467  1.0137  0.7819 -0.2969
 9666TIP3    H150413   0.021   4.649   1.422 -0.6465 -0.7389 -2.3157
 9666TIP3    H250414   0.023   4.583   1.558  1.3928  2.7917 -0.4727
 9667TIP3   OH250415   2.187   4.377  11.029 -0.2703 -0.4726  0.3358
 9667TIP3    H150416   2.203   4.300  10.975  0.9383 -0.8054  1.1550
 9667TIP3    H250417   2.167   4.446  10.966  0.5204 -1.0000 -0.5161
 9668TIP3   OH250418   6.683   4.984  14.438 -0.0517 -0.3320  0.2876
 9668TIP3    H150419   6.684   5.024  14.352  0.9596 -1.4935 -0.2764
 9668TIP3    H250420   6.770   4.945  14.448 -1.0977 -2.7968  0.5405
 9669TIP3   OH250421   4.088   5.528  11.422 -0.8612  0.1822 -0.3554
 9669TIP3    H150422   4.113   5.583  11.348  0.7944  2.6254  1.8596
 9669TIP3    H250423   4.150   5.455  11.419 -2.0572 -0.8646 -2.3884
 9670TIP3   OH250424   0.036   1.164  13.841 -0.3390  0.5947  0.5663
 9670TIP3    H150425   0.107   1.228  13.837  0.1870 -0.0335 -0.4085
 9670TIP3    H250426   0.060   1.097  13.777 -0.4461 -1.0270  2.1342
 9671TIP3   OH250427   5.526   2.567   1.905 -0.2099 -0.4132  0.0848
 9671TIP3    H150428   5.556   2.604   1.987 -1.4890  1.1433 -0.0867
 9671TIP3    H250429   5.561   2.478   1.904  0.3776 -0.2472  1.9848
 9672TIP3   OH250430   5.981   3.560   1.221  0.1799 -0.8328  0.2772
 9672TIP3    H150431   5.923   3.571   1.297 -1.8929 -2.3082 -0.9791
 9672TIP3    H250432   5.963   3.636   1.166 -0.4956 -1.2129 -0.0416
 9673TIP3   OH250433   5.746   1.001   2.182  0.0035  0.1613  0.0208
 9673TIP3    H150434   5.728   1.090   2.214  1.4887  0.6080 -0.3405
 9673TIP3    H250435   5.687   0.945   2.233 -0.6079  1.2958  0.5896
 9674TIP3   OH250436   1.534   0.574   6.046  0.0049 -0.0961  0.6068
 9674TIP3    H150437   1.595   0.552   5.976 -1.4128  0.1309 -0.7672
 9674TIP3    H250438   1.587   0.575   6.125  1.6243 -0.5858 -0.4256
 9675TIP3   OH250439   5.948   2.410  11.167 -0.5219 -0.2799  0.2393
 9675TIP3    H150440   6.026   2.361  11.141 -0.3079  0.9577 -1.6322
 9675TIP3    H250441   5.898   2.420  11.086 -2.2255 -0.3101  1.2401
 9676TIP3   OH250442   0.547   1.802  13.751 -0.5640 -0.0925 -0.2737
 9676TIP3    H150443   0.576   1.723  13.798  0.4277 -0.6950 -1.8242
 9676TIP3    H250444   0.464   1.826  13.793 -0.9214 -1.9956  0.2085
 9677TIP3   OH250445   6.025   2.765  16.993 -0.5519 -0.3231  0.8883
 9677TIP3    H150446   6.008   2.856  16.969  1.3875 -0.3893 -1.0329
 9677TIP3    H250447   6.058   2.770  17.083 -0.4045  0.8690  0.7871
 9678TIP3   OH250448   3.640   1.242   2.444 -0.5357  0.1323  0.6026
 9678TIP3    H150449   3.598   1.228   2.529 -0.2973  0.1227  0.7173
 9678TIP3    H250450   3.574   1.289   2.393 -0.7977 -0.1391  0.6890
 9679TIP3   OH250451   3.866   3.800   3.914 -0.4732  0.5388  0.6903
 9679TIP3    H150452   3.899   3.880   3.874 -2.1793  0.9405 -0.0306
 9679TIP3    H250453   3.838   3.827   4.002  2.5800 -0.1831  2.0115
 9680TIP3   OH250454   4.162   2.849  16.687 -0.3817 -0.2358  0.8673
 9680TIP3    H150455   4.156   2.806  16.601 -0.3938  0.1009  0.7005
 9680TIP3    H250456   4.230   2.915  16.676 -2.8178  2.2940  0.0503
 9681TIP3   OH250457   6.217   0.522   0.775  0.0578  0.0249  0.2425
 9681TIP3    H150458   6.139   0.577   0.782  0.0303 -0.1067  1.0465
 9681TIP3    H250459   6.290   0.581   0.791  0.2148  0.3694 -1.5428
 9682TIP3   OH250460   0.228   2.544  16.015  0.1835 -0.1265  0.2827
 9682TIP3    H150461   0.259   2.468  15.968 -1.6632 -0.6215 -0.2377
 9682TIP3    H250462   0.247   2.525  16.107  1.6106 -0.2432 -0.0156
 9683TIP3   OH250463   2.025   0.276  16.645 -0.2783 -0.2403 -0.4551
 9683TIP3    H150464   2.038   0.181  16.645  1.4181 -0.0465 -0.9997
 9683TIP3    H250465   2.101   0.310  16.693  0.4437  0.9517 -2.3268
 9684TIP3   OH250466   4.624   1.094   5.003  0.4275 -0.1200  0.3484
 9684TIP3    H150467   4.704   1.144   4.983  1.0176 -1.1069  0.1749
 9684TIP3    H250468   4.627   1.080   5.097  0.5385 -0.2929  0.3187
 9685TIP3   OH250469   5.867   0.476   4.383  0.1984  0.6905  0.7245
 9685TIP3    H150470   5.815   0.540   4.431  1.9730  1.0502  2.2671
 9685TIP3    H250471   5.829   0.476   4.295 -1.0711  2.4312  1.2191
 9686TIP3   OH250472   0.228   2.811   0.059  0.4938 -0.3020  0.1849
 9686TIP3    H150473   0.146   2.773   0.026  0.0039  1.3286 -0.5527
 9686TIP3    H250474   0.228   2.790   0.152 -1.2211  0.4419  0.3869
 9687TIP3   OH250475   2.487   3.694  14.800 -0.4691 -0.0126  0.0904
 9687TIP3    H150476   2.414   3.688  14.739 -0.2186 -0.4768 -0.1686
 9687TIP3    H250477   2.546   3.623  14.774 -0.0190  0.2368  0.4147
 9688TIP3   OH250478   4.174   4.300  11.103  0.2355 -0.6452  0.7961
 9688TIP3    H150479   4.147   4.376  11.154 -0.1145  0.9856 -1.6918
 9688TIP3    H250480   4.098   4.278  11.050  1.7280  0.1996 -1.8672
 9689TIP3   OH250481   1.724   2.207  11.792 -0.0481  0.1736  0.1762
 9689TIP3    H150482   1.818   2.191  11.791 -0.2275 -1.0194  0.6247
 9689TIP3    H250483   1.704   2.230  11.882 -0.1216  0.9425 -0.0256
 9690TIP3   OH250484   4.763   2.662   1.574  0.9102 -0.1520 -0.2774
 9690TIP3    H150485   4.829   2.731   1.587 -1.5880  2.2447  0.8912
 9690TIP3    H250486   4.786   2.595   1.638  0.7594  1.9027  2.1025
 9691TIP3   OH250487   3.219   5.007   1.015 -0.2317 -0.5719  0.1928
 9691TIP3    H150488   3.206   4.975   0.925 -1.7488  1.8614 -0.5400
 9691TIP3    H250489   3.300   5.057   1.011 -1.2707  1.1517 -0.3806
 9692TIP3   OH250490   3.351   3.132  15.802  0.1000  0.1695 -0.0076
 9692TIP3    H150491   3.267   3.175  15.819  0.5456  0.6854  0.9460
 9692TIP3    H250492   3.345   3.104  15.711 -0.6121  1.3235 -0.3374
 9693TIP3   OH250493   6.195   6.733  16.327  0.2764  0.1791 -0.0950
 9693TIP3    H150494   6.172   6.778  16.245  1.1653  1.5036  0.3607
 9693TIP3    H250495   6.180   6.640  16.308 -2.7566  0.6729 -0.7092
 9694TIP3   OH250496   2.132   6.053  15.401  0.2867 -0.1040 -0.1455
 9694TIP3    H150497   2.159   6.030  15.312  1.7018  1.3613 -0.1461
 9694TIP3    H250498   2.212   6.086  15.442 -0.6157  0.3870  1.2910
 9695TIP3   OH250499   3.037   0.585   2.992  0.3967  0.2986 -0.3868
 9695TIP3    H150500   3.018   0.679   2.995 -0.4832  0.1195 -0.0574
 9695TIP3    H250501   2.971   0.545   3.048 -1.3644 -0.8590 -3.1059
 9696TIP3   OH250502   5.152   4.292  12.632 -0.3916  0.1880  0.4187
 9696TIP3    H150503   5.106   4.237  12.569  0.0393  0.9707 -0.6079
 9696TIP3    H250504   5.136   4.250  12.716 -0.6791 -1.0903 -0.2460
 9697TIP3   OH250505   0.167   2.925   5.530 -0.2022 -0.3677 -0.6550
 9697TIP3    H150506   0.092   2.957   5.581 -1.2984 -1.3359 -1.5844
 9697TIP3    H250507   0.239   2.984   5.553 -2.1822  3.2212 -2.7165
 9698TIP3   OH250508   0.142   3.347  13.003 -0.7416 -0.3021 -0.0932
 9698TIP3    H150509   0.119   3.264  12.961  2.0094  0.4481 -3.6060
 9698TIP3    H250510   0.086   3.412  12.960 -1.3137  0.0045  1.0534
 9699TIP3   OH250511   2.639   1.571   0.954  0.0984 -0.3359 -0.1026
 9699TIP3    H150512   2.585   1.588   1.030  1.8323 -0.2428  1.1727
 9699TIP3    H250513   2.591   1.506   0.903  0.1373 -2.5376  2.4981
 9700TIP3   OH250514   5.178   1.497  10.479  0.2509  0.6617 -0.0883
 9700TIP3    H150515   5.266   1.464  10.460 -0.1641  0.2538 -1.4651
 9700TIP3    H250516   5.142   1.435  10.543  0.8862  0.7143  0.3225
 9701TIP3   OH250517   2.294   5.049   4.864  0.0887  0.7585 -0.0193
 9701TIP3    H150518   2.371   4.995   4.845  0.5090  1.5704 -0.6417
 9701TIP3    H250519   2.274   5.029   4.955  0.3214 -0.3477 -0.1891
 9702TIP3   OH250520   6.215   4.091  14.578 -0.4824  1.1634 -0.1676
 9702TIP3    H150521   6.233   3.999  14.593 -2.5473  0.6793 -0.3075
 9702TIP3    H250522   6.169   4.120  14.657 -1.0355  1.6992 -0.6738
 9703TIP3   OH250523   3.318   3.921  14.429  0.2841 -0.2611 -0.3158
 9703TIP3    H150524   3.321   3.864  14.352  0.0825 -0.9906  0.2102
 9703TIP3    H250525   3.384   3.886  14.488  0.2516  0.1334 -0.0413
 9704TIP3   OH250526   0.345   2.075   3.992 -0.1746 -0.4945 -0.0476
 9704TIP3    H150527   0.278   2.106   3.932  0.8118  2.6361  0.2746
 9704TIP3    H250528   0.420   2.053   3.937 -0.6885 -1.8301 -0.2370
 9705TIP3   OH250529   5.351   2.699   4.056  0.7972  0.4326 -0.1204
 9705TIP3    H150530   5.271   2.745   4.032  0.6329 -0.4627 -1.4165
 9705TIP3    H250531   5.407   2.707   3.978  1.6379  0.3285  0.4550
 9706TIP3   OH250532   4.501   2.140  15.790 -0.0977 -0.3985 -0.1705
 9706TIP3    H150533   4.492   2.214  15.730 -0.6458  1.3382  1.9084
 9706TIP3    H250534   4.579   2.161  15.842 -0.4076 -1.1366  0.6172
 9707TIP3   OH250535   0.292   6.550   1.418 -0.2043  0.3987  0.2706
 9707TIP3    H150536   0.210   6.593   1.392  0.5818  2.2167  0.6127
 9707TIP3    H250537   0.355   6.622   1.425  0.9705 -0.7191  1.7753
 9708TIP3   OH250538   4.586   6.732   4.845 -0.5793  0.0619 -0.4194
 9708TIP3    H150539   4.637   6.660   4.883 -3.1343 -0.3124  2.7794
 9708TIP3    H250540   4.642   6.809   4.856  0.6704 -0.8313 -0.3045
 9709TIP3   OH250541   3.398   3.712  10.635 -0.0883 -0.2745  0.3266
 9709TIP3    H150542   3.408   3.805  10.654 -1.7233 -0.4309  2.2840
 9709TIP3    H250543   3.459   3.668  10.695 -0.9135 -0.5277  1.0038
 9710TIP3   OH250544   2.980   2.758   1.261 -0.0975  0.4053 -0.2749
 9710TIP3    H150545   3.069   2.745   1.228  0.2510  1.4701  0.2234
 9710TIP3    H250546   2.942   2.823   1.202  0.3798  1.9872  1.1254
 9711TIP3   OH250547   5.028   3.037   2.266 -0.2209  0.3696 -0.4442
 9711TIP3    H150548   5.123   3.025   2.272 -0.2005  0.5378 -0.4156
 9711TIP3    H250549   4.993   2.988   2.340  0.0140  2.1915  0.9617
 9712TIP3   OH250550   2.786   3.797  13.579  0.5430 -0.3762 -0.0680
 9712TIP3    H150551   2.830   3.716  13.606  1.5369  0.4680  0.9346
 9712TIP3    H250552   2.819   3.814  13.491  1.8072 -0.0866  0.4324
 9713TIP3   OH250553   4.928   3.810   5.660 -0.6318  0.0185 -0.2474
 9713TIP3    H150554   4.916   3.740   5.724 -2.8127  0.2939 -0.2710
 9713TIP3    H250555   5.015   3.845   5.679 -0.0384 -1.7994  0.6338
 9714TIP3   OH250556   1.825   4.505  17.173 -0.4119  0.7227  0.7422
 9714TIP3    H150557   1.891   4.574  17.165 -0.8663  1.0577 -0.2212
 9714TIP3    H250558   1.840   4.468  17.260  2.4332 -0.5836 -0.1779
 9715TIP3   OH250559   0.500   1.137   4.974  0.1233 -0.0334 -0.3211
 9715TIP3    H150560   0.558   1.197   4.926  0.1946 -0.2450 -0.4999
 9715TIP3    H250561   0.418   1.137   4.924 -0.3118  0.8706  0.3586
 9716TIP3   OH250562   1.443   2.732   1.965 -0.3798 -0.1522  0.3514
 9716TIP3    H150563   1.421   2.639   1.964 -1.5621  0.1054 -0.8250
 9716TIP3    H250564   1.420   2.761   2.054 -0.7278 -0.8211  0.4870
 9717TIP3   OH250565   5.253   5.161   2.126  0.0345 -0.6931 -0.2285
 9717TIP3    H150566   5.323   5.138   2.064  0.4826  2.0066 -0.8804
 9717TIP3    H250567   5.294   5.156   2.212  0.4372 -1.1136 -0.4438
 9718TIP3   OH250568   2.705   6.485   2.599 -0.3208 -0.5490 -0.4968
 9718TIP3    H150569   2.777   6.423   2.607 -0.4628 -0.7335 -0.6472
 9718TIP3    H250570   2.626   6.430   2.595 -0.6509 -0.3166  1.5651
 9719TIP3   OH250571   4.693   4.775  14.248  0.2101  0.4681  0.6560
 9719TIP3    H150572   4.711   4.750  14.339  0.9524  0.6493  0.5665
 9719TIP3    H250573   4.599   4.761  14.237  0.1034  0.5198  1.4748
 9720TIP3   OH250574   1.654   0.145  16.713  0.2941  0.0569 -0.8568
 9720TIP3    H150575   1.611   0.061  16.698 -0.9205  0.4984  0.0355
 9720TIP3    H250576   1.735   0.123  16.759 -0.6915 -0.5564  0.6602
 9721TIP3   OH250577   1.120   4.664  12.374  0.2097  0.1615  0.6796
 9721TIP3    H150578   1.199   4.665  12.320 -1.0165  0.0374 -1.2042
 9721TIP3    H250579   1.143   4.609  12.449  1.3174 -1.5871 -0.8301
 9722TIP3   OH250580   5.985   5.867  11.890 -0.1994  0.1034 -0.0974
 9722TIP3    H150581   6.020   5.794  11.839  1.4208  0.0452  1.0039
 9722TIP3    H250582   6.041   5.941  11.867 -0.5258  0.4851  0.3238
 9723TIP3   OH250583   5.114   2.809   3.543  0.0747  0.2420 -0.2563
 9723TIP3    H150584   5.052   2.804   3.470 -1.1913 -1.2641  0.8484
 9723TIP3    H250585   5.173   2.734   3.530  0.8990  0.9388 -0.6162
 9724TIP3   OH250586   0.806   3.121  16.903 -0.3328 -0.2278 -0.0597
 9724TIP3    H150587   0.829   3.210  16.929  1.5720 -0.7221  0.0692
 9724TIP3    H250588   0.804   3.072  16.986  0.9897 -0.7815 -0.3251
 9725TIP3   OH250589   0.982   2.617  15.107  0.1361  0.5626 -0.0892
 9725TIP3    H150590   0.991   2.534  15.155 -0.0549  0.6075  0.0238
 9725TIP3    H250591   0.910   2.662  15.150 -0.0466  0.5961 -0.4327
 9726TIP3   OH250592   5.408   1.245  14.679 -0.4352  0.0568  0.2040
 9726TIP3    H150593   5.452   1.162  14.658  1.9321  1.5043 -0.9131
 9726TIP3    H250594   5.399   1.243  14.775  0.9710 -0.8603  0.3515
 9727TIP3   OH250595   4.560   4.874  14.584  0.2366 -0.8371 -0.1451
 9727TIP3    H150596   4.622   4.852  14.515  0.3690  0.2773 -0.4058
 9727TIP3    H250597   4.561   4.798  14.643  2.0137 -0.7542 -0.0101
 9728TIP3   OH250598   0.768   0.090  15.334 -0.0656  0.2889  0.2556
 9728TIP3    H150599   0.709   0.046  15.396 -1.0949  1.4450  0.1572
 9728TIP3    H250600   0.813   0.156  15.388  0.0714  0.3662  0.0460
 9729TIP3   OH250601   6.329   2.711   0.590  0.1399  0.4282 -0.1981
 9729TIP3    H150602   6.397   2.644   0.579 -0.8193 -0.4724 -0.7422
 9729TIP3    H250603   6.261   2.668   0.642 -0.3381  1.0941 -0.2645
 9730TIP3   OH250604   1.583   1.444  13.150  0.0970  0.5243  0.2937
 9730TIP3    H150605   1.590   1.515  13.214 -1.2945  0.8029  0.1715
 9730TIP3    H250606   1.525   1.480  13.082  0.6735 -0.1621 -0.5685
 9731TIP3   OH250607   4.080   0.686   4.814 -0.2541 -0.3836 -0.3236
 9731TIP3    H150608   4.137   0.694   4.890 -0.6013  0.0150 -0.1015
 9731TIP3    H250609   4.083   0.773   4.773 -0.4306 -0.4649 -0.5083
 9732TIP3   OH250610   0.053   0.935  11.953  0.3610 -0.0118 -0.0489
 9732TIP3    H150611  -0.016   0.986  11.997  2.1357  0.4617  2.4297
 9732TIP3    H250612   0.006   0.869  11.902 -1.9857 -1.0305  3.1297
 9733TIP3   OH250613   0.428   6.594  14.861 -0.0177 -0.1354 -0.0421
 9733TIP3    H150614   0.470   6.543  14.930 -0.3191 -1.5370 -0.8536
 9733TIP3    H250615   0.357   6.641  14.906  0.7515  0.2099  0.8554
 9734TIP3   OH250616   2.964   0.212   1.086 -0.0459  0.0660  0.4159
 9734TIP3    H150617   3.017   0.222   1.165 -1.2166  2.2079  1.0009
 9734TIP3    H250618   2.975   0.295   1.039  0.9059 -1.2688 -1.9154
 9735TIP3   OH250619   1.154   0.324  13.756 -0.1597 -0.0304  0.2026
 9735TIP3    H150620   1.243   0.349  13.780  0.0004  1.0476 -1.3869
 9735TIP3    H250621   1.155   0.229  13.752  0.6889 -0.0621  1.0006
 9736TIP3   OH250622   6.213   5.689   0.032 -0.1871  0.2943 -0.2183
 9736TIP3    H150623   6.212   5.780   0.061 -0.1060  0.3251 -0.3119
 9736TIP3    H250624   6.136   5.650   0.073 -1.5394  0.9646 -2.0104
 9737TIP3   OH250625   5.914   4.512   3.511  0.0773 -0.1648 -0.3209
 9737TIP3    H150626   5.903   4.607   3.509 -0.9823 -0.2179  1.0886
 9737TIP3    H250627   5.832   4.479   3.549  0.4371 -1.6423 -0.7494
 9738TIP3   OH250628   3.469   0.713   3.042 -0.8023 -0.5202 -0.4885
 9738TIP3    H150629   3.493   0.633   2.996 -0.6581 -0.3868 -0.6507
 9738TIP3    H250630   3.395   0.748   2.992 -0.5610 -0.3060 -0.7017
 9739TIP3   OH250631   0.769   4.383   0.591 -0.1873 -0.7528 -0.0092
 9739TIP3    H150632   0.772   4.329   0.670  0.8838  0.5996  0.9079
 9739TIP3    H250633   0.860   4.408   0.575 -0.6277  0.6693 -0.4716
 9740TIP3   OH250634   2.251   1.895  16.752  0.4561 -0.1690  0.6950
 9740TIP3    H150635   2.306   1.972  16.765  0.1170  0.2341 -0.1946
 9740TIP3    H250636   2.270   1.867  16.663 -0.5283 -0.2257  0.4952
 9741TIP3   OH250637   3.812   6.367   3.717 -0.0376  0.4164  0.4459
 9741TIP3    H150638   3.853   6.322   3.643 -0.9448 -1.1661  0.8666
 9741TIP3    H250639   3.729   6.399   3.683  0.7483  2.1676  0.0525
 9742TIP3   OH250640   2.185   4.836   0.695  0.2334  0.2657 -0.4905
 9742TIP3    H150641   2.129   4.827   0.618 -1.2887 -1.7641  0.7632
 9742TIP3    H250642   2.249   4.765   0.688  1.6357  1.5296 -1.0382
 9743TIP3   OH250643   5.360   5.817  14.010  0.6277  0.3350 -0.1907
 9743TIP3    H150644   5.355   5.903  14.053  1.1358 -0.0342  0.6318
 9743TIP3    H250645   5.361   5.754  14.083  0.0413 -0.3889 -0.7890
 9744TIP3   OH250646   0.695   4.661  11.280  0.4105 -0.4889 -0.1847
 9744TIP3    H150647   0.659   4.573  11.269 -1.2155  0.1505 -0.2651
 9744TIP3    H250648   0.651   4.714  11.213 -0.0476  0.7647  1.0445
 9745TIP3   OH250649   3.045   4.502  15.366  0.1799 -0.1623 -0.1354
 9745TIP3    H150650   3.137   4.506  15.392  0.0993  1.2083  0.0348
 9745TIP3    H250651   3.047   4.488  15.271  0.6079  0.7116 -0.2695
 9746TIP3   OH250652   0.847   5.004   0.904  0.2705 -0.1662  0.4422
 9746TIP3    H150653   0.759   4.987   0.871  0.0435  0.4808  0.6983
 9746TIP3    H250654   0.903   4.941   0.858 -0.3238 -0.5774  0.2801
 9747TIP3   OH250655   5.700   4.345   3.906  0.7118 -0.2466  0.4457
 9747TIP3    H150656   5.770   4.281   3.894  1.0234  0.1745 -0.0263
 9747TIP3    H250657   5.627   4.310   3.855  0.7089 -0.4884  0.6166
 9748TIP3   OH250658   4.864   3.994   2.002 -0.0294  0.1096 -0.5524
 9748TIP3    H150659   4.843   4.018   2.092 -0.0098 -2.6209  0.2762
 9748TIP3    H250660   4.779   3.985   1.959 -0.0661  0.6336 -0.5948
 9749TIP3   OH250661   2.302   0.428  15.574  0.2747 -0.1732 -0.0923
 9749TIP3    H150662   2.240   0.384  15.633  0.5453 -1.2277 -0.5811
 9749TIP3    H250663   2.266   0.516  15.564 -0.5296 -0.4143  0.5377
 9750TIP3   OH250664   6.145   2.669   0.800  0.3369  0.1675 -0.3937
 9750TIP3    H150665   6.129   2.581   0.835  2.1979 -0.5669 -1.2322
 9750TIP3    H250666   6.196   2.713   0.868 -1.1762  0.8865  0.3222
 9751TIP3   OH250667   0.225   3.213  12.656 -0.2366  0.6041  0.3281
 9751TIP3    H150668   0.235   3.256  12.741  1.4021 -1.5398  1.3169
 9751TIP3    H250669   0.291   3.255  12.600 -0.5200  1.2340  0.4640
 9752TIP3   OH250670   1.393   2.070  12.481 -0.3794  0.1864 -0.1767
 9752TIP3    H150671   1.313   2.024  12.504 -0.3522 -0.4920 -1.3682
 9752TIP3    H250672   1.364   2.147  12.431 -0.2557 -1.0684 -2.2845
 9753TIP3   OH250673   2.789   1.161  14.632 -0.5985  0.3163  0.0209
 9753TIP3    H150674   2.803   1.185  14.723 -0.4858 -0.1278  0.1264
 9753TIP3    H250675   2.738   1.080  14.637 -0.4815  0.2204 -0.3049
 9754TIP3   OH250676   5.641   5.518   0.645 -0.4475  0.2376  0.6182
 9754TIP3    H150677   5.705   5.558   0.704  0.3084  1.0450 -0.6840
 9754TIP3    H250678   5.626   5.584   0.577 -0.5033 -1.0179 -0.6461
 9755TIP3   OH250679   3.435   0.463   4.584  0.4485 -0.0397 -0.4377
 9755TIP3    H150680   3.413   0.543   4.631 -0.6164 -0.3211 -0.4307
 9755TIP3    H250681   3.526   0.475   4.559 -0.0820  1.8474 -1.7468
 9756TIP3   OH250682   2.920   1.284   0.487  0.6518 -0.2664 -0.4326
 9756TIP3    H150683   2.831   1.317   0.478  0.6129 -0.6288 -1.4669
 9756TIP3    H250684   2.919   1.198   0.444  0.8559 -1.4824  1.7981
 9757TIP3   OH250685   1.088   2.956   1.875  0.3763  0.0649 -0.1811
 9757TIP3    H150686   1.079   3.007   1.956  0.1059 -1.5677  0.8516
 9757TIP3    H250687   1.182   2.942   1.866  0.3649 -0.2500  0.1756
 9758TIP3   OH250688   3.499   0.883   2.141 -0.1569  0.3586  0.1939
 9758TIP3    H150689   3.572   0.837   2.184 -0.6536 -0.5395  0.1069
 9758TIP3    H250690   3.532   0.903   2.053  0.3414  0.8752  0.4928
 9759TIP3   OH250691   2.019   6.113  12.711  0.3190  0.1094  0.6953
 9759TIP3    H150692   1.990   6.149  12.627  0.9395  1.7068  1.1298
 9759TIP3    H250693   2.089   6.172  12.740  2.4041 -2.2352  0.8186
 9760TIP3   OH250694   4.862   4.789   1.714 -0.4436  0.3399 -0.3650
 9760TIP3    H150695   4.817   4.865   1.752  2.0760  1.8251 -0.1825
 9760TIP3    H250696   4.953   4.816   1.706  0.5381 -2.6469 -0.4287
 9761TIP3   OH250697   0.721   5.402  13.782  0.3122 -0.5859  0.3275
 9761TIP3    H150698   0.746   5.320  13.738  0.6963  0.4162 -1.3985
 9761TIP3    H250699   0.625   5.399  13.784  0.1497  0.0970 -2.2558
 9762TIP3   OH250700   4.696   4.119  12.352  0.3105 -0.2352 -0.0764
 9762TIP3    H150701   4.625   4.172  12.388  0.4156 -0.7872  1.0163
 9762TIP3    H250702   4.738   4.080  12.430  1.1298 -0.7655 -0.7624
 9763TIP3   OH250703   1.279   6.212   0.906 -0.3302 -0.4450 -0.1512
 9763TIP3    H150704   1.253   6.303   0.894  0.3597 -0.0612  1.0583
 9763TIP3    H250705   1.209   6.161   0.865 -2.1287  0.5650  1.5105
 9764TIP3   OH250706   3.608   2.579   2.650  0.3735 -0.2773  0.1497
 9764TIP3    H150707   3.579   2.570   2.741  1.9838 -1.8435  0.5596
 9764TIP3    H250708   3.545   2.526   2.601  0.3114 -0.5703  0.5359
 9765TIP3   OH250709   3.997   4.390  14.103  0.0683 -0.2313 -0.2195
 9765TIP3    H150710   4.051   4.320  14.139 -1.0330 -0.0931  1.8564
 9765TIP3    H250711   4.057   4.444  14.052  1.3095 -1.5670 -0.2275
 9766TIP3   OH250712   0.012   2.030  16.076 -0.0136  0.9572 -0.3404
 9766TIP3    H150713   0.018   2.114  16.030 -0.5975  0.9516 -0.4361
 9766TIP3    H250714  -0.074   2.032  16.119  0.5635  0.9936  0.8341
 9767TIP3   OH250715   6.479   4.060  16.880  0.3637 -0.1324  0.7848
 9767TIP3    H150716   6.390   4.080  16.851  1.3193  2.1707 -0.7852
 9767TIP3    H250717   6.494   4.118  16.955  1.0214  0.5964  0.1065
 9768TIP3   OH250718   0.129   3.076  11.700 -0.0585  0.3166 -0.6970
 9768TIP3    H150719   0.143   3.065  11.794 -1.2130  0.2689 -0.5100
 9768TIP3    H250720   0.070   3.151  11.693 -0.9177 -0.3915 -1.2965
 9769TIP3   OH250721   6.687   6.488  11.334 -0.4591 -0.1274 -0.2130
 9769TIP3    H150722   6.615   6.463  11.392 -0.9974 -1.5216 -1.4334
 9769TIP3    H250723   6.766   6.465  11.382 -0.8399  0.3925  0.6865
 9770TIP3   OH250724   6.041   1.718  13.006  0.8128 -0.0386  0.6682
 9770TIP3    H150725   5.994   1.769  13.072  0.8952 -0.5085  1.1047
 9770TIP3    H250726   6.081   1.647  13.056  1.3426 -0.0859  0.1901
 9771TIP3   OH250727   0.018   5.677  16.278 -0.4509 -0.2933 -0.5020
 9771TIP3    H150728   0.057   5.674  16.365 -0.7566 -1.2014 -0.3819
 9771TIP3    H250729   0.061   5.750  16.234 -0.6960  0.5143  0.5900
 9772TIP3   OH250730   1.954   0.280   1.741  0.1320 -0.2256  0.3806
 9772TIP3    H150731   1.882   0.317   1.690  0.7547  0.4184 -0.0385
 9772TIP3    H250732   1.962   0.190   1.709 -0.0909 -0.1138  0.0055
 9773TIP3   OH250733   5.086   3.587   1.790 -0.3332  0.0399  0.0345
 9773TIP3    H150734   5.142   3.661   1.815  0.5578 -0.7640  0.4594
 9773TIP3    H250735   5.032   3.571   1.868 -0.1758 -0.0754  0.1203
 9774TIP3   OH250736   2.612   3.466  14.725  0.2046  0.2289  0.2936
 9774TIP3    H150737   2.555   3.389  14.726  0.0785  0.3209  0.2915
 9774TIP3    H250738   2.672   3.453  14.798 -0.6985  0.7900  1.1552
 9775TIP3   OH250739   1.218   3.235   2.480  0.0144  0.3679  0.1943
 9775TIP3    H150740   1.139   3.225   2.533  0.0608 -0.1903  0.1676
 9775TIP3    H250741   1.288   3.250   2.544  0.0698 -0.3012  0.2953
 9776TIP3   OH250742   2.839   3.466   0.892  0.0965  0.0358 -0.2141
 9776TIP3    H150743   2.867   3.452   0.801 -0.0173 -0.4912 -0.1681
 9776TIP3    H250744   2.752   3.506   0.885  0.0496 -0.0895 -0.3316
 9777TIP3   OH250745   4.092   2.411  12.875 -0.1731 -0.1507  0.6402
 9777TIP3    H150746   4.116   2.319  12.865 -0.4551 -0.3571  1.7687
 9777TIP3    H250747   4.148   2.443  12.946  0.2506  0.6814 -0.0516
 9778TIP3   OH250748   3.347   1.066  15.901  0.5970 -0.0794  0.0666
 9778TIP3    H150749   3.390   1.027  15.826 -0.1003  0.4953 -0.6442
 9778TIP3    H250750   3.358   1.161  15.889 -2.5141  0.2334 -1.2256
 9779TIP3   OH250751   1.332   6.138  11.795  0.5203  0.3388 -0.1874
 9779TIP3    H150752   1.339   6.090  11.712  0.6432  0.4720 -0.2568
 9779TIP3    H250753   1.334   6.230  11.769 -0.7052  0.3913 -0.1322
 9780TIP3   OH250754   2.929   5.890   0.387  0.4943  0.3899 -0.1713
 9780TIP3    H150755   2.844   5.933   0.376  0.8217  0.6666 -1.8347
 9780TIP3    H250756   2.992   5.952   0.351  1.5791  0.6636  2.0084
 9781TIP3   OH250757   1.148   6.540  14.236  0.4095 -0.0829 -0.4361
 9781TIP3    H150758   1.066   6.563  14.192  0.7397 -1.0343 -1.6133
 9781TIP3    H250759   1.125   6.465  14.291  0.3502  0.0896 -0.2220
 9782TIP3   OH250760   3.151   4.655   5.420 -0.2377  0.0858 -0.1686
 9782TIP3    H150761   3.097   4.582   5.450  0.6902 -0.5598  0.0008
 9782TIP3    H250762   3.208   4.616   5.353  1.5891  0.1528  1.2490
 9783TIP3   OH250763   6.256   1.426  16.065  0.6172 -0.5924 -0.6809
 9783TIP3    H150764   6.345   1.427  16.028  0.4858  0.4708 -1.0048
 9783TIP3    H250765   6.211   1.499  16.021 -0.4096 -1.0952 -0.4934
 9784TIP3   OH250766   3.261   4.659  12.319  0.1306  0.1911  0.5778
 9784TIP3    H150767   3.283   4.567  12.337  2.9523  0.6886  0.1169
 9784TIP3    H250768   3.272   4.669  12.225  0.2132  1.0938  0.6755
 9785TIP3   OH250769   4.665   1.390   5.655  0.1225  0.4831  0.7595
 9785TIP3    H150770   4.650   1.405   5.749  1.9502  3.0173  0.7417
 9785TIP3    H250771   4.735   1.325   5.652 -0.0581  0.2655  1.1484
 9786TIP3   OH250772   5.660   0.686  17.215  0.5590  0.2393  0.0005
 9786TIP3    H150773   5.654   0.781  17.228  0.1780  0.2395 -0.1558
 9786TIP3    H250774   5.593   0.650  17.273  1.0398  0.0310  0.4308
 9787TIP3   OH250775   4.923   1.582  13.766 -0.5264  0.1301  0.1142
 9787TIP3    H150776   4.930   1.677  13.757  2.7655  0.0712  0.7996
 9787TIP3    H250777   4.893   1.569  13.856 -2.4686  0.4689 -0.4416
 9788TIP3   OH250778   0.815   0.246  10.996 -0.5129 -0.7857 -0.1850
 9788TIP3    H150779   0.783   0.294  10.920 -0.1243 -2.2935 -1.3334
 9788TIP3    H250780   0.839   0.315  11.059  0.1340  0.5384 -1.8111
 9789TIP3   OH250781   0.405   0.934   0.928 -0.2057 -0.1356 -0.2219
 9789TIP3    H150782   0.370   0.845   0.922  0.9551 -0.7869  1.7978
 9789TIP3    H250783   0.483   0.932   0.872 -0.2684 -0.3274 -0.3050
 9790TIP3   OH250784   3.986   2.281   4.493 -0.6681  0.4512  0.0739
 9790TIP3    H150785   3.966   2.346   4.424  0.1399  2.3325  1.5146
 9790TIP3    H250786   4.031   2.210   4.446 -0.4378  1.5106 -1.4082
 9791TIP3   OH250787   3.231   4.927   2.648  0.0165  0.2183  0.2024
 9791TIP3    H150788   3.236   4.907   2.554  0.5002 -1.0055  0.4699
 9791TIP3    H250789   3.279   5.009   2.657 -0.4842  0.6179 -0.6979
 9792TIP3   OH250790   4.635   6.374  15.106  0.1911 -0.1083 -0.2193
 9792TIP3    H150791   4.604   6.349  15.019  1.8561 -0.0938 -0.8521
 9792TIP3    H250792   4.704   6.310  15.126 -0.9575 -0.8654  1.6419
 9793TIP3   OH250793   5.603   0.300  16.419  0.2937 -0.6516  0.7689
 9793TIP3    H150794   5.551   0.314  16.340 -0.5042  0.4002  1.4493
 9793TIP3    H250795   5.539   0.302  16.490  1.3169  1.5580  1.7072
 9794TIP3   OH250796   1.651   6.299   1.947 -0.1024 -0.3156  0.1799
 9794TIP3    H150797   1.593   6.306   2.024 -0.1059 -0.3823  0.1831
 9794TIP3    H250798   1.730   6.257   1.981  0.5395  1.1101  0.5000
 9795TIP3   OH250799   4.358   1.944  11.579  0.3348  0.5871  0.2831
 9795TIP3    H150800   4.388   2.019  11.631 -0.1093  1.0348 -0.0939
 9795TIP3    H250801   4.262   1.950  11.581  0.3157  1.3309 -1.5937
 9796TIP3   OH250802   2.623   5.641  17.123 -0.1360 -0.1791  0.4405
 9796TIP3    H150803   2.668   5.621  17.205  0.1959  0.3275  0.3842
 9796TIP3    H250804   2.560   5.709  17.147  0.9782  1.0475 -0.0026
 9797TIP3   OH250805   2.853   3.432   2.106  0.0415  0.4885  0.5206
 9797TIP3    H150806   2.850   3.436   2.202 -0.0869  3.2561  0.4807
 9797TIP3    H250807   2.879   3.520   2.079  0.5585 -0.3504 -2.0019
 9798TIP3   OH250808   4.706   0.775   6.328  0.0092 -0.2993  0.2409
 9798TIP3    H150809   4.613   0.766   6.347 -0.1984 -0.1611 -0.6688
 9798TIP3    H250810   4.742   0.687   6.337  0.0488 -0.1576  1.8118
 9799TIP3   OH250811   6.408   6.679   5.026  0.5261 -0.7283 -0.4268
 9799TIP3    H150812   6.424   6.761   4.979 -0.0193 -1.4286 -1.9182
 9799TIP3    H250813   6.314   6.662   5.013  0.1422 -0.5283  1.6984
 9800TIP3   OH250814   6.199   2.341  12.183 -0.3359 -0.2738 -0.0828
 9800TIP3    H150815   6.196   2.368  12.091 -1.3401 -1.6676 -0.5032
 9800TIP3    H250816   6.117   2.372  12.220 -0.1986 -0.2288  0.1817
 9801TIP3   OH250817   5.222   6.522  15.756  0.0030  0.0394  0.2059
 9801TIP3    H150818   5.277   6.582  15.707 -1.5860  1.2694 -0.1672
 9801TIP3    H250819   5.161   6.579  15.803 -0.7863 -1.2453  0.7964
 9802TIP3   OH250820   2.118   5.898  14.484  0.0467  0.2320  0.2440
 9802TIP3    H150821   2.088   5.969  14.428 -0.1708  0.7634  1.0224
 9802TIP3    H250822   2.038   5.862  14.523  0.2362  0.2632  0.6712
 9803TIP3   OH250823   5.133   6.301  11.156  0.1314 -0.3899  0.0571
 9803TIP3    H150824   5.228   6.306  11.146 -0.0669 -0.1574 -1.9757
 9803TIP3    H250825   5.104   6.391  11.151 -0.2460 -0.4883  0.4006
 9804TIP3   OH250826   0.956   2.418  14.180  0.2252  0.1734  0.8574
 9804TIP3    H150827   1.051   2.423  14.180  0.3828 -1.8614  1.5778
 9804TIP3    H250828   0.927   2.502  14.144  2.2829  0.5922  0.0682
 9805TIP3   OH250829   3.786   1.822  13.743  0.7043 -0.7666 -0.2457
 9805TIP3    H150830   3.705   1.788  13.780  0.8352 -0.2982  0.4899
 9805TIP3    H250831   3.778   1.917  13.751  1.0750 -0.6941 -0.7044
 9806TIP3   OH250832   0.406   6.003   1.315 -0.3803 -0.0305  0.4195
 9806TIP3    H150833   0.501   6.009   1.305 -0.2145 -1.7945  0.5991
 9806TIP3    H250834   0.370   6.060   1.247  0.8005  0.0414 -0.1567
 9807TIP3   OH250835   0.581   4.896  16.876  0.1752 -0.4355 -0.1424
 9807TIP3    H150836   0.518   4.901  16.948 -1.3472  1.7289 -1.4804
 9807TIP3    H250837   0.526   4.894  16.797  1.8037 -0.9125 -1.3037
 9808TIP3   OH250838   0.367   5.210  14.264 -0.0876 -0.5427 -0.0863
 9808TIP3    H150839   0.422   5.139  14.298  2.4049  1.2897 -0.0027
 9808TIP3    H250840   0.420   5.289  14.276 -1.9836  1.1101 -1.8432
 9809TIP3   OH250841   0.696   4.517  16.487 -0.1774  0.3396 -0.3053
 9809TIP3    H150842   0.627   4.537  16.423 -2.0426 -1.0112  1.1851
 9809TIP3    H250843   0.771   4.491  16.433 -0.1186  3.5075 -2.0570
 9810TIP3   OH250844   5.255   3.371   2.308  0.3401  0.4105  0.0798
 9810TIP3    H150845   5.342   3.363   2.268  0.1496  0.1950 -0.2934
 9810TIP3    H250846   5.261   3.318   2.388  0.5254  0.3311  0.0152
 9811TIP3   OH250847   3.190   5.940  12.267 -0.0406  0.0887 -0.0912
 9811TIP3    H150848   3.165   6.026  12.301 -0.1928  0.4042 -0.9874
 9811TIP3    H250849   3.276   5.953  12.228  1.3338 -0.8565  2.4253
 9812TIP3   OH250850   3.137   4.711  13.235  0.1135 -0.2835  0.5528
 9812TIP3    H150851   3.111   4.622  13.211 -0.7952  0.1037  0.0282
 9812TIP3    H250852   3.058   4.763  13.219 -0.1755  0.2166  3.2536
 9813TIP3   OH250853   5.197   5.239  13.773  0.3184  0.5175 -0.6433
 9813TIP3    H150854   5.134   5.245  13.701 -0.8042 -0.5938  0.1942
 9813TIP3    H250855   5.206   5.329  13.805 -1.1623  0.6557 -0.5425
 9814TIP3   OH250856   2.048   1.876  12.680 -0.2900  0.3115 -0.1989
 9814TIP3    H150857   2.084   1.960  12.653  1.3805 -0.4754 -0.5566
 9814TIP3    H250858   1.978   1.859  12.616 -0.3529  1.2186 -0.3875
 9815TIP3   OH250859   3.508   3.558  13.654 -0.2516  0.3935  0.2358
 9815TIP3    H150860   3.489   3.465  13.643 -1.6407  0.6969 -0.1177
 9815TIP3    H250861   3.429   3.594  13.695 -0.5850  1.7732 -1.4740
 9816TIP3   OH250862   1.315   6.218   5.391 -0.5790 -0.0450  0.0753
 9816TIP3    H150863   1.266   6.204   5.311 -1.8100 -1.7598  1.0630
 9816TIP3    H250864   1.324   6.313   5.398 -1.1674  0.1625 -1.6362
 9817TIP3   OH250865   5.980   5.978  13.326  0.1269  0.3614 -1.0663
 9817TIP3    H150866   6.056   6.021  13.287  1.8422  0.5142  2.0482
 9817TIP3    H250867   5.912   6.045  13.327  1.6195  1.9857  0.4903
 9818TIP3   OH250868   1.251   4.313   5.110 -0.2559 -0.4686  0.2942
 9818TIP3    H150869   1.257   4.284   5.201  1.9630 -0.0494  0.3437
 9818TIP3    H250870   1.252   4.232   5.059 -2.3042 -0.7403  0.6258
 9819TIP3   OH250871   0.160   0.830  14.994  0.0322  0.0187  0.5217
 9819TIP3    H150872   0.225   0.896  14.972  0.0947 -0.3953 -0.5859
 9819TIP3    H250873   0.081   0.880  15.014 -0.0254  0.4332 -0.6621
 9820TIP3   OH250874   1.023   6.269  11.118  0.5230 -0.3351 -0.2934
 9820TIP3    H150875   0.937   6.298  11.147 -1.4298 -1.3838 -4.3940
 9820TIP3    H250876   1.028   6.177  11.143  0.2480 -0.3915 -0.4492
 9821TIP3   OH250877   6.024   3.030   3.648 -0.4953 -0.3347  0.3824
 9821TIP3    H150878   6.076   2.995   3.720  0.5732  1.2234  0.4208
 9821TIP3    H250879   5.939   2.986   3.655  0.9246 -3.4086 -0.0088
 9822TIP3   OH250880   2.162   4.927   4.024 -0.0511 -0.2776 -0.0917
 9822TIP3    H150881   2.116   4.864   4.079 -1.0117  1.7367  1.5629
 9822TIP3    H250882   2.255   4.910   4.041 -0.3166  0.0871  2.0047
 9823TIP3   OH250883   4.569   6.102  15.396 -0.0735  0.8958 -0.1376
 9823TIP3    H150884   4.627   6.146  15.458 -0.0312  0.7402 -0.0673
 9823TIP3    H250885   4.609   6.016  15.382 -1.4973 -0.1358  1.7083
 9824TIP3   OH250886   6.496   6.350  16.587  0.5073 -0.4108 -0.0215
 9824TIP3    H150887   6.472   6.441  16.575  2.1075  0.0238 -0.2007
 9824TIP3    H250888   6.438   6.301  16.528 -0.8008  0.3962  0.5524
 9825TIP3   OH250889   1.989   3.995   0.658 -0.3302  0.0834  0.2700
 9825TIP3    H150890   1.910   3.971   0.706  0.3395  0.5459  1.6502
 9825TIP3    H250891   2.059   3.948   0.702  0.4524  1.4035  0.4904
 9826TIP3   OH250892   1.058   0.695  11.820 -0.7096 -0.0363 -0.7657
 9826TIP3    H150893   1.099   0.752  11.884 -1.4649 -0.9742  0.5936
 9826TIP3    H250894   1.114   0.701  11.743  0.2596  1.0502 -0.0046
 9827TIP3   OH250895   6.339   5.330   1.073 -0.1738 -0.2904 -0.0330
 9827TIP3    H150896   6.316   5.419   1.048  0.9194  0.1573  0.5296
 9827TIP3    H250897   6.312   5.323   1.165  0.4015 -0.2967  0.1402
 9828TIP3   OH250898   1.465   2.552  13.944 -0.0354  0.0347  0.1948
 9828TIP3    H150899   1.479   2.635  13.899 -1.0718  1.2995  2.0633
 9828TIP3    H250900   1.521   2.557  14.022 -2.3905  0.4142  1.9768
 9829TIP3   OH250901   5.335   4.027  13.234 -0.2448 -0.5467 -0.3061
 9829TIP3    H150902   5.292   3.942  13.222 -0.1332 -0.5445 -0.7294
 9829TIP3    H250903   5.428   4.008  13.223 -0.2056 -0.3976 -0.2312
 9830TIP3   OH250904   4.518   4.848  16.287 -0.0364  0.0140 -0.2784
 9830TIP3    H150905   4.578   4.915  16.254 -0.4755  1.9544  2.4968
 9830TIP3    H250906   4.431   4.885  16.273 -0.4054 -0.9510 -0.5831
 9831TIP3   OH250907   1.186   3.352  16.676  0.2266 -0.1510 -0.0590
 9831TIP3    H150908   1.212   3.284  16.613 -0.6662  1.5369 -2.4118
 9831TIP3    H250909   1.101   3.324  16.708  1.2282 -1.6480  1.4335
 9832TIP3   OH250910   2.116   6.518   3.181  0.2761  0.0002  0.1067
 9832TIP3    H150911   2.176   6.591   3.170  2.4406 -1.7337 -0.3344
 9832TIP3    H250912   2.030   6.558   3.188  1.2262  2.5106 -1.3230
 9833TIP3   OH250913   1.972   2.694  11.123 -0.4465  0.8464 -0.0752
 9833TIP3    H150914   1.988   2.765  11.061 -0.2036 -0.0176 -1.0456
 9833TIP3    H250915   1.992   2.614  11.073  0.4103  0.1461  1.3208
 9834TIP3   OH250916   4.900   2.158   5.159  0.0642  0.5207  0.4493
 9834TIP3    H150917   4.982   2.180   5.114 -1.6781  2.0271 -2.3108
 9834TIP3    H250918   4.900   2.062   5.162  1.3730  0.4544 -0.6464
 9835TIP3   OH250919   3.470   6.031   0.903  0.0168  0.2132  0.3093
 9835TIP3    H150920   3.493   6.028   0.996  0.8625  0.9518  0.1421
 9835TIP3    H250921   3.393   6.089   0.900  0.5337  0.9293  0.4675
 9836TIP3   OH250922   3.951   2.435  16.463 -0.3384  0.3527 -0.0389
 9836TIP3    H150923   4.016   2.472  16.523  0.1446  0.0238 -0.3590
 9836TIP3    H250924   3.869   2.439  16.512 -0.1252  0.9897  0.2811
 9837TIP3   OH250925   5.403   5.171  10.532  0.0314  0.0625  0.2859
 9837TIP3    H150926   5.434   5.183  10.442 -0.5869 -1.7010 -0.2091
 9837TIP3    H250927   5.481   5.147  10.581 -0.1727 -3.2620 -0.7269
 9838TIP3   OH250928   4.532   4.444  15.620  0.3783 -0.0255  0.2708
 9838TIP3    H150929   4.555   4.504  15.549  1.4892  1.1324  1.5580
 9838TIP3    H250930   4.610   4.438  15.674 -0.6716 -0.2330  1.8489
 9839TIP3   OH250931   4.320   5.575   1.175 -0.0323 -1.0845  0.4008
 9839TIP3    H150932   4.226   5.580   1.159 -0.1075 -3.4357 -0.3496
 9839TIP3    H250933   4.360   5.599   1.091 -0.0000 -0.9605  0.4521
 9840TIP3   OH250934   2.750   1.487  10.916  0.0986 -0.4909  0.3650
 9840TIP3    H150935   2.671   1.443  10.886 -0.2664 -1.3355  2.3915
 9840TIP3    H250936   2.806   1.492  10.839 -1.2382 -1.4227 -0.7124
 9841TIP3   OH250937   3.129   3.267   3.283 -0.1238  0.2046  0.5077
 9841TIP3    H150938   3.100   3.218   3.206  0.3735  1.4213 -0.4829
 9841TIP3    H250939   3.191   3.208   3.327 -0.4213 -0.5043 -0.0012
 9842TIP3   OH250940   1.857   3.223  12.287  0.1798 -0.0402 -0.6802
 9842TIP3    H150941   1.789   3.279  12.325  1.4670  1.8938 -1.0506
 9842TIP3    H250942   1.854   3.143  12.338  0.0124  1.4035  1.7094
 9843TIP3   OH250943   0.980   2.367   2.811 -0.0445 -0.2822  0.4643
 9843TIP3    H150944   1.057   2.320   2.777  0.4557 -0.0138  1.2076
 9843TIP3    H250945   0.950   2.313   2.883 -1.7900 -1.4482 -1.0463
 9844TIP3   OH250946   5.161   5.522  10.778  0.1365  0.1108 -0.2778
 9844TIP3    H150947   5.110   5.565  10.710 -0.7776  0.0537  0.3469
 9844TIP3    H250948   5.202   5.595  10.827  1.1246  0.1388 -1.1057
 9845TIP3   OH250949   3.325   2.014  11.833 -0.0023 -0.3418  0.1708
 9845TIP3    H150950   3.387   2.060  11.890  1.2852 -0.7332 -0.8511
 9845TIP3    H250951   3.265   2.082  11.803 -1.6457 -0.3576  3.0711
 9846TIP3   OH250952   3.087   1.518  12.352 -0.4241 -0.2168 -0.5956
 9846TIP3    H150953   3.090   1.449  12.419 -1.9188  1.3458  1.1883
 9846TIP3    H250954   3.074   1.599  12.401  0.7981  1.3388 -2.6559
 9847TIP3   OH250955   0.811   4.415  13.562 -0.0957  0.0309 -0.0737
 9847TIP3    H150956   0.836   4.363  13.486 -0.4386 -1.5956  0.8666
 9847TIP3    H250957   0.721   4.388  13.581 -0.3681  1.1562  0.3188
 9848TIP3   OH250958   0.182   0.063   3.956  0.0581  0.8864 -0.0225
 9848TIP3    H150959   0.200   0.137   4.015 -2.4981  2.0540 -0.5772
 9848TIP3    H250960   0.254   0.064   3.893 -0.2110  3.3734 -0.3849
 9849TIP3   OH250961   4.931   3.301   2.893 -0.1333  0.5054 -0.2158
 9849TIP3    H150962   4.840   3.286   2.868  0.1664 -0.1929 -0.9343
 9849TIP3    H250963   4.940   3.396   2.896 -0.7176  0.5869 -0.7875
 9850TIP3   OH250964   6.138   5.412   2.319 -0.0494  0.0037 -0.2791
 9850TIP3    H150965   6.185   5.422   2.236 -0.0033  0.9997 -0.1401
 9850TIP3    H250966   6.204   5.380   2.381  0.6000  1.8612  0.0392
 9851TIP3   OH250967   3.732   5.433   4.803 -0.2530  0.0389  0.4237
 9851TIP3    H150968   3.800   5.496   4.779 -0.4450 -0.2937 -1.0789
 9851TIP3    H250969   3.777   5.349   4.810 -0.2551  0.0782  0.9374
 9852TIP3   OH250970   1.125   4.193   1.306  0.3263  0.0229 -0.2223
 9852TIP3    H150971   1.064   4.127   1.340  1.1999  0.1184  1.6531
 9852TIP3    H250972   1.102   4.273   1.353 -0.2691  0.9158 -1.9824
 9853TIP3   OH250973   2.510   2.569  11.215  0.5386 -0.2292  0.0935
 9853TIP3    H150974   2.512   2.563  11.311  2.1771  0.0653  0.1069
 9853TIP3    H250975   2.456   2.646  11.197 -0.4108 -0.7194  0.7383
 9854TIP3   OH250976   4.661   4.752   6.202 -0.0185 -0.4086  0.1605
 9854TIP3    H150977   4.585   4.803   6.171 -1.4637 -1.9215  1.0332
 9854TIP3    H250978   4.648   4.747   6.297  0.8497 -1.2252  0.2434
 9855TIP3   OH250979   6.674   4.585  13.787 -0.0346  0.5967  0.0282
 9855TIP3    H150980   6.608   4.567  13.855 -0.7860  0.7145 -0.6513
 9855TIP3    H250981   6.757   4.588  13.834 -0.2594 -1.4252  0.6612
 9856TIP3   OH250982   0.009   6.518  13.527 -0.3192 -0.2878  0.0012
 9856TIP3    H150983  -0.044   6.483  13.455 -0.0460 -0.1915 -0.2473
 9856TIP3    H250984   0.014   6.612  13.509  1.1225 -0.4869 -0.7599
 9857TIP3   OH250985   1.654   2.847   5.301  0.0814  0.2671  0.0559
 9857TIP3    H150986   1.699   2.855   5.385  0.3511  1.5647 -0.1924
 9857TIP3    H250987   1.576   2.902   5.310  0.3543  0.7856 -0.7020
 9858TIP3   OH250988   4.108   5.324  12.340 -0.3120  0.3768 -0.0665
 9858TIP3    H150989   4.185   5.350  12.289  0.9198 -0.7701  1.1537
 9858TIP3    H250990   4.114   5.375  12.420 -0.2818 -0.4124  0.4458
 9859TIP3   OH250991   5.201   3.248  16.054 -0.5744  0.0112 -0.0147
 9859TIP3    H150992   5.251   3.194  16.115  0.5583  1.0000 -0.0292
 9859TIP3    H250993   5.159   3.185  15.995  0.0472 -0.8810  0.4801
 9860TIP3   OH250994   5.725   2.548  12.064  0.6022 -0.0156 -0.2885
 9860TIP3    H150995   5.777   2.470  12.046  0.8225  0.1878 -0.5444
 9860TIP3    H250996   5.725   2.555  12.159  3.8220  1.7999 -0.2910
 9861TIP3   OH250997   5.948   4.379  17.195  0.2922  0.1957 -0.1110
 9861TIP3    H150998   5.917   4.358  17.106  0.1164 -0.3259  0.0701
 9861TIP3    H250999   5.987   4.298  17.226  1.3591  0.6980 -0.1244
 9862TIP3   OH251000   0.033   2.258  13.566  0.0246 -0.0777 -0.1012
 9862TIP3    H151001  -0.044   2.210  13.595  0.9726 -1.7614 -0.2380
 9862TIP3    H251002   0.009   2.293  13.480 -0.4292 -0.9780 -0.3442
 9863TIP3   OH251003   5.331   5.430  13.241 -0.0304  0.9153  0.2592
 9863TIP3    H151004   5.269   5.471  13.301  0.9827  1.4718  0.9609
 9863TIP3    H251005   5.292   5.441  13.154 -0.8072  1.4356  0.6716
 9864TIP3   OH251006   5.144   2.253  13.671 -0.0253 -0.5407 -0.7402
 9864TIP3    H151007   5.191   2.237  13.752 -0.9922 -1.0887 -0.2647
 9864TIP3    H251008   5.204   2.305  13.618  0.5750 -0.0676  0.3691
 9865TIP3   OH251009   3.570   6.142   4.143 -0.0692 -0.2365 -0.0493
 9865TIP3    H151010   3.567   6.149   4.238 -0.4656  1.5403 -0.1588
 9865TIP3    H251011   3.600   6.228   4.113  0.4689 -0.8922 -1.5198
 9866TIP3   OH251012   3.846   5.907   2.780 -0.3301  0.5386 -0.3431
 9866TIP3    H151013   3.801   5.984   2.815  0.0149  0.7147 -0.2743
 9866TIP3    H251014   3.934   5.913   2.817 -0.6824 -0.6119  0.7556
 9867TIP3   OH251015   2.752   2.138   2.849  0.1300 -0.0227 -0.3390
 9867TIP3    H151016   2.660   2.128   2.871  0.5316 -0.5644  1.2135
 9867TIP3    H251017   2.755   2.127   2.754 -1.4203  0.2311 -0.4428
 9868TIP3   OH251018   1.121   3.826   4.158 -0.4762  0.2478 -0.3137
 9868TIP3    H151019   1.039   3.801   4.115 -0.1910  0.7776 -1.1971
 9868TIP3    H251020   1.168   3.877   4.092  0.4069  0.2642  0.3087
 9869TIP3   OH251021   4.626   6.660   1.560 -0.1254  0.5103 -0.5825
 9869TIP3    H151022   4.676   6.738   1.584  0.2501  0.0524  0.1533
 9869TIP3    H251023   4.657   6.638   1.472 -0.6480  1.5114 -1.0360
 9870TIP3   OH251024   5.674   3.619   5.744  0.3492 -0.6882 -0.1250
 9870TIP3    H151025   5.715   3.542   5.705  0.7495  0.1188 -1.3920
 9870TIP3    H251026   5.667   3.681   5.671 -3.1497 -0.7617 -0.0111
 9871TIP3   OH251027   6.354   5.123   2.183  0.4354 -0.2231  0.5560
 9871TIP3    H151028   6.350   5.215   2.207  0.9101  0.0247 -0.2819
 9871TIP3    H251029   6.420   5.086   2.241 -0.9952 -0.4401  2.1087
 9872TIP3   OH251030   6.606   3.046  16.848 -0.0103  0.3159  0.4989
 9872TIP3    H151031   6.559   2.964  16.831 -1.4100  1.4753 -1.7402
 9872TIP3    H251032   6.698   3.026  16.833 -0.6287  0.0669 -5.1118
 9873TIP3   OH251033   3.825   6.275  11.638 -0.2614  0.3838 -0.6244
 9873TIP3    H151034   3.870   6.341  11.690 -0.5235 -0.0812  0.2187
 9873TIP3    H251035   3.776   6.224  11.702  0.9536 -1.4414 -1.0656
 9874TIP3   OH251036   1.290   5.477  15.358 -0.2831 -0.0482 -0.5831
 9874TIP3    H151037   1.194   5.484  15.357 -0.3177 -0.0144  0.7999
 9874TIP3    H251038   1.312   5.437  15.274 -1.5141 -0.0709 -0.9128
 9875TIP3   OH251039   4.766   5.031   1.825 -0.2298 -0.4729  0.3454
 9875TIP3    H151040   4.778   5.077   1.908  1.1837  0.6172 -0.4090
 9875TIP3    H251041   4.685   5.065   1.789 -0.0656  0.1923  0.5881
 9876TIP3   OH251042   2.634   2.459   2.131  0.1830 -0.0047 -0.0584
 9876TIP3    H151043   2.562   2.438   2.071 -0.1811  0.0126  0.3615
 9876TIP3    H251044   2.679   2.533   2.090 -0.1130  0.0573 -0.2730
 9877TIP3   OH251045   5.299   0.997  15.629 -0.0151  0.1274  0.7433
 9877TIP3    H151046   5.374   0.938  15.638  0.2533  0.4516  0.6504
 9877TIP3    H251047   5.328   1.064  15.568 -0.6118 -0.1066  0.1936
 9878TIP3   OH251048   2.177   5.567   1.481  0.2628  0.3718  0.9774
 9878TIP3    H151049   2.215   5.601   1.400  0.4233  1.4035  1.4718
 9878TIP3    H251050   2.208   5.626   1.549 -2.0317  1.1387  1.4328
 9879TIP3   OH251051   0.785   1.932   2.582 -0.4781 -0.7200 -0.3026
 9879TIP3    H151052   0.750   1.990   2.514 -0.4983 -1.3780 -0.8620
 9879TIP3    H251053   0.879   1.948   2.581 -0.5312 -0.3865 -0.1578
 9880TIP3   OH251054   0.932   0.961  13.154  0.4204 -0.4081  0.2486
 9880TIP3    H151055   0.870   1.031  13.176 -1.7407 -2.1933  0.1138
 9880TIP3    H251056   0.978   0.994  13.076 -1.8253  0.1473 -0.9094
 9881TIP3   OH251057   1.936   3.676  11.251  0.5612  0.5200 -0.0215
 9881TIP3    H151058   1.986   3.601  11.220  1.6307  1.4514 -0.6645
 9881TIP3    H251059   1.907   3.720  11.171 -0.5537  0.4749  0.3436
 9882TIP3   OH251060   5.434   3.455  13.235 -0.2266  0.5722  0.1345
 9882TIP3    H151061   5.493   3.496  13.172  0.8365  0.6489  1.1321
 9882TIP3    H251062   5.484   3.381  13.269 -0.8409  0.4375  0.7549
 9883TIP3   OH251063   6.549   3.576  10.954 -0.0716 -0.0578 -0.7784
 9883TIP3    H151064   6.642   3.583  10.972 -0.2172 -0.2796  0.0771
 9883TIP3    H251065   6.532   3.645  10.890  0.8318 -0.5409 -1.5766
 9884TIP3   OH251066   0.351   3.807  11.100  1.0427  0.6085 -0.9346
 9884TIP3    H151067   0.405   3.844  11.169  0.6136  2.0713 -1.3543
 9884TIP3    H251068   0.317   3.883  11.053  1.9512 -0.3368 -3.2576
 9885TIP3   OH251069   2.746   6.238   4.052  0.1261 -0.6145 -0.6450
 9885TIP3    H151070   2.796   6.304   4.005  0.6279 -1.3846 -1.2212
 9885TIP3    H251071   2.811   6.173   4.080 -0.4957 -1.4537 -1.0975
 9886TIP3   OH251072   4.830   5.235  13.244  0.1613 -0.3346 -0.0639
 9886TIP3    H151073   4.792   5.155  13.208 -1.2345 -0.8012  2.2528
 9886TIP3    H251074   4.876   5.206  13.323  1.3872  0.8994 -0.2867
 9887TIP3   OH251075   5.155   3.762  17.151  0.0228  0.4771  0.5606
 9887TIP3    H151076   5.221   3.717  17.203  0.5595  1.4912  0.7815
 9887TIP3    H251077   5.143   3.706  17.074  0.7361  0.0121  0.7773
 9888TIP3   OH251078   0.133   2.623  13.253 -0.0172 -0.0426  0.1078
 9888TIP3    H151079   0.163   2.713  13.263 -0.0015 -0.0455  0.0870
 9888TIP3    H251080   0.074   2.625  13.178 -1.8824  0.4045  1.5267
 9889TIP3   OH251081   6.556   1.330  12.026  0.6351 -0.2712  0.2738
 9889TIP3    H151082   6.533   1.333  11.933 -1.0654 -0.4947  0.6570
 9889TIP3    H251083   6.643   1.370  12.031  1.0820 -0.9462 -1.5037
 9890TIP3   OH251084   5.814   2.704  11.554  0.0377  0.2496 -0.3364
 9890TIP3    H151085   5.767   2.649  11.616 -0.6319  2.7659  1.5335
 9890TIP3    H251086   5.882   2.647  11.519 -1.4942 -2.1672  0.3262
 9891TIP3   OH251087   1.718   0.033  13.454  0.0069 -0.2310 -0.1462
 9891TIP3    H151088   1.761   0.063  13.373  0.3749  0.7611  0.3997
 9891TIP3    H251089   1.626   0.024  13.430  0.1885 -0.4146 -0.7988
 9892TIP3   OH251090   2.874   6.184  14.074 -0.5788 -0.6070  0.0187
 9892TIP3    H151091   2.966   6.210  14.067  0.4197 -3.7952 -0.3534
 9892TIP3    H251092   2.833   6.219  13.995  1.1814 -2.0148 -1.6244
 9893TIP3   OH251093   6.184   4.520  14.385  0.3243 -0.3891 -0.4561
 9893TIP3    H151094   6.142   4.599  14.421  1.5353 -0.3899  1.0763
 9893TIP3    H251095   6.239   4.487  14.456  1.4916 -1.4234 -1.7591
 9894TIP3   OH251096   4.719   3.742  16.448  0.4288 -0.8327 -0.0663
 9894TIP3    H151097   4.695   3.833  16.427  0.1892 -0.9358 -0.2449
 9894TIP3    H251098   4.805   3.749  16.491 -0.2518 -0.3937  1.2699
 9895TIP3   OH251099   2.621   3.317   3.636 -0.2549  0.2077 -0.6135
 9895TIP3    H151100   2.695   3.375   3.653 -0.4462  0.4077 -0.4678
 9895TIP3    H251101   2.626   3.250   3.704 -1.1842  1.1629  0.4208
 9896TIP3   OH251102   2.310   3.367   2.358 -0.1142  0.4809 -0.0223
 9896TIP3    H151103   2.261   3.294   2.394 -0.0869 -0.3653 -1.6361
 9896TIP3    H251104   2.243   3.432   2.334 -0.3763 -0.1959 -1.1678
 9897TIP3   OH251105   3.416   5.309  11.059  0.1486 -0.0429 -0.7512
 9897TIP3    H151106   3.445   5.230  11.014  0.5135 -0.4570  0.1833
 9897TIP3    H251107   3.493   5.339  11.108 -0.6312 -0.5110  0.8427
 9898TIP3   OH251108   2.669   0.911  14.775  0.0802 -0.1124 -0.1864
 9898TIP3    H151109   2.620   0.835  14.806  0.9043  0.1189  1.8053
 9898TIP3    H251110   2.674   0.970  14.850  1.8714  0.6552 -0.8298
 9899TIP3   OH251111   6.034   5.016   6.284  0.1483  0.5847  0.2654
 9899TIP3    H151112   6.040   5.025   6.379 -1.5819  2.2574  0.2775
 9899TIP3    H251113   5.947   4.979   6.269  0.0234  1.2230 -0.6750
 9900TIP3   OH251114   1.921   4.014  13.659  0.1929  0.2452  0.2819
 9900TIP3    H151115   1.889   3.933  13.697  2.1568 -0.4616  0.5138
 9900TIP3    H251116   1.867   4.027  13.580  0.1727 -1.5342 -0.0247
 9901TIP3   OH251117   5.415   1.908  14.391  0.1740 -0.3620  0.2442
 9901TIP3    H151118   5.443   1.830  14.438  1.8649 -0.4137 -0.7466
 9901TIP3    H251119   5.497   1.954  14.371 -0.5754  0.2951 -1.5184
 9902TIP3   OH251120   2.461   5.005  13.595 -0.3158 -0.1875  0.1880
 9902TIP3    H151121   2.447   5.083  13.649  0.4805 -0.1506  0.3685
 9902TIP3    H251122   2.505   5.038  13.517  0.1255 -0.4555  0.3144
 9903TIP3   OH251123   0.253   6.614  15.885  0.3704 -1.1518 -0.3303
 9903TIP3    H151124   0.218   6.627  15.797 -0.0537 -0.1127 -0.0247
 9903TIP3    H251125   0.283   6.700  15.912 -0.6349 -1.1818  1.0088
 9904TIP3   OH251126   1.989   6.137  14.418  0.4594  0.3423 -0.4557
 9904TIP3    H151127   1.917   6.124  14.479 -0.0081 -2.3300 -1.4249
 9904TIP3    H251128   1.969   6.219  14.374 -1.1997  0.4000  0.3408
 9905TIP3   OH251129   2.509   6.384   5.717 -0.6742 -0.4016  0.1570
 9905TIP3    H151130   2.495   6.293   5.745 -0.7179  0.0102  1.5791
 9905TIP3    H251131   2.546   6.377   5.629  0.7731 -1.8652  0.8254
 9906TIP3   OH251132   4.542   6.036  10.774 -0.4200  0.0250  0.0931
 9906TIP3    H151133   4.522   6.129  10.762  0.4522  0.1959 -0.1057
 9906TIP3    H251134   4.503   5.993  10.698 -2.1508  0.0069  0.9415
 9907TIP3   OH251135   1.127   3.875   0.487 -0.1817  0.4617 -0.2432
 9907TIP3    H151136   1.221   3.856   0.490 -0.3596 -0.3995  1.5281
 9907TIP3    H251137   1.098   3.839   0.403  0.6454 -1.6203  0.3033
 9908TIP3   OH251138   5.595   6.272  15.699  0.0939  0.5862  0.1270
 9908TIP3    H151139   5.671   6.233  15.657  0.6730 -0.0222  1.6574
 9908TIP3    H251140   5.629   6.313  15.778 -1.0558  1.0015  0.4313
 9909TIP3   OH251141   4.402   4.388   3.288 -0.2973  0.4290  0.4234
 9909TIP3    H151142   4.376   4.297   3.274 -2.2214  1.3333 -2.9510
 9909TIP3    H251143   4.496   4.389   3.269 -0.4388 -0.7185 -0.4422
 9910TIP3   OH251144   3.918   1.696   5.895  0.5721 -0.1641 -0.4164
 9910TIP3    H151145   3.825   1.711   5.884  0.9101  1.1340 -1.7518
 9910TIP3    H251146   3.957   1.718   5.811  2.1945  0.2661  0.4004
 9911TIP3   OH251147   1.060   5.741  14.739 -0.4369 -0.2632 -0.1006
 9911TIP3    H151148   0.997   5.758  14.669 -1.0013  1.0519  0.6754
 9911TIP3    H251149   1.053   5.648  14.757 -1.7368 -0.2425 -0.4405
 9912TIP3   OH251150   5.970   0.064  14.018  0.0706 -0.7720  0.1172
 9912TIP3    H151151   5.889   0.104  13.987  0.5400  1.0505  1.0936
 9912TIP3    H251152   6.021   0.047  13.939 -0.2686  0.3324 -0.3584
 9913TIP3   OH251153   6.162   0.847   2.425  0.0864  0.1682 -0.2830
 9913TIP3    H151154   6.218   0.873   2.499 -1.1230 -2.0997  1.5673
 9913TIP3    H251155   6.137   0.930   2.384  1.4249  1.4790  1.3736
 9914TIP3   OH251156   3.834   5.660  14.607  0.7677 -0.0955  0.0284
 9914TIP3    H151157   3.859   5.575  14.643  0.7452 -0.1835 -0.1641
 9914TIP3    H251158   3.916   5.708  14.597  0.8925 -0.4935 -0.8820
 9915TIP3   OH251159   6.693   4.720  14.086  0.1618 -0.5313  0.3277
 9915TIP3    H151160   6.760   4.673  14.036 -0.9814  0.1281 -1.9526
 9915TIP3    H251161   6.666   4.792  14.029 -2.2524 -0.5844  1.2849
 9916TIP3   OH251162   3.006   1.109   2.178 -0.6152  0.6442 -0.4126
 9916TIP3    H151163   3.061   1.182   2.204 -0.7561  0.4882  0.3545
 9916TIP3    H251164   2.920   1.129   2.216 -1.2383  1.1271 -1.9918
 9917TIP3   OH251165   5.335   3.424   1.663  0.1540  0.4175  0.4906
 9917TIP3    H151166   5.352   3.506   1.708  0.5215  0.2528  0.6536
 9917TIP3    H251167   5.266   3.382   1.715 -1.5595  1.5466 -0.7363
 9918TIP3   OH251168   3.085   5.056  10.721  0.1745  0.0940  0.5119
 9918TIP3    H151169   3.036   5.116  10.663  0.0885  1.3425  1.8128
 9918TIP3    H251170   3.035   4.975  10.718 -0.4085  0.4628 -0.3507
 9919TIP3   OH251171   1.706   3.914  12.584  0.2960 -0.4951  0.4570
 9919TIP3    H151172   1.678   3.850  12.649  0.4467 -0.3122  0.7037
 9919TIP3    H251173   1.673   3.880  12.501  0.2557 -0.8194  0.6053
 9920TIP3   OH251174   3.359   5.415   0.847 -0.1780 -0.1191  0.0208
 9920TIP3    H151175   3.265   5.423   0.864 -0.3035  2.0220 -1.2905
 9920TIP3    H251176   3.382   5.496   0.803  1.9290 -1.3898 -1.3910
 9921TIP3   OH251177   1.111   4.877  14.556 -0.2715 -0.2936  0.0631
 9921TIP3    H151178   1.143   4.860  14.467 -3.1302 -0.3433 -1.0411
 9921TIP3    H251179   1.055   4.802  14.576  0.4658 -0.3625  2.0182
 9922TIP3   OH251180   5.699   0.959   3.544 -0.1845 -0.3871  0.2188
 9922TIP3    H151181   5.686   1.047   3.507 -1.6678 -1.1516 -1.2416
 9922TIP3    H251182   5.630   0.906   3.503 -0.1508 -1.9579  2.0526
 9923TIP3   OH251183   4.867   4.466  13.256  0.3948 -0.3720  0.2836
 9923TIP3    H151184   4.928   4.456  13.329 -0.1924 -0.8458  0.7115
 9923TIP3    H251185   4.878   4.557  13.228  2.2974 -0.8008 -0.5382
 9924TIP3   OH251186   5.788   5.802  12.391  0.0046 -0.6751 -0.3868
 9924TIP3    H151187   5.797   5.761  12.305 -1.6393  0.2795 -1.0641
 9924TIP3    H251188   5.695   5.824  12.398 -0.1660 -1.9094  2.2212
 9925TIP3   OH251189   4.984   4.603  14.267  0.0279  0.6017 -0.7985
 9925TIP3    H151190   5.017   4.526  14.220  0.4810  0.2982 -0.0047
 9925TIP3    H251191   4.941   4.567  14.345 -1.0094  1.0798 -1.1348
 9926TIP3   OH251192   5.924   0.196   2.678  0.3478 -0.2599 -0.4431
 9926TIP3    H151193   5.948   0.243   2.598 -0.5049  0.2625 -0.4013
 9926TIP3    H251194   5.953   0.106   2.662 -1.1321 -0.5119 -1.9709
 9927TIP3   OH251195   3.125   6.527  13.658 -0.0471 -0.6003 -0.8205
 9927TIP3    H151196   3.101   6.434  13.668 -1.3501 -0.2582 -0.6128
 9927TIP3    H251197   3.127   6.541  13.564 -0.4239 -0.7071 -0.8474
 9928TIP3   OH251198   6.064   3.395  12.151  0.3196 -0.0185 -0.0906
 9928TIP3    H151199   6.040   3.442  12.072  0.5942  0.9616  0.3981
 9928TIP3    H251200   6.115   3.458  12.202  1.2760 -1.0525  0.2734
 9929TIP3   OH251201   3.060   6.568  11.729  0.2169 -0.3375 -0.1014
 9929TIP3    H151202   3.097   6.576  11.816  0.1060 -1.1395  0.0256
 9929TIP3    H251203   3.054   6.474  11.713  1.4670 -0.2270 -1.5020
 9930TIP3   OH251204   5.088   6.477  16.770  0.2706 -0.3606 -0.0192
 9930TIP3    H151205   5.001   6.516  16.765  0.4460 -0.0922 -1.4740
 9930TIP3    H251206   5.101   6.438  16.683  1.2152 -1.2378  0.4977
 9931TIP3   OH251207   4.783   1.401   2.393  0.3364  0.1264  0.0981
 9931TIP3    H151208   4.857   1.343   2.410 -0.1399 -0.1499  1.2910
 9931TIP3    H251209   4.721   1.347   2.344 -0.6612 -0.8283  2.2934
 9932TIP3   OH251210   5.326   5.228   1.729  0.3835  0.4761 -0.0020
 9932TIP3    H151211   5.378   5.212   1.807  0.0172 -2.8567 -0.3185
 9932TIP3    H251212   5.390   5.242   1.659  0.7097  2.2073  0.5878
 9933TIP3   OH251213   4.225   4.948   3.705 -0.3877  0.7916  0.2969
 9933TIP3    H151214   4.261   4.996   3.780  0.2634 -1.5850  1.6326
 9933TIP3    H251215   4.297   4.944   3.642  0.4837 -0.5717  1.2995
 9934TIP3   OH251216   2.300   6.170   5.724  0.1840  0.2734  0.4221
 9934TIP3    H151217   2.277   6.258   5.756  0.4904  0.6231 -0.3045
 9934TIP3    H251218   2.380   6.147   5.773  1.6773  1.5442 -1.2714
 9935TIP3   OH251219   1.407   3.722   2.286 -0.1077 -0.2975 -0.8316
 9935TIP3    H151220   1.401   3.689   2.196  2.0042 -0.6040 -0.9082
 9935TIP3    H251221   1.379   3.648   2.340 -0.6952 -0.3516 -1.1975
 9936TIP3   OH251222   4.063   6.601  15.305 -0.1849  0.2781 -0.3785
 9936TIP3    H151223   4.112   6.678  15.336  1.2266 -0.3467 -0.9527
 9936TIP3    H251224   4.080   6.598  15.211  0.1735 -1.0012 -0.2908
 9937TIP3   OH251225   1.971   3.077   3.998  0.5565  0.5465 -0.1276
 9937TIP3    H151226   1.924   2.996   3.977 -0.5045  0.9016  0.8116
 9937TIP3    H251227   1.997   3.112   3.912  1.1350 -0.8282 -0.5467
 9938TIP3   OH251228   2.399   6.247   1.454 -0.4202 -0.0164 -0.2773
 9938TIP3    H151229   2.430   6.176   1.397 -2.0001 -1.9654  1.1334
 9938TIP3    H251230   2.375   6.317   1.394  0.8582 -0.7795 -1.7740
 9939TIP3   OH251231   3.019   3.147   4.964  0.0154 -0.0760 -0.5535
 9939TIP3    H151232   3.063   3.087   5.024 -1.5826 -2.0178 -1.2405
 9939TIP3    H251233   3.036   3.111   4.877  2.6195  2.9064 -1.4688
 9940TIP3   OH251234   1.312   5.523  14.391  0.6850  0.2723 -0.2572
 9940TIP3    H151235   1.227   5.517  14.436  0.9166  0.0790  0.1583
 9940TIP3    H251236   1.369   5.465  14.441  0.2337 -2.2718 -2.4769
 9941TIP3   OH251237   3.589   5.861  12.867 -0.1979 -0.3815  0.6520
 9941TIP3    H151238   3.659   5.924  12.852  1.2547 -1.5950  1.9810
 9941TIP3    H251239   3.514   5.896  12.818  1.5385  0.5606 -1.4761
 9942TIP3   OH251240   1.264   0.435  13.451  0.4242  0.4146 -0.0253
 9942TIP3    H151241   1.245   0.427  13.357 -2.8399 -0.0853  0.5670
 9942TIP3    H251242   1.319   0.513  13.457  1.5848 -0.1233 -2.4203
 9943TIP3   OH251243   6.253   0.607  11.855 -0.5038  0.5970  0.2945
 9943TIP3    H151244   6.159   0.618  11.839 -0.7076 -0.3458  0.7433
 9943TIP3    H251245   6.265   0.630  11.947 -0.1368  1.5524  0.0163
 9944TIP3   OH251246   0.252   0.724   4.430  0.3604  0.1495  0.3279
 9944TIP3    H151247   0.293   0.797   4.383  0.0602  0.5694  0.7111
 9944TIP3    H251248   0.195   0.766   4.494 -1.1848 -0.4281 -0.6336
 9945TIP3   OH251249   0.911   1.383   1.523 -0.0749 -0.0730  0.6153
 9945TIP3    H151250   0.892   1.463   1.474  0.9012  0.0705  0.4441
 9945TIP3    H251251   0.882   1.312   1.466  1.0532  0.0903 -0.2009
 9946TIP3   OH251252   2.431   4.366   0.080 -0.0836  0.2066 -0.0572
 9946TIP3    H151253   2.515   4.391   0.042 -0.1805 -0.0765 -0.4640
 9946TIP3    H251254   2.381   4.447   0.084  0.2375  0.3900  0.2576
 9947TIP3   OH251255   5.578   0.941   1.597  0.8545 -0.7617 -0.1546
 9947TIP3    H151256   5.636   0.917   1.669  0.0906 -3.5948 -0.3714
 9947TIP3    H251257   5.490   0.930   1.632  0.4286  0.7736 -0.6611
 9948TIP3   OH251258   1.257   5.077  12.558 -0.0295 -0.2327 -0.4905
 9948TIP3    H151259   1.227   5.137  12.627  1.0571 -0.2638  0.0391
 9948TIP3    H251260   1.191   5.009  12.556 -0.5316  0.2259 -0.0782
 9949TIP3   OH251261   2.107   4.569   3.724  0.1184 -0.1027  0.1593
 9949TIP3    H151262   2.171   4.568   3.653 -0.9371  0.8874 -0.8519
 9949TIP3    H251263   2.055   4.647   3.708 -1.4916 -0.9930  0.8014
 9950TIP3   OH251264   3.681   1.582  16.311 -0.1709 -0.7023  0.0700
 9950TIP3    H151265   3.641   1.562  16.225  0.0887 -1.3773  0.0977
 9950TIP3    H251266   3.612   1.560  16.374 -0.1298 -0.8523  0.0643
 9951TIP3   OH251267   6.143   2.212   1.166 -0.1278 -0.4971 -0.0238
 9951TIP3    H151268   6.138   2.182   1.076 -0.7951 -0.8620  0.1247
 9951TIP3    H251269   6.089   2.291   1.169 -0.7241 -0.9020  0.2095
 9952TIP3   OH251270   1.553   0.886  12.296 -0.3427 -0.2181 -0.6615
 9952TIP3    H151271   1.627   0.866  12.352 -1.0133 -0.1140  0.2835
 9952TIP3    H251272   1.579   0.855  12.209 -0.0904 -2.2583  0.0988
 9953TIP3   OH251273   5.387   3.300   5.571  0.4461  0.0707  0.2413
 9953TIP3    H151274   5.342   3.219   5.594 -1.2627  0.9349  0.0998
 9953TIP3    H251275   5.367   3.314   5.479  1.5616  0.1552 -0.0032
 9954TIP3   OH251276   2.357   2.211  11.151  0.1836 -0.2265  0.3353
 9954TIP3    H151277   2.281   2.183  11.100 -1.5677  2.0980  1.5025
 9954TIP3    H251278   2.381   2.134  11.202 -0.9661 -1.1969 -0.5160
 9955TIP3   OH251279   1.115   1.828   0.227  0.0525 -0.3479 -0.1969
 9955TIP3    H151280   1.199   1.782   0.228  0.2411 -0.0111  0.2324
 9955TIP3    H251281   1.087   1.828   0.319 -0.2058 -0.0818 -0.2750
 9956TIP3   OH251282   1.346   3.163   2.863  0.0603  0.1299  0.4535
 9956TIP3    H151283   1.409   3.134   2.928 -0.0427 -2.2096 -0.4143
 9956TIP3    H251284   1.279   3.095   2.861  1.0811 -1.0240 -3.4473
 9957TIP3   OH251285   6.709   3.277   5.331  0.1533 -0.4449  0.0529
 9957TIP3    H151286   6.764   3.326   5.270  0.2090  0.5672  0.8824
 9957TIP3    H251287   6.760   3.273   5.412 -0.4634 -0.5917  0.4428
 9958TIP3   OH251288   4.795   2.313  16.555 -0.4960 -0.4990  0.2391
 9958TIP3    H151289   4.847   2.359  16.620 -2.1483  0.5072  0.9275
 9958TIP3    H251290   4.768   2.232  16.597  0.2537 -0.8805 -0.0104
 9959TIP3   OH251291   0.925   2.889  10.333 -0.6509  0.4337  0.3928
 9959TIP3    H151292   0.944   2.972  10.375 -1.2111  0.2386  1.0350
 9959TIP3    H251293   0.854   2.851  10.384 -0.3337 -0.4889  0.1700
 9960TIP3   OH251294   2.221   6.305  11.975  0.2030  0.0032 -0.6158
 9960TIP3    H151295   2.176   6.224  12.001  0.3937  0.2382  0.5022
 9960TIP3    H251296   2.304   6.276  11.939 -0.1675 -0.3478 -1.2063
 9961TIP3   OH251297   4.635   0.935   3.106  0.5305  0.5450 -0.1763
 9961TIP3    H151298   4.582   0.984   3.043 -0.6616  1.3452  1.3712
 9961TIP3    H251299   4.712   0.907   3.056 -0.0977  1.5865 -1.8251
 9962TIP3   OH251300   3.779   3.921   1.904 -0.0422 -0.4111  0.3691
 9962TIP3    H151301   3.776   3.840   1.853  2.2525 -0.9074  0.8827
 9962TIP3    H251302   3.764   3.894   1.994 -0.0039 -0.1502  0.4557
 9963TIP3   OH251303   6.009   4.392  12.126  0.9704  0.0653  0.7258
 9963TIP3    H151304   5.948   4.324  12.098  1.4251  0.2619 -0.8482
 9963TIP3    H251305   5.962   4.474  12.115  1.1000  0.1367  0.6959
 9964TIP3   OH251306   0.135   1.819  16.694  0.1257 -0.2531 -0.1202
 9964TIP3    H151307   0.218   1.836  16.651  0.1738 -0.3561 -0.0669
 9964TIP3    H251308   0.118   1.898  16.746  0.1920 -0.2347 -0.1267
 9965TIP3   OH251309   5.980   1.201  16.659  0.2210  0.1583 -0.0777
 9965TIP3    H151310   5.920   1.224  16.588  1.6013 -0.6057 -1.5538
 9965TIP3    H251311   5.996   1.107  16.649  0.2100 -0.0342  1.4476
 9966TIP3   OH251312   6.146   4.902   1.564 -0.1186 -0.3024  0.5111
 9966TIP3    H151313   6.230   4.857   1.552 -0.0065 -0.1237  0.6246
 9966TIP3    H251314   6.168   4.985   1.607 -0.4727 -0.7946  1.6952
 9967TIP3   OH251315   5.673   6.559   3.548  0.4548 -0.7252  0.2337
 9967TIP3    H151316   5.610   6.547   3.619  1.1610 -1.3117  0.7808
 9967TIP3    H251317   5.716   6.642   3.569 -0.4760 -0.0541 -0.4279
 9968TIP3   OH251318   4.932   6.076   4.594  0.0567 -0.4903  0.0447
 9968TIP3    H151319   4.959   5.987   4.572 -1.0855 -0.9393  0.3804
 9968TIP3    H251320   4.843   6.066   4.628 -0.2636  0.8366 -0.3532
 9969TIP3   OH251321   2.159   4.535   5.132 -0.1995 -0.6817  0.0838
 9969TIP3    H151322   2.200   4.532   5.046  0.6670  0.4005  0.4249
 9969TIP3    H251323   2.194   4.458   5.177 -0.0599 -0.8399 -0.2914
 9970TIP3   OH251324   4.062   1.044  10.947  0.1377 -0.0169 -0.2856
 9970TIP3    H151325   4.080   1.003  10.863 -1.8581  0.1594 -0.8577
 9970TIP3    H251326   3.988   1.103  10.930  0.2685  0.7160  1.3980
 9971TIP3   OH251327   0.821   3.180   2.228 -0.4959  0.4857 -0.2154
 9971TIP3    H151328   0.808   3.094   2.268  1.9939  0.5755  0.9390
 9971TIP3    H251329   0.908   3.176   2.189 -1.0501  1.9253 -1.7365
 9972TIP3   OH251330   1.630   2.421   5.380  0.1432 -0.2064  0.4400
 9972TIP3    H151331   1.539   2.430   5.408 -0.3054 -0.3058 -0.9183
 9972TIP3    H251332   1.648   2.327   5.386 -1.0343 -0.7367 -2.6667
 9973TIP3   OH251333   4.980   2.630  15.360  0.4769  0.3537  0.0694
 9973TIP3    H151334   5.010   2.716  15.389  2.1805  0.9938 -3.1846
 9973TIP3    H251335   5.059   2.575  15.364  0.2117 -0.1316 -1.0732
 9974TIP3   OH251336   0.539   4.360   3.480  0.4089  0.2398  0.4672
 9974TIP3    H151337   0.459   4.324   3.518 -0.6350  2.6350  0.7535
 9974TIP3    H251338   0.597   4.285   3.470 -1.3526 -1.3607  1.5651
 9975TIP3   OH251339   6.092   2.725   2.674  0.6193 -0.3582  0.3629
 9975TIP3    H151340   6.168   2.737   2.617  0.6913 -0.2103  0.4903
 9975TIP3    H251341   6.048   2.810   2.674  0.6636 -0.3350  0.5927
 9976TIP3   OH251342   3.565   2.159   5.853 -0.3431 -0.1030  0.0584
 9976TIP3    H151343   3.576   2.132   5.762  0.0721 -1.2656  0.4405
 9976TIP3    H251344   3.470   2.164   5.865 -0.4569 -1.9556  0.1171
 9977TIP3   OH251345   3.023   3.110  15.912  0.1879 -0.1179  0.3775
 9977TIP3    H151346   3.074   3.117  15.993 -0.4354  0.5298  0.7303
 9977TIP3    H251347   2.959   3.041  15.931 -0.0315  0.1125  0.4847
 9978TIP3   OH251348   0.850   3.558  17.044 -0.6162  0.7417  0.0213
 9978TIP3    H151349   0.897   3.555  16.960  1.5114  1.1544  1.1159
 9978TIP3    H251350   0.816   3.648  17.049  0.2526  1.0767  0.0878
 9979TIP3   OH251351   6.266   0.272  11.881 -0.1806  0.3700  0.2364
 9979TIP3    H151352   6.221   0.333  11.940  0.0039 -1.8223  2.8130
 9979TIP3    H251353   6.359   0.291  11.895 -0.1513  0.9222 -0.6256
 9980TIP3   OH251354   0.510   0.200  13.978 -0.1827  0.2176 -0.0172
 9980TIP3    H151355   0.564   0.233  14.049 -1.3429  0.2753  0.8706
 9980TIP3    H251356   0.534   0.107  13.971 -0.1362  0.1860  0.5198
 9981TIP3   OH251357   2.207   4.246  12.751 -0.6674 -0.1204 -0.1531
 9981TIP3    H151358   2.233   4.304  12.678 -3.2749  0.2654 -0.8704
 9981TIP3    H251359   2.203   4.159  12.711  0.9486 -0.4589  0.3521
 9982TIP3   OH251360   6.570   2.555  16.797  0.0238  0.3772  0.1960
 9982TIP3    H151361   6.659   2.576  16.827 -0.1999 -0.9512  1.9198
 9982TIP3    H251362   6.567   2.459  16.796 -1.6384  0.3902  0.9438
 9983TIP3   OH251363   0.851   4.477   2.428 -0.5546  0.6177 -0.1676
 9983TIP3    H151364   0.849   4.573   2.421  0.5706  0.6917  0.3341
 9983TIP3    H251365   0.942   4.457   2.450 -0.7989 -0.5680 -0.2043
 9984TIP3   OH251366   2.690   6.074   2.596 -0.4276 -0.1488  0.2450
 9984TIP3    H151367   2.733   6.062   2.681  0.7248 -2.0490 -0.5591
 9984TIP3    H251368   2.759   6.101   2.537 -0.6003 -1.6170 -0.6922
 9985TIP3   OH251369   6.393   0.689   3.015 -0.1025  0.4727 -0.2890
 9985TIP3    H151370   6.399   0.781   2.992 -0.1367  0.0407 -2.2404
 9985TIP3    H251371   6.300   0.667   3.004  0.1452 -0.1223 -1.3334
 9986TIP3   OH251372   2.026   5.731   3.060  0.2237 -0.0965 -0.0389
 9986TIP3    H151373   1.966   5.671   3.104 -0.8903  0.8555 -0.2014
 9986TIP3    H251374   2.016   5.711   2.967  1.0673 -0.7336 -0.0080
 9987TIP3   OH251375   1.654   3.525  13.772 -0.1382  0.1236  0.3091
 9987TIP3    H151376   1.642   3.535  13.677  1.8008  2.5367  0.2313
 9987TIP3    H251377   1.585   3.579  13.811  0.2333  0.6760  0.2125
 9988TIP3   OH251378   5.176   6.685  15.394 -0.1204 -0.6645 -0.0158
 9988TIP3    H151379   5.203   6.613  15.338 -0.2989 -0.5383 -0.2664
 9988TIP3    H251380   5.174   6.647  15.482 -2.6915 -1.7179 -0.4123
 9989TIP3   OH251381   4.472   4.786   4.204 -0.0548  0.1106  0.2501
 9989TIP3    H151382   4.459   4.737   4.285 -0.5864 -0.0449  0.0701
 9989TIP3    H251383   4.565   4.807   4.204 -0.0226 -0.0176  0.8297
 9990TIP3   OH251384   1.989   1.735   0.716 -0.3357  0.4014  0.1123
 9990TIP3    H151385   1.989   1.804   0.782 -1.7335 -1.6313  2.3700
 9990TIP3    H251386   1.905   1.744   0.671  0.2808  1.2866 -0.9133
 9991TIP3   OH251387   2.729   2.160   0.821 -0.0641 -0.3062  0.0044
 9991TIP3    H151388   2.741   2.245   0.862  0.0661 -1.0150  1.4880
 9991TIP3    H251389   2.640   2.163   0.785 -0.5010  0.0501  1.0704
 9992TIP3   OH251390   3.459   5.227  11.873 -0.5068 -0.2693  0.3280
 9992TIP3    H151391   3.512   5.222  11.794  1.6949  0.5229  1.6512
 9992TIP3    H251392   3.371   5.204  11.845  0.3300 -0.6804 -2.1925
 9993TIP3   OH251393   5.857   1.685  13.261 -0.3808 -0.0484  0.4733
 9993TIP3    H151394   5.936   1.631  13.262  0.2792  0.8416 -0.7710
 9993TIP3    H251395   5.846   1.713  13.352 -1.4514 -3.1969  1.4365
 9994TIP3   OH251396   0.695   3.690  13.282  0.0163 -0.0660  0.1206
 9994TIP3    H151397   0.615   3.668  13.329 -1.4129  1.2174 -1.5597
 9994TIP3    H251398   0.723   3.607  13.242 -1.2800 -0.2558 -0.4187
 9995TIP3   OH251399   3.519   1.382   2.226  0.2029 -0.2798  0.4107
 9995TIP3    H151400   3.477   1.304   2.191 -0.4945  1.1228 -2.0731
 9995TIP3    H251401   3.452   1.424   2.280 -0.3970  0.0335 -0.5527
 9996TIP3   OH251402   5.980   1.437   2.863 -0.1856 -0.2809  0.2224
 9996TIP3    H151403   6.032   1.517   2.851  0.7918 -0.9298 -0.0001
 9996TIP3    H251404   6.005   1.405   2.949 -0.3844 -0.4752  0.2066
 9997TIP3   OH251405   2.176   5.638   3.661  0.5636 -0.6479 -0.3602
 9997TIP3    H151406   2.245   5.664   3.599  1.2781  1.2128  1.1218
 9997TIP3    H251407   2.213   5.563   3.708  1.8184  0.6070  0.7301
 9998TIP3   OH251408   1.694   3.858   1.566 -0.2759  0.8609 -0.3792
 9998TIP3    H151409   1.654   3.916   1.502  0.1308  2.1803  0.5097
 9998TIP3    H251410   1.711   3.914   1.642  0.1327 -0.4293  0.5242
 9999TIP3   OH251411   4.492   0.757   3.480 -0.0494  0.4846 -0.0451
 9999TIP3    H151412   4.396   0.760   3.481 -0.1563 -0.2588 -2.1171
 9999TIP3    H251413   4.513   0.664   3.483  0.5514  0.5899 -0.7625
10000TIP3   OH251414   6.655   5.897  12.056  0.6006 -0.8588 -0.3087
10000TIP3    H151415   6.700   5.918  12.138 -0.5496 -0.7188  0.3019
10000TIP3    H251416   6.591   5.830  12.079 -0.3054 -0.2259 -0.9142
10001TIP3   OH251417   6.701   6.078  14.483 -0.7771 -0.0982  0.0009
10001TIP3    H151418   6.663   6.159  14.516 -1.4661  0.0149 -1.0300
10001TIP3    H251419   6.789   6.075  14.522 -0.8169  1.0481  0.2037
10002TIP3   OH251420   0.815   0.401   1.583  0.6025 -0.0893 -0.4308
10002TIP3    H151421   0.879   0.415   1.653  0.4769  0.0983 -0.3518
10002TIP3    H251422   0.738   0.451   1.611  0.2599 -0.6736 -0.3052
10003TIP3   OH251423   5.186   4.884  12.898  0.7303 -0.4284  0.0552
10003TIP3    H151424   5.233   4.826  12.957  0.9841  0.3592  0.6478
10003TIP3    H251425   5.144   4.948  12.956 -1.4499 -1.3567 -0.4213
10004TIP3   OH251426   5.592   6.535   0.228 -0.1848  0.0071  0.2062
10004TIP3    H151427   5.656   6.532   0.157  0.9081 -1.4387  1.1967
10004TIP3    H251428   5.550   6.620   0.218  1.3500  0.6838 -0.9523
10005TIP3   OH251429   3.122   2.714  11.520 -0.2814  0.1009 -0.3931
10005TIP3    H151430   3.108   2.758  11.436  1.4798  1.1829 -0.1669
10005TIP3    H251431   3.216   2.700  11.524 -0.4889 -1.1228  0.8499
10006TIP3   OH251432   4.877   4.010   2.743  0.0732  0.1207 -1.2884
10006TIP3    H151433   4.934   3.941   2.775 -2.0272 -0.5778  1.2580
10006TIP3    H251434   4.803   3.964   2.704 -0.9175  0.9104 -0.3846
10007TIP3   OH251435   6.663   3.420  11.375  0.2001  0.2221  0.3870
10007TIP3    H151436   6.621   3.504  11.358 -2.8245 -1.2191  0.1950
10007TIP3    H251437   6.688   3.388  11.288  0.3262  0.4187  0.3504
10008TIP3   OH251438   6.748   0.348  15.066 -0.2271 -0.1347  0.1322
10008TIP3    H151439   6.786   0.435  15.082 -1.3377  0.3695  0.0908
10008TIP3    H251440   6.692   0.332  15.142  0.3956 -1.0847  0.4221
10009TIP3   OH251441   0.986   2.217  13.202 -0.0430 -0.2206  0.1443
10009TIP3    H151442   1.002   2.126  13.227  0.4775 -0.5505 -1.2927
10009TIP3    H251443   0.918   2.212  13.136  0.1581  0.4191 -0.1161
10010TIP3   OH251444   6.025   1.521   0.573  0.1373 -0.3363  0.3213
10010TIP3    H151445   6.021   1.426   0.580 -0.5215 -0.2439  1.3394
10010TIP3    H251446   6.113   1.539   0.540 -0.2433 -1.3638 -1.3856
10011TIP3   OH251447   2.354   6.627  13.565  0.6099 -0.3927 -0.1366
10011TIP3    H151448   2.321   6.634  13.475  2.7966  1.1056 -0.8970
10011TIP3    H251449   2.410   6.704  13.576  1.2502 -1.1146  2.1577
10012TIP3   OH251450   6.056   6.629  14.343 -0.1789 -0.5094  0.2923
10012TIP3    H151451   6.104   6.674  14.274  2.3912 -1.2566  1.4765
10012TIP3    H251452   6.087   6.538  14.339 -2.5177 -1.3833  0.2963
10013TIP3   OH251453   5.425   6.405   1.337 -0.0750  0.6024 -0.2916
10013TIP3    H151454   5.349   6.456   1.364  0.4942  0.6327  1.4086
10013TIP3    H251455   5.499   6.464   1.348  0.4091 -0.0516  0.1019
10014TIP3   OH251456   2.644   1.043   1.796 -0.1643 -0.2470 -0.1267
10014TIP3    H151457   2.560   1.080   1.822  0.2558 -0.3178  1.4239
10014TIP3    H251458   2.709   1.108   1.824  0.5652 -1.8720  2.2981
10015TIP3   OH251459   4.190   5.469  17.057  0.0104 -0.4568 -0.2588
10015TIP3    H151460   4.215   5.398  16.997 -0.4805 -1.1752  0.3571
10015TIP3    H251461   4.096   5.480  17.043 -0.5866 -2.1210  1.8412
10016TIP3   OH251462   6.256   1.063   4.962 -0.3085 -0.5960  0.3241
10016TIP3    H151463   6.258   1.102   4.875  2.3160 -0.8537  0.1826
10016TIP3    H251464   6.234   1.136   5.020 -1.5051 -0.2994 -0.4708
10017TIP3   OH251465   3.421   5.584   5.364 -0.2287  0.3423 -0.2942
10017TIP3    H151466   3.444   5.634   5.443  1.4027  1.1285 -1.2030
10017TIP3    H251467   3.337   5.544   5.385 -0.4739  1.5837  1.3575
10018TIP3   OH251468   4.564   3.581   4.477  0.0815  0.5336  0.0941
10018TIP3    H151469   4.619   3.534   4.415 -0.5928 -1.0942  0.6802
10018TIP3    H251470   4.483   3.599   4.430  0.2989  1.0322 -0.0961
10019TIP3   OH251471   2.308   2.369   2.080 -0.1605 -0.7489 -0.0430
10019TIP3    H151472   2.267   2.404   2.001  0.1641 -1.0729 -0.3601
10019TIP3    H251473   2.356   2.292   2.050  1.2304  0.0011  0.2060
10020TIP3   OH251474   3.705   3.354  14.814 -0.2329  0.3058 -0.1660
10020TIP3    H151475   3.717   3.315  14.727 -1.7384  2.0245 -1.2182
10020TIP3    H251476   3.701   3.448  14.797  1.6090  0.8839  2.0683
10021TIP3   OH251477   1.576   1.114  16.499 -0.1475  0.5435  0.2266
10021TIP3    H151478   1.626   1.073  16.569 -2.4046  0.6097  1.9794
10021TIP3    H251479   1.487   1.081  16.510 -0.4954 -0.0475 -3.1017
10022TIP3   OH251480   1.146   0.128   5.187 -0.3758 -0.2683 -0.5496
10022TIP3    H151481   1.188   0.048   5.221  1.8414  1.0705  0.1203
10022TIP3    H251482   1.098   0.099   5.110 -0.9547 -2.5000  0.5656
10023TIP3   OH251483   2.437   3.628  17.052  0.3753 -0.3366 -0.3038
10023TIP3    H151484   2.419   3.546  17.007 -0.7220 -0.8605  1.0173
10023TIP3    H251485   2.444   3.693  16.981 -0.7854 -1.2044 -1.2581
10024TIP3   OH251486   4.888   0.542  17.174  0.1008 -0.5062 -0.4086
10024TIP3    H151487   4.814   0.592  17.210  0.4782  0.3414 -0.7767
10024TIP3    H251488   4.931   0.505  17.251 -0.4394 -0.6247 -0.1584
10025TIP3   OH251489   2.327   6.020  15.786 -0.3257 -0.1799 -0.1796
10025TIP3    H151490   2.255   5.977  15.739 -0.2818 -1.0699  0.5468
10025TIP3    H251491   2.292   6.107  15.807 -1.5230 -0.8729  0.8679
10026TIP3   OH251492   5.825   5.614   4.240 -0.0845  0.3892  0.2802
10026TIP3    H151493   5.895   5.676   4.257 -1.4202  1.8096  0.8721
10026TIP3    H251494   5.762   5.662   4.186 -1.5421 -0.1522  1.4166
10027TIP3   OH251495   2.584   0.802   4.311 -0.1211  0.0180 -0.4756
10027TIP3    H151496   2.618   0.794   4.400  1.6782  1.0695 -1.0367
10027TIP3    H251497   2.613   0.722   4.267  2.6941  1.3590 -1.2415
10028TIP3   OH251498   1.562   6.331  12.004 -0.0054 -0.2040  0.3917
10028TIP3    H151499   1.555   6.419  11.967  2.3638  0.0363  0.3331
10028TIP3    H251500   1.565   6.273  11.928 -0.4671 -0.2419  0.3984
10029TIP3   OH251501   1.847   4.644  13.562 -0.2018 -0.2382 -0.4781
10029TIP3    H151502   1.774   4.703  13.542 -1.7104 -1.0454  2.2241
10029TIP3    H251503   1.879   4.674  13.647  2.2314 -0.3560 -1.2892
10030TIP3   OH251504   0.148   0.022   6.687  0.5450 -0.0191  0.2141
10030TIP3    H151505   0.207   0.083   6.732  0.9236  1.0945 -1.6532
10030TIP3    H251506   0.061   0.041   6.722  0.9001  0.3502  0.9165
10031TIP3   OH251507   4.106   1.979   5.691  0.1702 -0.1149 -0.2515
10031TIP3    H151508   4.047   2.030   5.747  3.4097 -1.2530  4.8235
10031TIP3    H251509   4.051   1.908   5.658 -2.5259  2.0172 -0.7561
10032TIP3   OH251510   0.934   4.504   4.817 -0.5325  0.0500  0.1565
10032TIP3    H151511   1.009   4.502   4.876  0.1666 -1.9947 -0.7287
10032TIP3    H251512   0.916   4.413   4.797 -0.4157  0.6410 -3.1521
10033TIP3   OH251513   5.385   4.714  16.499 -0.0785 -0.3945  0.1659
10033TIP3    H151514   5.480   4.713  16.483 -0.2374  0.5022 -0.9468
10033TIP3    H251515   5.377   4.751  16.587  0.5608  0.9551 -0.3072
10034TIP3   OH251516   6.428   3.847   0.504  0.3295  0.5813  0.7042
10034TIP3    H151517   6.441   3.794   0.583  0.1429 -2.3474 -1.0960
10034TIP3    H251518   6.333   3.843   0.489  0.4215  0.7082  0.0889
10035TIP3   OH251519   6.248   1.946   5.029  0.2524 -0.2368  0.0839
10035TIP3    H151520   6.181   1.888   5.065  1.1505 -1.2307  0.2062
10035TIP3    H251521   6.279   1.996   5.105  1.4576 -1.6345  0.5469
10036TIP3   OH251522   6.656   1.736  11.595 -0.4463  0.1448  0.2647
10036TIP3    H151523   6.599   1.680  11.542 -0.0853 -0.4675  0.5087
10036TIP3    H251524   6.659   1.819  11.548  0.5315 -0.6330 -1.1358
10037TIP3   OH251525   2.641   0.450  13.022 -0.7764  0.8729  0.2308
10037TIP3    H151526   2.559   0.417  12.987 -0.5361 -0.7548  1.1324
10037TIP3    H251527   2.633   0.440  13.117  0.4128  0.8041  0.3386
10038TIP3   OH251528   3.560   1.661   0.716 -0.0568  0.0056 -0.1235
10038TIP3    H151529   3.631   1.666   0.780  0.1959  1.2605 -0.4886
10038TIP3    H251530   3.480   1.666   0.768  0.1436  0.6835  0.1266
10039TIP3   OH251531   4.222   5.759   5.891  0.3544 -0.7948 -0.5000
10039TIP3    H151532   4.265   5.688   5.844  2.8014  1.9537 -2.8168
10039TIP3    H251533   4.181   5.812   5.823 -1.4018  0.0540  1.1264
10040TIP3   OH251534   3.308   3.213   0.526  0.1525  0.4553  0.1121
10040TIP3    H151535   3.349   3.140   0.479  0.9902  0.8328  0.2511
10040TIP3    H251536   3.342   3.291   0.483 -0.4043  0.7773  0.2505
10041TIP3   OH251537   2.203   1.582  13.606  0.3287 -0.6304  0.3993
10041TIP3    H151538   2.203   1.527  13.685 -0.7250 -0.1952  0.7268
10041TIP3    H251539   2.111   1.583  13.578  0.0103  2.1720  1.2862
10042TIP3   OH251540   3.553   1.333  17.352 -0.5606  0.1480 -0.1059
10042TIP3    H151541   3.637   1.348  17.309 -0.0312  0.4906  1.0031
10042TIP3    H251542   3.488   1.350  17.284  0.1829  2.4981 -0.3453
10043TIP3   OH251543   0.141   0.567  15.130 -0.1086 -0.5173  0.3147
10043TIP3    H151544   0.105   0.583  15.218 -0.5142 -1.5173  0.3405
10043TIP3    H251545   0.149   0.654  15.092 -1.5865 -0.1796  0.7004
10044TIP3   OH251546   6.060   2.665   1.651 -0.4768  0.1725 -0.5071
10044TIP3    H151547   6.031   2.722   1.723 -1.4618  0.1315 -0.8578
10044TIP3    H251548   6.154   2.657   1.664 -0.4203  1.3127 -0.0319
10045TIP3   OH251549   6.131   0.884   3.984 -0.3816  0.7499 -0.6369
10045TIP3    H151550   6.036   0.885   3.972 -0.4489 -1.1478 -0.6048
10045TIP3    H251551   6.167   0.900   3.896 -0.7446  0.3989 -0.8497
10046TIP3   OH251552   0.584   3.938  14.489 -0.1529 -0.0845 -0.0836
10046TIP3    H151553   0.608   3.845  14.485 -1.8991 -0.5493 -0.5753
10046TIP3    H251554   0.516   3.942  14.557 -0.2320  0.8081 -0.2045
10047TIP3   OH251555   2.318   1.910  12.305 -0.0148  0.6521  0.0602
10047TIP3    H151556   2.239   1.856  12.305  1.9478 -2.7143  3.0576
10047TIP3    H251557   2.315   1.958  12.222 -5.8345  2.0512  0.6652
10048TIP3   OH251558   1.868   6.622   3.102  1.0200 -0.5863  0.1472
10048TIP3    H151559   1.773   6.609   3.112  0.7451  1.7114  1.0342
10048TIP3    H251560   1.888   6.585   3.016 -0.7813 -0.6869 -0.2753
10049TIP3   OH251561   3.203   6.132  16.771  0.0829 -0.3672 -0.2177
10049TIP3    H151562   3.193   6.194  16.843  0.7047 -0.2681 -0.2174
10049TIP3    H251563   3.145   6.166  16.703 -0.7003 -0.5952  0.3137
10050TIP3   OH251564   5.807   0.304   3.367 -0.4189  0.3066  0.2190
10050TIP3    H151565   5.848   0.311   3.453  0.0080  1.3204 -0.0588
10050TIP3    H251566   5.866   0.350   3.308 -0.3861 -0.9057 -0.7502
10051TIP3   OH251567   0.785   3.596  14.663 -0.1596  0.3976 -0.0292
10051TIP3    H151568   0.753   3.637  14.582 -1.6038  1.4526  1.0221
10051TIP3    H251569   0.797   3.504  14.640  0.3604  0.8360 -1.6814
10052TIP3   OH251570   2.353   3.363   3.657 -0.7474 -0.1290  0.0330
10052TIP3    H151571   2.446   3.340   3.657 -1.1300 -1.8125  1.0437
10052TIP3    H251572   2.349   3.445   3.707  0.1990  0.0040 -0.0981
10053TIP3   OH251573   4.341   3.279   5.770  0.0003 -0.1144 -0.3466
10053TIP3    H151574   4.436   3.267   5.773 -0.1407 -1.9383 -1.3175
10053TIP3    H251575   4.309   3.239   5.852  0.0596  0.3849 -0.0798
10054TIP3   OH251576   2.280   2.860   4.870  0.0002  0.0311 -0.3280
10054TIP3    H151577   2.313   2.916   4.799  1.5103 -0.6951 -0.2292
10054TIP3    H251578   2.214   2.914   4.914  0.7881  1.4022 -0.7743
10055TIP3   OH251579   3.576   6.459   3.651  0.1788 -0.3835  0.0612
10055TIP3    H151580   3.502   6.402   3.670  0.9041 -1.6700 -0.8298
10055TIP3    H251581   3.540   6.525   3.591 -0.5727 -0.1043  0.7981
10056TIP3   OH251582   4.156   2.996   0.828  0.1207  0.3737 -0.3340
10056TIP3    H151583   4.104   2.973   0.905 -1.6171  1.7594 -1.0124
10056TIP3    H251584   4.241   3.022   0.863  0.0130 -0.8374  0.9194
10057TIP3   OH251585   2.891   0.398   2.098  0.0983  0.2082  0.4458
10057TIP3    H151586   2.913   0.352   2.179  1.5692 -0.5618 -0.3548
10057TIP3    H251587   2.930   0.485   2.109  2.0010 -0.5218 -0.1784
10058TIP3   OH251588   4.667   1.444  16.156  0.1560  0.1654 -0.2640
10058TIP3    H151589   4.756   1.433  16.192 -0.3016  0.9208  1.2050
10058TIP3    H251590   4.614   1.380  16.204 -0.2905  0.5038 -0.3002
10059TIP3   OH251591   6.089   5.176  12.397  0.0829 -0.4828 -0.0641
10059TIP3    H151592   6.168   5.230  12.394  1.1966 -1.9722  0.8943
10059TIP3    H251593   6.044   5.195  12.315  0.1608  2.2159  0.4250
10060TIP3   OH251594   4.166   3.618  13.289  0.3282  0.3143 -0.3286
10060TIP3    H151595   4.241   3.670  13.317  0.8111  0.6269 -2.0704
10060TIP3    H251596   4.090   3.668  13.319  0.8087  1.2074 -0.5366
10061TIP3   OH251597   2.654   0.394  16.198 -0.3548  0.2964 -0.3960
10061TIP3    H151598   2.682   0.395  16.106 -0.4772  0.9504 -0.4259
10061TIP3    H251599   2.588   0.463  16.204  0.4724  1.0330  0.4444
10062TIP3   OH251600   2.678   1.578   4.936 -0.2770  0.9249 -0.0295
10062TIP3    H151601   2.604   1.605   4.990  0.1341  0.5490  0.7311
10062TIP3    H251602   2.754   1.588   4.992 -0.0090 -0.9345 -0.0141
10063TIP3   OH251603   5.448   0.198  13.733 -0.8483 -0.0769  0.1951
10063TIP3    H151604   5.381   0.143  13.692 -0.3000  0.2907 -1.2436
10063TIP3    H251605   5.478   0.255  13.663  3.8047 -2.8328 -0.4609
10064TIP3   OH251606   1.777   4.262  13.169  0.6216 -0.2858 -0.4955
10064TIP3    H151607   1.742   4.340  13.212  0.0522  0.3035 -1.9697
10064TIP3    H251608   1.860   4.245  13.214  0.4164  0.7499  0.3086
10065TIP3   OH251609   1.407   2.386  15.302  0.4283 -0.3059 -0.0904
10065TIP3    H151610   1.350   2.439  15.246  0.7961 -0.4838 -0.6480
10065TIP3    H251611   1.347   2.327  15.348  0.2701 -1.8970 -2.1651
10066TIP3   OH251612   4.721   6.144   6.010 -0.3081  0.1067 -0.2565
10066TIP3    H151613   4.757   6.094   6.083 -0.4726 -0.0063 -0.2528
10066TIP3    H251614   4.716   6.234   6.043 -1.0152 -0.0551  0.1108
10067TIP3   OH251615   2.563   2.161   4.152  0.4221  0.6981  0.1722
10067TIP3    H151616   2.550   2.147   4.246  0.3024 -1.8541 -0.1326
10067TIP3    H251617   2.657   2.149   4.138  0.2749 -0.1821 -0.1616
10068TIP3   OH251618   6.567   1.711   2.097 -0.2310 -0.2793  0.2067
10068TIP3    H151619   6.606   1.798   2.112 -0.5813  0.1309 -1.1832
10068TIP3    H251620   6.641   1.651   2.106 -0.3242 -0.1064  3.2460
10069TIP3   OH251621   0.221   0.635   2.175 -0.1798  0.2477  0.4304
10069TIP3    H151622   0.279   0.699   2.136 -1.8063  2.2189  1.0606
10069TIP3    H251623   0.148   0.628   2.114 -0.5312 -0.2059  0.8900
10070TIP3   OH251624   3.302   2.711   4.171 -0.6714  0.7048  0.2050
10070TIP3    H151625   3.215   2.682   4.147 -0.1081 -0.4578 -0.5415
10070TIP3    H251626   3.317   2.672   4.258 -0.4447 -0.1623 -0.2039
10071TIP3   OH251627   2.671   3.044  16.707  0.2257  0.0234 -0.7643
10071TIP3    H151628   2.731   3.000  16.768  0.4908 -0.1922 -1.1780
10071TIP3    H251629   2.711   3.129  16.691  0.0610  0.1541 -0.4977
10072TIP3   OH251630   3.129   0.777   1.611 -0.0396 -0.0306  0.3498
10072TIP3    H151631   3.158   0.702   1.663 -0.4670  1.0941  2.3183
10072TIP3    H251632   3.038   0.759   1.591 -0.3918  0.3288  1.5659
10073TIP3   OH251633   5.935   1.928   1.098  0.2180 -0.2309  0.3598
10073TIP3    H151634   5.890   1.933   1.014 -1.3583  0.2776  1.1955
10073TIP3    H251635   6.007   1.866   1.083  0.2464  0.1727 -1.4571
10074TIP3   OH251636   0.684   4.255  16.154  0.2743 -0.1238 -0.6285
10074TIP3    H151637   0.714   4.189  16.217 -2.3307 -1.0268 -0.2052
10074TIP3    H251638   0.697   4.215  16.068 -2.2524 -1.7284 -0.3370
10075TIP3   OH251639   0.767   4.227   6.003  0.2045  0.5920 -0.2851
10075TIP3    H151640   0.682   4.186   6.017  0.9536 -0.6985  0.6905
10075TIP3    H251641   0.780   4.283   6.079  0.6765 -0.0254  0.0945
10076TIP3   OH251642   1.034   2.100  11.943 -0.8687  0.6310 -0.0673
10076TIP3    H151643   0.967   2.091  11.876 -1.1034 -0.7767  0.3354
10076TIP3    H251644   1.031   2.018  11.992  0.7700  0.7575  0.3013
10077TIP3   OH251645   5.055   3.825   5.230  0.1022 -0.0266 -0.1251
10077TIP3    H151646   5.062   3.850   5.138 -1.6163  0.3181 -0.1947
10077TIP3    H251647   5.037   3.731   5.229 -2.5480  0.4024 -0.3295
10078TIP3   OH251648   3.432   5.939  12.086  0.2092  0.0383 -0.3397
10078TIP3    H151649   3.387   5.967  12.006  0.2836  1.6113  0.1292
10078TIP3    H251650   3.525   5.953  12.068  0.1721  1.2450  0.3024
10079TIP3   OH251651   4.607   6.409   3.564  0.6681 -0.3272 -0.4099
10079TIP3    H151652   4.668   6.336   3.573  0.2845 -0.6980 -0.7648
10079TIP3    H251653   4.548   6.401   3.638  1.6847  0.6689  0.5574
10080TIP3   OH251654   5.894   5.212  11.392 -0.3604  0.8597 -0.2421
10080TIP3    H151655   5.838   5.227  11.316 -0.0856  0.3453 -0.5521
10080TIP3    H251656   5.856   5.136  11.436 -0.3296  0.9563 -0.0479
10081TIP3   OH251657   5.581   3.839   5.184  0.1469 -0.5568  0.0371
10081TIP3    H151658   5.674   3.838   5.163  1.0410  3.1181  2.7277
10081TIP3    H251659   5.553   3.748   5.175  3.6879 -1.6679 -1.7928
10082TIP3   OH251660   2.997   5.823  12.076  0.5441 -0.0718  0.8425
10082TIP3    H151661   3.051   5.820  12.155  1.4248  0.2405  0.2722
10082TIP3    H251662   2.969   5.733  12.063  0.5378 -0.1585  1.4123
10083TIP3   OH251663   2.776   3.986  16.405 -0.5328 -0.4887 -1.1353
10083TIP3    H151664   2.752   3.901  16.368 -2.1830 -0.0733 -1.0715
10083TIP3    H251665   2.725   4.049  16.355  0.3720  0.4472 -0.9101
10084TIP3   OH251666   0.207   0.735  15.982 -0.3258  0.4139  0.2935
10084TIP3    H151667   0.152   0.714  15.907  0.8744  0.4484 -0.6262
10084TIP3    H251668   0.223   0.650  16.024 -1.7703  0.5053  1.0996
10085TIP3   OH251669   0.284   4.908   0.251  0.1266 -0.2761 -0.0103
10085TIP3    H151670   0.282   4.828   0.304 -0.4524 -0.4387 -0.2689
10085TIP3    H251671   0.330   4.972   0.306  0.7190 -0.8186  0.1408
10086TIP3   OH251672   5.320   4.264   2.170  0.8628  0.0261 -0.2165
10086TIP3    H151673   5.239   4.313   2.158  1.4926  1.3330  0.6906
10086TIP3    H251674   5.307   4.215   2.251  0.6773 -0.4117 -0.5071
10087TIP3   OH251675   0.430   4.974  11.751 -0.0063  0.1444 -0.2240
10087TIP3    H151676   0.469   5.009  11.831  0.1638 -2.2254  0.8333
10087TIP3    H251677   0.502   4.974  11.688  0.1989  0.8831  0.0040
10088TIP3   OH251678   5.056   0.633  16.990 -0.4084  0.1129 -0.2898
10088TIP3    H151679   4.984   0.629  17.053 -0.2973 -1.6336 -0.2200
10088TIP3    H251680   5.125   0.680  17.036 -1.1378  0.8935  0.0228
10089TIP3   OH251681   1.957   5.994  15.120  0.5955 -0.0179 -0.3245
10089TIP3    H151682   1.961   6.066  15.057 -1.8574  0.5694  0.0927
10089TIP3    H251683   1.903   6.027  15.192 -0.7850 -2.2880 -0.2070
10090TIP3   OH251684   3.017   0.736   5.386 -0.5621  0.6338 -0.6705
10090TIP3    H151685   2.989   0.675   5.317  4.2823 -3.3108  0.2849
10090TIP3    H251686   3.087   0.787   5.345  0.2795  0.4372  0.4906
10091TIP3   OH251687   1.452   3.179  11.610  0.0934 -0.1088  0.1831
10091TIP3    H151688   1.360   3.190  11.636  0.1623  0.1502  0.3207
10091TIP3    H251689   1.451   3.106  11.549  0.0262 -1.3025  1.5437
10092TIP3   OH251690   5.993   4.987   4.259  0.0210 -1.0146  0.7876
10092TIP3    H151691   6.088   4.992   4.268  0.1289  0.4191 -0.6611
10092TIP3    H251692   5.968   4.906   4.304  1.6068 -0.1320  3.4617
10093TIP3   OH251693   4.794   3.683  12.961 -0.2870  0.2024  0.3453
10093TIP3    H151694   4.805   3.594  12.927 -0.8813 -0.2840  1.3939
10093TIP3    H251695   4.776   3.671  13.054  0.7208  1.4817  0.7295
10094TIP3   OH251696   5.200   6.699   5.077 -0.2640 -0.4764 -0.2899
10094TIP3    H151697   5.278   6.707   5.022  0.7682  0.3248  1.2036
10094TIP3    H251698   5.132   6.665   5.019  1.0876 -0.8056 -1.7378
10095TIP3   OH251699   4.748   4.651   0.657 -0.3570 -0.0159 -0.1187
10095TIP3    H151700   4.714   4.740   0.645 -0.4418 -0.1321 -0.8116
10095TIP3    H251701   4.786   4.629   0.572 -1.0297 -0.9232 -0.2016
10096TIP3   OH251702   3.544   0.053  12.286  0.3043 -0.2567 -0.5008
10096TIP3    H151703   3.603   0.120  12.320 -0.8400  0.1531  0.7666
10096TIP3    H251704   3.493   0.097  12.218 -0.5290  0.2155  0.4132
10097TIP3   OH251705   2.647   5.153   2.277  0.5929  0.1694  0.6332
10097TIP3    H151706   2.643   5.221   2.345 -0.3457 -0.1514  0.9071
10097TIP3    H251707   2.568   5.101   2.289  1.5474 -1.3359  0.7962
10098TIP3   OH251708   4.853   3.678  13.988  0.8103 -0.2451  0.6886
10098TIP3    H151709   4.918   3.617  14.024 -0.4364 -1.9688  0.1445
10098TIP3    H251710   4.771   3.652  14.029 -0.7306 -2.3526 -3.1504
10099TIP3   OH251711   6.622   0.401  14.062  0.2536  0.7049 -0.3091
10099TIP3    H151712   6.533   0.430  14.083  0.2901 -0.4132  1.6733
10099TIP3    H251713   6.653   0.463  13.996 -2.1213  0.8841 -1.3513
10100TIP3   OH251714   6.395   5.028  14.992 -0.6183  0.4111  0.0252
10100TIP3    H151715   6.312   4.981  14.980 -0.5929  0.5251 -0.6269
10100TIP3    H251716   6.439   4.982  15.063 -1.7368  1.0346  1.1763
10101TIP3   OH251717   3.684   2.672  14.621 -1.5903 -0.1940  0.2814
10101TIP3    H151718   3.768   2.640  14.589 -1.4858  0.6079 -0.2674
10101TIP3    H251719   3.656   2.606  14.684 -0.1766 -0.0793  1.0676
10102TIP3   OH251720   3.931   2.466  13.156 -0.3956 -0.2339 -0.3701
10102TIP3    H151721   3.937   2.465  13.061  0.6835 -1.3054 -0.3291
10102TIP3    H251722   3.840   2.486  13.175 -1.2542 -2.5117 -1.6907
10103TIP3   OH251723   1.351   3.530  16.824  0.1587 -0.2291  0.3894
10103TIP3    H151724   1.296   3.469  16.776 -0.3760 -0.3030  1.0750
10103TIP3    H251725   1.435   3.485  16.834  0.3716 -0.0925 -0.7102
10104TIP3   OH251726   2.898   1.911  12.868 -0.0399  0.0249  0.6429
10104TIP3    H151727   2.814   1.894  12.909 -1.0842 -1.7014 -1.9517
10104TIP3    H251728   2.935   1.824  12.851 -0.2821  0.4718 -2.9886
10105TIP3   OH251729   2.578   2.275   1.919 -0.8145  0.1464 -0.7213
10105TIP3    H151730   2.662   2.245   1.884  0.1724  1.7812  0.1254
10105TIP3    H251731   2.550   2.204   1.977  2.4903  1.4665  2.9022
10106TIP3   OH251732   1.807   1.786  15.636 -0.3041  0.1271  0.5349
10106TIP3    H151733   1.867   1.799  15.563 -0.6816 -0.3420  0.1413
10106TIP3    H251734   1.846   1.837  15.708 -0.0047  0.6953 -0.0226
10107TIP3   OH251735   6.148   3.333  15.394  0.4227 -0.1914  0.6005
10107TIP3    H151736   6.074   3.304  15.448  0.4925 -0.3315  0.6196
10107TIP3    H251737   6.222   3.334  15.454  0.0013  2.1714  1.1827
10108TIP3   OH251738   5.900   1.206   3.779  0.3776 -0.3138  1.0843
10108TIP3    H151739   5.967   1.257   3.826 -1.0511  0.2332  2.6020
10108TIP3    H251740   5.827   1.267   3.768  0.4370 -0.6167 -1.3885
10109TIP3   OH251741   4.840   5.643   4.564 -0.0898  0.9661  0.4605
10109TIP3    H151742   4.782   5.578   4.605 -0.4642  1.5568  0.8723
10109TIP3    H251743   4.866   5.701   4.636  1.3595  0.4705  0.3791
10110TIP3   OH251744   2.361   0.868   5.929  0.8659  0.2923 -0.8247
10110TIP3    H151745   2.343   0.845   6.020 -0.4867 -1.7196 -1.5409
10110TIP3    H251746   2.275   0.877   5.889  1.4232 -0.4622 -2.2635
10111TIP3   OH251747   6.455   4.167   1.409  0.3217  0.0227 -0.5069
10111TIP3    H151748   6.420   4.102   1.471  0.9082 -0.1263 -0.3217
10111TIP3    H251749   6.469   4.117   1.328 -1.1354  0.3805 -1.0049
10112TIP3   OH251750   2.928   5.041   2.317 -0.0671  0.0423 -0.2284
10112TIP3    H151751   2.845   5.072   2.353 -0.2582 -0.9980  0.2512
10112TIP3    H251752   2.995   5.083   2.371 -0.1710  2.3407 -1.7470
10113TIP3   OH251753   1.324   1.949   5.890  0.4687 -0.4740 -0.4813
10113TIP3    H151754   1.355   1.975   5.976  1.9013 -0.6795 -0.9193
10113TIP3    H251755   1.310   1.854   5.897  0.8910 -0.5441 -0.5589
10114TIP3   OH251756   6.661   0.840   2.198 -0.1750 -0.2321  0.0125
10114TIP3    H151757   6.628   0.855   2.286 -1.6547  2.1906 -0.8610
10114TIP3    H251758   6.606   0.770   2.164 -0.8510  0.1037  0.3932
10115TIP3   OH251759   6.417   3.770   2.276 -0.2321 -0.5696 -0.2168
10115TIP3    H151760   6.417   3.793   2.183 -0.0387 -1.9548 -0.5806
10115TIP3    H251761   6.411   3.675   2.277  1.1452 -0.6699  1.1682
10116TIP3   OH251762   4.307   6.245   0.998  0.0256 -0.1432  0.5178
10116TIP3    H151763   4.343   6.179   0.939 -0.1552  0.3314 -0.1395
10116TIP3    H251764   4.222   6.267   0.959 -0.5938 -0.6183  1.5676
10117TIP3   OH251765   0.207   6.553   5.521  0.0192 -0.2948 -0.0641
10117TIP3    H151766   0.168   6.634   5.489 -0.6339 -0.7884 -0.5387
10117TIP3    H251767   0.296   6.577   5.546 -0.8454  1.0667  1.9645
10118TIP3   OH251768   5.734   5.706   0.003  0.0339 -0.4813  0.2700
10118TIP3    H151769   5.725   5.632  -0.057 -0.0953 -0.0430 -0.2567
10118TIP3    H251770   5.645   5.742   0.009 -0.7531 -2.4554  3.2853
10119TIP3   OH251771   5.738   6.113  11.748 -0.2400 -0.9165  0.5484
10119TIP3    H151772   5.760   6.048  11.681 -3.5157 -2.5972  0.8763
10119TIP3    H251773   5.707   6.061  11.822  2.2505  0.9400  3.0597
10120TIP3   OH251774   4.663   1.905   0.633  0.3791  0.0300 -0.2980
10120TIP3    H151775   4.668   1.809   0.632  1.8568  0.0654  0.8903
10120TIP3    H251776   4.569   1.923   0.637  0.1107 -1.4172  1.2333
10121TIP3   OH251777   3.563   5.454   4.530 -0.2361 -0.0253 -0.1452
10121TIP3    H151778   3.623   5.380   4.536 -1.7325 -1.3052 -0.1445
10121TIP3    H251779   3.576   5.503   4.611 -0.6759 -1.4822  0.8504
10122TIP3   OH251780   6.540   2.999   5.252 -0.0492  0.3684 -0.4601
10122TIP3    H151781   6.602   3.072   5.260 -0.4702  0.8312 -1.2361
10122TIP3    H251782   6.472   3.018   5.317  1.4533 -1.0563  1.6510
10123TIP3   OH251783   0.251   4.761  13.004 -0.3285  0.2613  0.0185
10123TIP3    H151784   0.194   4.805  12.941 -0.8410  0.3769  0.5506
10123TIP3    H251785   0.192   4.730  13.072  0.3052  0.9920  0.9319
10124TIP3   OH251786   3.847   3.142   2.872 -0.1854  0.3352  0.1012
10124TIP3    H151787   3.943   3.151   2.877  0.0926 -1.1894 -1.5574
10124TIP3    H251788   3.826   3.069   2.929  0.0531 -1.2366 -1.7187
10125TIP3   OH251789   5.196   2.365  16.487  0.1704 -0.5512  0.8607
10125TIP3    H151790   5.111   2.350  16.528 -0.5309  1.3544  0.2020
10125TIP3    H251791   5.200   2.460  16.473  1.0820 -0.9059 -1.8961
10126TIP3   OH251792   5.429   3.564   2.599  0.4436 -0.8544 -0.0083
10126TIP3    H151793   5.454   3.587   2.510  1.3131  1.1419  0.6988
10126TIP3    H251794   5.500   3.597   2.654 -0.5531 -1.1202  1.5218
10127TIP3   OH251795   0.437   3.742   5.991  0.2921  0.3325 -0.5080
10127TIP3    H151796   0.430   3.834   6.016 -1.0987  0.1592 -0.1957
10127TIP3    H251797   0.427   3.694   6.073  2.5088 -0.0937 -0.4341
10128TIP3   OH251798   2.575   6.578   1.942 -0.1166  0.0816  0.5580
10128TIP3    H151799   2.583   6.630   2.023 -1.6165  1.1706  0.0471
10128TIP3    H251800   2.651   6.519   1.944  0.1126  0.3747  2.5439
10129TIP3   OH251801   2.370   2.457  17.118 -0.5477 -0.1825  0.0196
10129TIP3    H151802   2.459   2.420  17.117 -0.6810 -0.5229  0.5098
10129TIP3    H251803   2.384   2.552  17.111 -0.0886 -0.1486  1.2078
10130TIP3   OH251804   0.402   3.822  16.035 -0.3224  0.0743 -0.0545
10130TIP3    H151805   0.405   3.888  15.966 -0.6920 -0.1312 -0.2675
10130TIP3    H251806   0.438   3.743  15.994 -2.0240 -0.5034 -0.5242
10131TIP3   OH251807   4.240   4.186   3.595  0.3087 -0.3668  0.3082
10131TIP3    H151808   4.182   4.135   3.539 -0.1640  0.1560  0.3173
10131TIP3    H251809   4.253   4.268   3.549  2.2626 -1.0268 -0.4187
10132TIP3   OH251810   0.046   5.539  13.868  0.6588  0.5036  0.5133
10132TIP3    H151811  -0.009   5.562  13.793  0.5606 -0.4190  0.2952
10132TIP3    H251812  -0.016   5.531  13.941  0.5642 -0.0123  0.3809
10133TIP3   OH251813   5.682   5.512   3.959 -0.6973 -0.1403 -0.3656
10133TIP3    H151814   5.606   5.470   3.921 -1.0777 -0.5808  0.8220
10133TIP3    H251815   5.719   5.445   4.018  0.9764 -0.1659 -1.3822
10134TIP3   OH251816   5.866   2.831   4.220  0.0742 -0.1946 -0.1218
10134TIP3    H151817   5.845   2.764   4.155  0.7796 -0.4333 -0.1199
10134TIP3    H251818   5.808   2.904   4.200 -0.5097 -0.7035 -0.3042
10135TIP3   OH251819   3.342   1.759  15.946 -0.4572 -0.2043 -0.0572
10135TIP3    H151820   3.333   1.847  15.984 -2.3995 -0.3962 -0.0004
10135TIP3    H251821   3.402   1.772  15.872 -0.4026  1.0962  0.1827
10136TIP3   OH251822   6.541   2.305  14.080 -0.1342 -0.2684  0.9710
10136TIP3    H151823   6.632   2.325  14.059  0.0956 -0.6177  1.6035
10136TIP3    H251824   6.497   2.389  14.079  0.6643  0.2430  2.8939
10137TIP3   OH251825   6.338   6.532   3.310 -0.0312  0.7721 -0.5020
10137TIP3    H151826   6.244   6.527   3.296  0.1597 -0.3436 -1.5343
10137TIP3    H251827   6.370   6.585   3.237  0.2208  0.5585 -0.5485
10138TIP3   OH251828   3.706   5.760   0.603  0.4251 -0.3241  0.0699
10138TIP3    H151829   3.633   5.815   0.632 -0.5878 -2.3009  1.4807
10138TIP3    H251830   3.783   5.800   0.644 -0.1488  0.5505  0.3324
10139TIP3   OH251831   3.986   4.064   0.546 -0.8596 -0.1157  0.6605
10139TIP3    H151832   3.941   4.075   0.462 -0.9326 -0.0092  0.7132
10139TIP3    H251833   4.030   4.148   0.561 -1.7478  0.2655  1.2609
10140TIP3   OH251834   6.077   5.623  15.000 -0.1239 -0.3776 -0.2899
10140TIP3    H151835   6.166   5.630  14.965 -1.0062  1.2169 -2.4971
10140TIP3    H251836   6.053   5.713  15.022 -1.5507 -0.6090 -0.7762
10141TIP3   OH251837   2.095   2.996   5.012  0.0292 -0.2157  0.3641
10141TIP3    H151838   2.027   2.949   5.061 -1.7449  0.0926 -1.6328
10141TIP3    H251839   2.047   3.043   4.944  2.2699 -0.0738 -1.2416
10142TIP3   OH251840   5.428   6.357   2.824 -0.1442  0.1342 -0.3462
10142TIP3    H151841   5.467   6.444   2.821  0.6305 -0.1704  0.5635
10142TIP3    H251842   5.335   6.373   2.841  0.3468  0.7462  2.1291
10143TIP3   OH251843   6.661   5.008  12.090  0.8421  0.0253 -0.3351
10143TIP3    H151844   6.650   4.921  12.053 -1.2967  0.1451 -0.1176
10143TIP3    H251845   6.605   5.064  12.035  1.0700  0.9939  0.3973
10144TIP3   OH251846   3.116   2.058   1.263 -0.4549  0.2930  0.1048
10144TIP3    H151847   3.082   1.998   1.197  0.6042  0.2161 -0.3936
10144TIP3    H251848   3.196   2.094   1.224 -0.1300  0.6945  1.1066
10145TIP3   OH251849   6.707   4.335  11.735 -0.1826  0.1305  0.5524
10145TIP3    H151850   6.725   4.318  11.828  0.7443 -1.4416  0.1208
10145TIP3    H251851   6.702   4.248  11.696  0.9953  0.7908 -1.1479
10146TIP3   OH251852   1.586   3.905  11.491  0.6771  0.3480  0.2940
10146TIP3    H151853   1.577   3.973  11.557  0.0606 -0.2151  0.8081
10146TIP3    H251854   1.653   3.846  11.526  1.3640  0.7883 -0.2470
10147TIP3   OH251855   4.735   1.062   0.991 -0.0835 -0.2829 -0.0915
10147TIP3    H151856   4.674   0.999   0.953 -0.1445 -0.1375 -0.2347
10147TIP3    H251857   4.728   1.139   0.936  0.7921 -0.5284 -0.5617
10148TIP3   OH251858   6.115   6.613   2.207 -0.0230  0.6706  0.0216
10148TIP3    H151859   6.176   6.551   2.167 -2.4120 -1.6848 -0.2981
10148TIP3    H251860   6.044   6.621   2.143  0.7726  5.0141 -0.6139
10149TIP3   OH251861   5.150   1.866  17.193 -0.5684 -0.0430 -0.5133
10149TIP3    H151862   5.232   1.910  17.216 -2.4743  1.9535  3.5357
10149TIP3    H251863   5.127   1.900  17.107  1.9209  0.7441 -0.9380
10150TIP3   OH251864   4.742   0.609   4.528 -0.1955  0.0325  0.1679
10150TIP3    H151865   4.758   0.700   4.506  1.2004 -0.5090 -1.2051
10150TIP3    H251866   4.823   0.580   4.571  0.8341 -1.4254 -2.4813
10151TIP3   OH251867   2.190   4.823  12.920  0.3211  0.1716  0.3739
10151TIP3    H151868   2.234   4.857  12.843  1.2223 -0.4875  0.5811
10151TIP3    H251869   2.183   4.898  12.979 -0.5509  0.7270 -0.4066
10152TIP3   OH251870   4.970   6.578  13.605 -0.5844  0.1210  0.5793
10152TIP3    H151871   4.970   6.482  13.598 -0.3204  0.2066 -0.9531
10152TIP3    H251872   4.894   6.598  13.659 -2.0979 -0.8602 -1.0722
10153TIP3   OH251873   2.530   4.410   1.513  0.3371  0.2577  0.3259
10153TIP3    H151874   2.468   4.466   1.467 -0.6590  0.1956  1.5448
10153TIP3    H251875   2.566   4.353   1.445  0.0878  1.1934 -0.6325
10154TIP3   OH251876   5.503   3.660   0.584 -0.1117 -0.2285 -0.1467
10154TIP3    H151877   5.545   3.746   0.592 -1.0615  0.3417 -1.0635
10154TIP3    H251878   5.510   3.639   0.491  0.7620 -1.5113  0.1820
10155TIP3   OH251879   1.742   3.447  11.335 -0.5923  0.3298 -0.3909
10155TIP3    H151880   1.822   3.499  11.327 -1.3616  1.5089 -0.6912
10155TIP3    H251881   1.690   3.472  11.259 -1.3600 -0.2361 -0.0635
10156TIP3   OH251882   0.399   5.879   3.234 -0.2600  0.3624  0.6885
10156TIP3    H151883   0.470   5.935   3.265  0.5674  0.8141 -1.8031
10156TIP3    H251884   0.339   5.938   3.188 -0.9965 -0.3726  0.6629
10157TIP3   OH251885   3.327   0.984  11.473  0.1478 -0.4976 -0.3355
10157TIP3    H151886   3.295   0.965  11.561 -1.5323  0.0857 -0.7854
10157TIP3    H251887   3.256   0.957  11.415  1.2227 -0.8600 -1.5300
10158TIP3   OH251888   4.570   2.621   1.391 -0.0565  0.2297 -0.4607
10158TIP3    H151889   4.639   2.644   1.453  0.0659  1.4313 -1.0148
10158TIP3    H251890   4.526   2.704   1.372 -0.0900 -0.0943 -1.9604
10159TIP3   OH251891   3.210   0.499   3.659 -0.4417  0.3531 -0.5297
10159TIP3    H151892   3.157   0.528   3.585 -2.1069 -1.3807 -0.0908
10159TIP3    H251893   3.173   0.546   3.734 -0.0209  0.6529 -0.5082
10160TIP3   OH251894   6.323   1.891  16.659  0.6259 -0.5413  0.6816
10160TIP3    H151895   6.408   1.852  16.638  0.7502 -0.0190  0.1908
10160TIP3    H251896   6.261   1.819  16.648  0.5666 -0.1454 -2.4363
10161TIP3   OH251897   6.620   3.206   0.726 -0.0807 -0.7591  0.6184
10161TIP3    H151898   6.595   3.242   0.811  1.6840  0.9091  0.4982
10161TIP3    H251899   6.541   3.215   0.673 -0.6343  0.0244  1.5233
10162TIP3   OH251900   1.246   0.551  14.910  0.0691 -0.1798  0.3817
10162TIP3    H151901   1.177   0.597  14.863 -0.2400 -0.8817  0.1458
10162TIP3    H251902   1.318   0.614  14.913  0.1943 -0.2019 -1.2769
10163TIP3   OH251903   0.994   3.074  16.685  0.1096 -0.6016 -0.0468
10163TIP3    H151904   0.992   3.126  16.604  1.7417  0.9755  0.8345
10163TIP3    H251905   0.924   3.110  16.738  1.1846  0.7334  0.5288
10164TIP3   OH251906   1.681   2.381   3.841  0.3533  0.3376  0.1960
10164TIP3    H151907   1.696   2.459   3.787  1.5345 -0.2124 -0.3238
10164TIP3    H251908   1.697   2.308   3.781  2.6068 -0.3115  1.4415
10165TIP3   OH251909   0.238   3.666   5.764  0.1927 -0.5409  0.4663
10165TIP3    H151910   0.321   3.687   5.807 -0.2229  0.4091  0.8492
10165TIP3    H251911   0.208   3.586   5.807  1.5274 -1.6453 -0.5764
10166TIP3   OH251912   0.423   5.304   3.799 -0.2287 -0.4065 -0.2999
10166TIP3    H151913   0.472   5.283   3.878  0.7739  2.4790 -0.0466
10166TIP3    H251914   0.468   5.256   3.729  0.7672 -0.5865  0.4491
10167TIP3   OH251915   1.279   1.102  17.275  0.4067 -0.0850  0.7268
10167TIP3    H151916   1.200   1.156  17.267 -0.1949 -0.9050  1.0031
10167TIP3    H251917   1.290   1.089  17.369  0.8801  0.0301  0.6902
10168TIP3   OH251918   4.505   4.664  14.762  0.5401 -0.0605  0.3079
10168TIP3    H151919   4.431   4.700  14.811  0.6386  0.7955 -0.1538
10168TIP3    H251920   4.560   4.623  14.829  0.7312  1.1820  0.9468
10169TIP3   OH251921   6.061   4.665   5.137  0.1575  0.5009  0.2857
10169TIP3    H151922   6.008   4.732   5.094 -1.4638 -1.8362 -1.6290
10169TIP3    H251923   5.997   4.607   5.179  1.3121 -1.1910 -0.2034
10170TIP3   OH251924   5.242   1.619   3.659  0.7561 -0.0082 -0.5578
10170TIP3    H151925   5.178   1.571   3.712  0.7409  0.9386  0.3184
10170TIP3    H251926   5.211   1.609   3.569 -0.6547  0.4646 -0.1435
10171TIP3   OH251927   1.363   5.140  14.964  0.8609 -0.3844 -0.3184
10171TIP3    H151928   1.324   5.080  14.900 -1.8087 -0.6677  1.4052
10171TIP3    H251929   1.389   5.083  15.036  0.3554  0.2804  0.3994
10172TIP3   OH251930   0.830   5.887  15.594 -0.0786  0.7503  0.5112
10172TIP3    H151931   0.770   5.833  15.543 -2.0468  2.1854  1.1967
10172TIP3    H251932   0.854   5.833  15.669  2.4732 -1.2034 -1.5043
10173TIP3   OH251933   0.331   5.773  12.141 -0.6757  0.1361 -0.8452
10173TIP3    H151934   0.289   5.856  12.122 -1.5201 -0.2683 -0.8224
10173TIP3    H251935   0.296   5.713  12.075 -0.5903 -0.3473 -0.4571
10174TIP3   OH251936   2.420   3.703  11.760  0.0500  0.3149  0.2220
10174TIP3    H151937   2.468   3.777  11.724 -0.5651  0.0877 -1.1366
10174TIP3    H251938   2.460   3.688  11.845  0.9063  1.5144  0.0604
10175TIP3   OH251939   4.330   5.260   1.492  0.3097 -0.9284 -0.2219
10175TIP3    H151940   4.375   5.260   1.408  1.4025  2.6212  0.2029
10175TIP3    H251941   4.250   5.309   1.477  1.3857  1.4113  1.0589
10176TIP3   OH251942   6.088   3.095  16.043  0.2389 -0.1477  0.2984
10176TIP3    H151943   6.175   3.113  16.008  0.4728 -0.9836  0.4414
10176TIP3    H251944   6.091   3.003  16.070 -1.1291 -0.5882 -0.9658
10177TIP3   OH251945   4.469   2.556  11.053  0.3383  0.1268 -0.0553
10177TIP3    H151946   4.378   2.542  11.078  0.2957  0.3275 -0.0961
10177TIP3    H251947   4.473   2.535  10.960 -0.1435  2.1789 -0.5977
10178TIP3   OH251948   4.075   5.584  15.541 -0.0952 -0.0174  0.0719
10178TIP3    H151949   4.104   5.544  15.623  2.0796 -2.5729 -1.7680
10178TIP3    H251950   4.102   5.676  15.548  0.6067 -0.3219  1.9541
10179TIP3   OH251951   3.758   3.077   6.568 -0.5853  0.0842 -0.4412
10179TIP3    H151952   3.753   3.172   6.574  0.9399  0.1129  0.8326
10179TIP3    H251953   3.806   3.061   6.486  0.8682  0.4937  0.3041
10180TIP3   OH251954   3.017   4.593  11.338 -0.0793 -0.0777 -0.3907
10180TIP3    H151955   3.081   4.562  11.274 -0.6990 -0.6111 -0.7641
10180TIP3    H251956   2.954   4.643  11.285 -1.4588 -1.8109 -0.4674
10181TIP3   OH251957   0.868   1.279  11.651  0.4365  0.2849 -0.4297
10181TIP3    H151958   0.941   1.270  11.713 -1.2721 -2.7821  1.4499
10181TIP3    H251959   0.822   1.358  11.680  0.9817  0.1924  0.7827
10182TIP3   OH251960   4.702   0.926  15.592 -0.5603 -0.2041  0.1316
10182TIP3    H151961   4.710   0.899  15.684 -0.0016 -1.8015 -0.3582
10182TIP3    H251962   4.613   0.903  15.568 -0.8590  0.6460  0.3884
10183TIP3   OH251963   2.007   0.282   1.323  0.9268  0.1315 -0.2601
10183TIP3    H151964   1.951   0.315   1.394  1.2200  1.1864 -0.4935
10183TIP3    H251965   1.979   0.192   1.310 -0.9164  0.6891 -0.5204
10184TIP3   OH251966   3.708   1.804  15.134 -0.2273 -0.9178  0.4005
10184TIP3    H151967   3.701   1.884  15.082 -2.5544 -0.4342  1.3415
10184TIP3    H251968   3.689   1.733  15.073 -0.7262 -0.5311  0.0962
10185TIP3   OH251969   0.068   4.775   1.076  0.3884  0.0081  0.1545
10185TIP3    H151970   0.122   4.698   1.057  1.6597  1.0945 -0.7628
10185TIP3    H251971   0.035   4.758   1.165  1.2042 -1.2705  0.2525
10186TIP3   OH251972   4.949   4.638  12.340  0.1328 -0.0891  0.0148
10186TIP3    H151973   5.036   4.611  12.369 -0.3379 -0.5503  1.0873
10186TIP3    H251974   4.914   4.690  12.413  0.5841  2.6078 -1.5421
10187TIP3   OH251975   4.912   5.691   4.299  0.2604 -0.1649  0.3696
10187TIP3    H151976   4.865   5.685   4.382 -1.3442  0.1515 -0.4747
10187TIP3    H251977   4.978   5.622   4.304  0.5758  0.2227  2.1193
10188TIP3   OH251978   0.823   6.208  13.722 -0.2075 -0.2603  0.0908
10188TIP3    H151979   0.798   6.157  13.799 -1.2072  2.4100  1.6831
10188TIP3    H251980   0.756   6.275  13.715  1.5777  1.5075 -1.2129
10189TIP3   OH251981   1.465   6.321   2.161  0.2619  0.2241 -0.0392
10189TIP3    H151982   1.427   6.332   2.074  0.3380 -0.6773 -0.1976
10189TIP3    H251983   1.390   6.308   2.219  0.2778 -1.0469 -0.2728
10190TIP3   OH251984   3.770   4.321  16.252 -0.0662  0.4226 -0.2627
10190TIP3    H151985   3.764   4.225  16.251 -1.3507  0.4888 -0.8783
10190TIP3    H251986   3.774   4.346  16.159  0.4027  0.9646 -0.1036
10191TIP3   OH251987   5.732   3.095   4.842  0.3014  0.9206 -0.2951
10191TIP3    H151988   5.772   3.179   4.865 -0.8656  1.2900  0.5256
10191TIP3    H251989   5.778   3.067   4.763  3.0037  0.7077  1.2175
10192TIP3   OH251990   0.915   3.429  13.922  0.1087  0.2985  0.5549
10192TIP3    H151991   0.829   3.467  13.903  0.0070  0.7246  1.7879
10192TIP3    H251992   0.922   3.355  13.861 -0.4521  1.1876 -0.6368
10193TIP3   OH251993   5.937   0.514  14.731  0.2368  0.4529  0.2855
10193TIP3    H151994   5.917   0.458  14.806 -1.4420  2.0759  1.1290
10193TIP3    H251995   5.852   0.538  14.695  0.9305  1.6005 -0.6902
10194TIP3   OH251996   1.104   0.680   3.662  0.3064  0.1418 -0.0892
10194TIP3    H151997   1.144   0.632   3.734  0.1938 -1.5045 -1.0596
10194TIP3    H251998   1.178   0.703   3.605  0.1183 -1.2482 -0.9398
10195TIP3   OH251999   4.612   0.318  17.232  0.0579  0.1866  0.1023
10195TIP3    H152000   4.540   0.326  17.168  0.9250 -1.2206 -1.1059
10195TIP3    H252001   4.617   0.405  17.272 -0.8714  0.9726 -1.3664
10196TIP3   OH252002   5.486   5.285  16.448 -0.3160 -0.4031 -0.3036
10196TIP3    H152003   5.541   5.347  16.399  1.6197 -1.7706  0.0303
10196TIP3    H252004   5.479   5.209  16.391  1.3116 -1.7070  1.1548
10197TIP3   OH252005   4.259   3.728  16.347  0.3674 -0.2015 -0.6126
10197TIP3    H152006   4.176   3.736  16.394  0.6752 -0.6489  0.0237
10197TIP3    H252007   4.241   3.766  16.261  0.1321  1.7439  0.2334
10198TIP3   OH252008   4.907   5.642   3.804  0.2058 -0.4337 -0.8983
10198TIP3    H152009   4.907   5.597   3.888  1.6895 -0.5593 -0.9426
10198TIP3    H252010   4.995   5.628   3.768  0.8205  2.5511 -0.8526
10199TIP3   OH252011   4.199   2.527   3.045 -0.0432 -0.3562  0.2124
10199TIP3    H152012   4.251   2.590   2.995  2.7042 -2.4140  0.2129
10199TIP3    H252013   4.171   2.462   2.981  1.6656 -1.8501  0.8732
10200TIP3   OH252014   5.183   4.984   0.761  0.1375  0.7300  0.0266
10200TIP3    H152015   5.226   5.065   0.790  1.0363 -0.0025  0.7919
10200TIP3    H252016   5.255   4.922   0.749 -0.4071  0.3918 -1.8022
10201TIP3   OH252017   5.043   5.704  14.431  0.0381  0.4440 -0.5850
10201TIP3    H152018   4.974   5.744  14.378 -1.8581  0.4696  1.7128
10201TIP3    H252019   5.103   5.777  14.451 -0.0640  0.7613 -1.4011
10202TIP3   OH252020   4.572   5.720  11.289  0.0636 -0.1272 -0.1275
10202TIP3    H152021   4.594   5.813  11.287 -0.5050  0.0286 -2.2587
10202TIP3    H252022   4.487   5.716  11.332  0.1479  0.3170  0.0878
10203TIP3   OH252023   3.223   5.613   6.185 -0.2535  0.3639 -0.2442
10203TIP3    H152024   3.145   5.558   6.196  0.5097 -0.7198 -0.0676
10203TIP3    H252025   3.201   5.695   6.230 -1.6099  0.4143 -0.9653
10204TIP3   OH252026   4.074   2.040   4.010 -0.1072  0.3920  0.0031
10204TIP3    H152027   4.142   1.974   4.024 -0.2927  0.3320  0.6670
10204TIP3    H252028   3.999   1.990   3.978  0.1946  0.4759 -0.8615
10205TIP3   OH252029   6.113   4.168  12.609  0.0006 -0.0715  0.0164
10205TIP3    H152030   6.036   4.142  12.659 -2.2537  3.0971 -1.4968
10205TIP3    H252031   6.091   4.254  12.573  4.5237  1.3674  0.0241
10206TIP3   OH252032   2.839   1.420   6.257  0.6505  0.4581 -0.4507
10206TIP3    H152033   2.933   1.406   6.268  0.3230 -1.0700  0.8235
10206TIP3    H252034   2.813   1.353   6.194  0.6600  2.0031 -2.1671
10207TIP3   OH252035   6.434   5.837  16.078 -0.4934  0.1887 -0.0054
10207TIP3    H152036   6.473   5.816  16.163 -1.3170  0.5376  0.4688
10207TIP3    H252037   6.499   5.894  16.036  0.7386 -1.4068 -0.3846
10208TIP3   OH252038   4.654   0.406  14.877 -0.4674  0.0514  0.2388
10208TIP3    H152039   4.605   0.360  14.945  1.1031  2.2529  3.0736
10208TIP3    H252040   4.588   0.460  14.833 -1.3144 -0.2358  1.1152
10209TIP3   OH252041   0.168   3.534   2.905 -0.7686 -0.1145 -0.0112
10209TIP3    H152042   0.094   3.486   2.869 -1.4479  1.1165 -0.3263
10209TIP3    H252043   0.154   3.625   2.877  1.4052  0.0034 -0.9560
10210TIP3   OH252044   1.355   6.101  14.663  0.0117  0.0013 -0.5214
10210TIP3    H152045   1.265   6.119  14.689 -0.1895 -0.0030 -1.1822
10210TIP3    H252046   1.359   6.006  14.653  0.0905  0.0011 -0.4922
10211TIP3   OH252047   2.529   2.843   3.288  0.4063  0.5208  0.1410
10211TIP3    H152048   2.588   2.911   3.321 -0.3278  1.2611 -0.0503
10211TIP3    H252049   2.584   2.790   3.229  1.4453 -0.1625  1.6559
10212TIP3   OH252050   6.525   5.132   0.987  0.0804  0.2856  0.1895
10212TIP3    H152051   6.615   5.162   0.979 -0.3185  1.5733  0.3398
10212TIP3    H252052   6.476   5.208   1.018 -1.2457 -0.1077 -0.8312
10213TIP3   OH252053   5.351   4.397  16.521  0.0309  0.1861  0.1102
10213TIP3    H152054   5.343   4.411  16.615  0.4627 -1.2870  0.4038
10213TIP3    H252055   5.374   4.483  16.485  0.3626  0.6609  1.4093
10214TIP3   OH252056   6.312   0.722  16.022  0.1997  0.5472  0.7782
10214TIP3    H152057   6.316   0.715  16.117 -1.4391 -1.2873  0.7639
10214TIP3    H252058   6.374   0.657  15.990 -1.4017 -0.9718  0.6341
10215TIP3   OH252059   0.850   5.233  13.572 -0.1149 -0.3083  0.0745
10215TIP3    H152060   0.945   5.222  13.583  0.2309  2.6940  1.0783
10215TIP3    H252061   0.814   5.145  13.585  2.3886 -1.2481  1.3917
10216TIP3   OH252062   0.480   4.096   1.642  0.1644  0.0670 -0.3908
10216TIP3    H152063   0.552   4.053   1.597  0.7867 -0.0722  0.6965
10216TIP3    H252064   0.420   4.024   1.665 -0.0984  0.1245 -0.8826
10217TIP3   OH252065   0.539   1.341   5.895  0.3896 -0.1260  0.5201
10217TIP3    H152066   0.550   1.371   5.986  1.8741 -0.9628  0.6595
10217TIP3    H252067   0.591   1.260   5.891 -1.5977 -1.4146 -0.4418
10218TIP3   OH252068   1.765   1.949  13.868 -0.2952  0.3017 -0.1274
10218TIP3    H152069   1.687   1.954  13.924  1.4868 -0.0765  2.6157
10218TIP3    H252070   1.737   1.982  13.783 -3.2504  0.8019  0.9485
10219TIP3   OH252071   6.717   3.480  12.855  0.7604 -0.3840  0.1000
10219TIP3    H152072   6.696   3.522  12.772  2.0834  0.1845  0.0262
10219TIP3    H252073   6.643   3.500  12.912  1.3183  2.0824  0.0586
10220TIP3   OH252074   4.041   5.425  13.733  0.5938 -0.3374  0.5617
10220TIP3    H152075   4.032   5.336  13.699 -1.6837  0.0822 -0.0942
10220TIP3    H252076   4.076   5.413  13.821  0.9975 -1.8155  0.2317
10221TIP3   OH252077   2.244   2.519  12.829  0.0630 -0.0385  0.5255
10221TIP3    H152078   2.279   2.567  12.904 -0.9489  0.2467  0.8297
10221TIP3    H252079   2.177   2.577  12.793 -0.9660 -1.0759  0.7022
10222TIP3   OH252080   2.211   4.444  14.122  0.3462 -0.8391 -0.3338
10222TIP3    H152081   2.122   4.409  14.123 -0.3291  0.7860  0.8969
10222TIP3    H252082   2.202   4.532  14.087  2.0927 -1.8810 -3.9556
10223TIP3   OH252083   2.787   6.566  11.713 -0.6095  0.0411 -0.2148
10223TIP3    H152084   2.767   6.601  11.800  1.0719  0.3986  0.0513
10223TIP3    H252085   2.882   6.573  11.705 -0.8036  1.2041 -2.5685
10224TIP3   OH252086   4.076   2.001   0.388 -0.3729 -0.0892  0.3494
10224TIP3    H152087   4.118   2.027   0.470  0.9864  2.7020 -1.1029
10224TIP3    H252088   4.141   1.946   0.344 -0.0209  0.5666  0.0370
10225TIP3   OH252089   1.681   2.400  15.278 -0.7428 -0.5563  0.2569
10225TIP3    H152090   1.725   2.414  15.194 -0.2383  0.6160  0.6984
10225TIP3    H252091   1.588   2.398  15.256 -0.5536 -2.3994 -0.5979
10226TIP3   OH252092   6.465   5.300   2.411  0.3318 -0.4095 -0.9179
10226TIP3    H152093   6.554   5.293   2.376  0.7389  0.9383 -0.2122
10226TIP3    H252094   6.446   5.212   2.445  1.1965 -0.8416 -1.5084
10227TIP3   OH252095   1.370   1.045   0.879 -0.1295 -0.2517  0.0961
10227TIP3    H152096   1.400   1.074   0.792  0.3310  0.1261  0.3790
10227TIP3    H252097   1.290   1.096   0.894  1.2136  1.7023  1.0271
10228TIP3   OH252098   1.245   3.988   3.043  0.5731 -0.4788 -0.3839
10228TIP3    H152099   1.186   3.913   3.053 -1.7420  1.1117 -1.3912
10228TIP3    H252100   1.332   3.949   3.047 -0.4727 -2.9745  1.0608
10229TIP3   OH252101   4.644   2.751   1.925  0.0780 -0.4917  0.3251
10229TIP3    H152102   4.727   2.772   1.969 -0.1804 -0.1889  0.6695
10229TIP3    H252103   4.652   2.658   1.902  0.4310 -0.5156  0.5363
10230TIP3   OH252104   3.755   3.470   2.031 -0.1923  0.3155 -0.4514
10230TIP3    H152105   3.840   3.507   2.009 -0.7688  1.5555 -0.7043
10230TIP3    H252106   3.771   3.376   2.040  1.0330  0.4214 -1.2743
10231TIP3   OH252107   2.004   2.398  11.969  0.7011  0.8056  0.5965
10231TIP3    H152108   1.913   2.392  11.997  0.9850 -0.6798  1.3007
10231TIP3    H252109   1.999   2.429  11.879 -0.4555  1.4398  0.8537
10232TIP3   OH252110   6.140   1.126   1.155 -0.3867  0.1284  0.6051
10232TIP3    H152111   6.215   1.179   1.181  0.1785 -1.2150  1.8203
10232TIP3    H252112   6.074   1.189   1.126  1.1486  1.3467 -0.3873
10233TIP3   OH252113   3.713   1.564  12.952 -0.4005  0.2430  0.0454
10233TIP3    H152114   3.719   1.495  12.887 -1.8687  0.6077 -0.5223
10233TIP3    H252115   3.775   1.631  12.923  0.6924 -0.6038  0.3529
10234TIP3   OH252116   5.520   1.675  15.366 -0.1752  0.4318 -0.1774
10234TIP3    H152117   5.480   1.685  15.452  0.2947  0.2345  0.0694
10234TIP3    H252118   5.599   1.625  15.383 -0.8272 -0.8932 -0.9276
10235TIP3   OH252119   3.908   4.401   0.727 -0.0628 -0.2460 -0.0713
10235TIP3    H152120   3.977   4.467   0.723  0.9950 -1.3460 -0.7446
10235TIP3    H252121   3.827   4.451   0.714  0.6176  1.0329  0.4237
10236TIP3   OH252122   6.736   0.750   2.961  0.5597 -0.4679  0.4994
10236TIP3    H152123   6.657   0.756   2.907  0.9390  0.5293  0.0450
10236TIP3    H252124   6.704   0.723   3.047  0.0378 -3.1151 -0.4174
10237TIP3   OH252125   0.636   2.678  11.237 -0.1085 -0.4996  0.4863
10237TIP3    H152126   0.649   2.772  11.226  2.9898 -0.9666 -0.5684
10237TIP3    H252127   0.550   2.672  11.279 -1.6209  2.6414 -1.6962
10238TIP3   OH252128   6.049   3.682   5.789  0.3088 -0.8815  0.1407
10238TIP3    H152129   5.991   3.639   5.726  1.0407 -1.9639  0.1795
10238TIP3    H252130   5.990   3.732   5.845 -0.4917 -1.1293 -0.4536
10239TIP3   OH252131   5.358   4.447   5.042  0.1287 -0.8574  0.2817
10239TIP3    H152132   5.382   4.531   5.082 -2.6962  0.0406  0.3460
10239TIP3    H252133   5.428   4.387   5.068  1.5178  1.1281  1.4272
10240TIP3   OH252134   0.227   1.418  14.935 -0.0501 -0.9730 -0.4419
10240TIP3    H152135   0.242   1.507  14.903  0.9975 -1.5330 -1.6132
10240TIP3    H252136   0.304   1.398  14.989 -0.9526 -0.6883  1.0001
10241TIP3   OH252137   0.853   1.491  13.044 -0.0640 -0.0710 -0.7640
10241TIP3    H152138   0.901   1.452  12.971  1.2943  0.6588 -0.3042
10241TIP3    H252139   0.769   1.445  13.045 -0.1956  0.0388 -2.8872
10242TIP3   OH252140   3.268   0.870  13.115 -0.5848 -0.7124 -0.5496
10242TIP3    H152141   3.316   0.822  13.182  0.8901 -0.1872 -1.1675
10242TIP3    H252142   3.331   0.880  13.043 -1.0594  1.4437 -0.7565
10243TIP3   OH252143   6.717   5.812  11.080 -0.3798  0.1247 -0.2623
10243TIP3    H152144   6.714   5.898  11.037  1.0077  0.3693  0.0711
10243TIP3    H252145   6.725   5.749  11.008 -1.8256  0.2135 -0.5352
10244TIP3   OH252146   6.670   3.688   0.248 -0.5926 -0.0404 -0.4625
10244TIP3    H152147   6.649   3.714   0.159 -2.4498 -0.7444 -0.2750
10244TIP3    H252148   6.591   3.711   0.299  0.8329  1.4000  1.2385
10245TIP3   OH252149   5.384   0.475   4.934 -0.3935  0.2341  0.4123
10245TIP3    H152150   5.391   0.394   4.984  0.1756  0.1705  0.2405
10245TIP3    H252151   5.293   0.478   4.905 -0.7277  0.2512  1.4117
10246TIP3   OH252152   3.747   0.147   2.254  0.8055 -0.1121 -0.5942
10246TIP3    H152153   3.787   0.060   2.252  1.5491  0.1967  0.1482
10246TIP3    H252154   3.779   0.187   2.335 -0.9590  0.1918 -0.0077
10247TIP3   OH252155   6.085   4.594   6.111  0.0443 -0.0531  0.2165
10247TIP3    H152156   6.026   4.521   6.090 -0.0491  0.1242 -0.1457
10247TIP3    H252157   6.028   4.660   6.150 -0.1215  0.3957 -0.7694
10248TIP3   OH252158   4.924   0.902  13.058 -0.0556  0.0405  0.5877
10248TIP3    H152159   5.020   0.890  13.058 -0.0485  0.0714 -0.3318
10248TIP3    H252160   4.890   0.814  13.043 -0.2282 -0.1991  2.1323
10249TIP3   OH252161   2.946   1.871   2.851 -0.1196 -0.2441 -0.1339
10249TIP3    H152162   2.889   1.937   2.811 -0.7724 -2.0387 -2.4457
10249TIP3    H252163   2.909   1.857   2.938 -2.6486 -0.5653 -1.1556
10250TIP3   OH252164   2.588   4.408  13.369 -0.2676  0.7053 -0.0240
10250TIP3    H152165   2.533   4.478  13.334  0.8019  0.8727 -1.4820
10250TIP3    H252166   2.554   4.392  13.457 -1.0005  2.5521  0.0771
10251TIP3   OH252167   0.437   4.589   4.894  0.7891 -0.1248 -0.4808
10251TIP3    H152168   0.361   4.605   4.838  0.3370 -2.2270 -0.5723
10251TIP3    H252169   0.410   4.618   4.980 -0.5460 -1.7114 -0.3099
10252TIP3   OH252170   1.156   2.812   4.374  0.1500 -0.2157  0.1827
10252TIP3    H152171   1.087   2.878   4.373 -1.0923 -1.4459 -1.7638
10252TIP3    H252172   1.233   2.856   4.339 -0.2545  0.5910  0.3005
10253TIP3   OH252173   2.570   2.042  13.012  0.3687 -0.0941  0.4337
10253TIP3    H152174   2.475   2.046  13.024 -0.0530 -2.2705 -1.4971
10253TIP3    H252175   2.584   2.063  12.920  1.6734 -0.5868  0.4968
10254TIP3   OH252176   4.072   0.833  14.503  0.0968  0.0389 -0.5589
10254TIP3    H152177   4.040   0.795  14.585 -0.0644 -1.4081 -1.2647
10254TIP3    H252178   4.009   0.901  14.481  0.3288  0.6819  0.6846
10255TIP3   OH252179   4.232   4.302  13.090 -0.5410  0.0049  0.0842
10255TIP3    H152180   4.247   4.217  13.132 -2.1015  0.1795  1.0480
10255TIP3    H252181   4.178   4.283  13.014 -0.3036  0.0650 -0.1029
10256TIP3   OH252182   0.046   2.044  17.125 -0.2193  0.4695  0.4931
10256TIP3    H152183   0.104   2.120  17.129 -0.0507  0.3986 -0.3452
10256TIP3    H252184  -0.042   2.082  17.128 -0.1812  0.8917 -1.7571
10257TIP3   OH252185   5.660   2.004   4.593  0.5085  0.1567  0.1928
10257TIP3    H152186   5.670   1.917   4.554  1.3652  0.0379  0.6532
10257TIP3    H252187   5.643   1.987   4.686  0.0949  0.4705  0.1781
10258TIP3   OH252188   3.441   3.582   5.963  0.4427 -0.2715  0.4468
10258TIP3    H152189   3.455   3.650   6.028  0.3656  0.2131 -0.0336
10258TIP3    H252190   3.362   3.610   5.915  0.5614 -0.5599  0.0762
10259TIP3   OH252191   6.193   5.185   5.878  0.1196 -0.4249 -0.2417
10259TIP3    H152192   6.248   5.263   5.871  1.3553 -1.2987 -0.6399
10259TIP3    H252193   6.191   5.164   5.971 -2.3051  1.4871  0.2207
10260TIP3   OH252194   2.303   3.499  15.189 -0.4274 -0.6604  0.0174
10260TIP3    H152195   2.238   3.542  15.132  0.7631 -2.8096 -3.2590
10260TIP3    H252196   2.251   3.439  15.242 -1.4354  0.0301 -0.1414
10261TIP3   OH252197   5.651   5.508  12.916  0.0731  0.5098  0.5315
10261TIP3    H152198   5.582   5.565  12.949 -1.8328 -0.5093 -1.4241
10261TIP3    H252199   5.690   5.557  12.844 -1.2822 -0.3941 -0.8747
10262TIP3   OH252200   4.498   1.566   4.032  0.9449  0.2974  0.4218
10262TIP3    H152201   4.450   1.607   3.960  0.3961  0.1872  0.7177
10262TIP3    H252202   4.568   1.628   4.054  1.9981 -0.2831 -1.1256
10263TIP3   OH252203   3.941   0.836  13.798  0.2673  0.3852  0.0768
10263TIP3    H152204   3.941   0.856  13.705  0.2225  1.6617  0.3355
10263TIP3    H252205   4.032   0.850  13.826 -0.0132  1.4424  0.5012
10264TIP3   OH252206   2.313   0.781  14.598 -0.1802 -0.5265  0.0907
10264TIP3    H152207   2.297   0.840  14.672 -0.0191  0.9999 -1.0478
10264TIP3    H252208   2.251   0.809  14.530 -1.5091 -2.9726  0.1511
10265TIP3   OH252209   6.587   3.439   1.207  0.0392 -0.1169 -0.6416
10265TIP3    H152210   6.644   3.363   1.218 -0.4390 -0.5388 -1.0117
10265TIP3    H252211   6.505   3.402   1.173  0.1147  0.6647 -1.7292
10266TIP3   OH252212   1.581   5.861  12.909 -0.5367 -0.4115  0.0451
10266TIP3    H152213   1.673   5.883  12.895 -0.3651 -0.6364  0.7469
10266TIP3    H252214   1.533   5.934  12.871 -0.0722 -0.3187 -0.3787
10267TIP3   OH252215   1.673   1.663  15.221  0.2512  0.0725 -0.1752
10267TIP3    H152216   1.680   1.727  15.149 -0.2949  0.8317  0.4268
10267TIP3    H252217   1.761   1.627  15.229  0.1377 -0.6433 -1.7765
10268TIP3   OH252218   6.110   0.869   5.703 -0.2972  0.2353  0.6271
10268TIP3    H152219   6.171   0.929   5.746  0.2003  0.6150 -0.5665
10268TIP3    H252220   6.038   0.926   5.674 -1.6456 -0.3228  2.7136
10269TIP3   OH252221   3.995   5.045  16.725 -0.5792 -0.2295  0.1417
10269TIP3    H152222   3.964   4.995  16.650 -1.2551 -0.6789  0.7111
10269TIP3    H252223   3.943   5.013  16.798  2.0926 -2.0122  1.4335
10270TIP3   OH252224   5.559   5.068  12.961  0.4681 -0.5180  0.0880
10270TIP3    H152225   5.606   5.042  13.041  1.3285  0.5958 -0.0432
10270TIP3    H252226   5.536   5.159  12.975  0.3064 -0.4162 -0.7937
10271TIP3   OH252227   5.267   3.286   2.003 -0.2672  0.2750  0.7728
10271TIP3    H152228   5.314   3.203   2.012 -0.4602 -0.0067 -0.6833
10271TIP3    H252229   5.328   3.343   1.957 -0.7087  0.4498  0.4038
10272TIP3   OH252230   2.444   5.675   4.820 -0.1621  0.1026  0.1666
10272TIP3    H152231   2.395   5.598   4.791  0.2064  0.0185 -0.2291
10272TIP3    H252232   2.526   5.640   4.855  0.3575  0.3750 -0.7656
10273TIP3   OH252233   0.617   4.265   4.587  0.2296  0.4509 -0.2622
10273TIP3    H152234   0.652   4.354   4.594 -0.5014  0.7868 -0.7949
10273TIP3    H252235   0.525   4.273   4.613  0.1908 -0.1652 -0.2056
10274TIP3   OH252236   3.348   2.801   0.164  0.3052  0.4148  0.6432
10274TIP3    H152237   3.373   2.840   0.080 -3.8020 -1.4428 -1.7666
10274TIP3    H252238   3.405   2.725   0.174  1.2147  0.9753 -0.1734
10275TIP3   OH252239   6.715   2.687   2.732  0.0125  0.0858 -1.0773
10275TIP3    H152240   6.655   2.691   2.807  0.1395 -1.0058 -0.8989
10275TIP3    H252241   6.673   2.627   2.671 -0.4147  1.4839 -2.2136
10276TIP3   OH252242   3.838   3.976  14.112 -0.7402 -0.4413  0.7342
10276TIP3    H152243   3.788   3.895  14.103  0.7201 -1.4370  1.1003
10276TIP3    H252244   3.898   3.976  14.037  1.8019 -1.6452  2.6102
10277TIP3   OH252245   4.765   5.494  13.304 -0.2323 -0.3703  0.2709
10277TIP3    H152246   4.794   5.403  13.298  0.8229  0.0112 -0.9279
10277TIP3    H252247   4.722   5.510  13.220  3.4180  1.4362 -1.4707
10278TIP3   OH252248   0.588   2.023   0.608 -0.2790  0.4333 -0.0204
10278TIP3    H152249   0.500   1.989   0.591 -0.0958 -0.2686  0.4015
10278TIP3    H252250   0.573   2.107   0.652 -0.7561 -0.3197  1.2994
10279TIP3   OH252251   5.778   2.467   6.195 -0.3083 -0.5712 -0.4456
10279TIP3    H152252   5.723   2.416   6.255 -2.3607  2.5838  0.6465
10279TIP3    H252253   5.858   2.484   6.245 -0.4911 -0.9859 -0.0057
10280TIP3   OH252254   2.181   5.848  11.920 -0.0634 -0.0516 -0.4096
10280TIP3    H152255   2.189   5.770  11.865 -0.9742  0.3208 -1.0823
10280TIP3    H252256   2.134   5.819  11.997  0.5057 -0.3931 -0.1847
10281TIP3   OH252257   6.557   4.020  11.912  0.1243 -0.3247 -0.0574
10281TIP3    H152258   6.543   3.926  11.900 -2.2171  0.0156 -0.3400
10281TIP3    H252259   6.491   4.047  11.975  0.3121  1.2468 -0.4850
10282TIP3   OH252260   2.245   2.469   1.545 -0.0986  0.1147  0.1827
10282TIP3    H152261   2.185   2.505   1.479 -0.8719 -0.9969  0.2571
10282TIP3    H252262   2.310   2.421   1.494 -0.3713 -0.2716  0.1964
10283TIP3   OH252263   0.037   0.319  16.259 -0.3061  0.1110 -0.6583
10283TIP3    H152264   0.020   0.411  16.281 -1.5853 -0.0812 -0.7229
10283TIP3    H252265   0.001   0.270  16.333 -0.0683 -0.3488 -0.8438
10284TIP3   OH252266   4.959   2.433   2.855  0.1662  0.8235 -0.6727
10284TIP3    H152267   5.034   2.376   2.870 -0.6201  0.1866  1.0964
10284TIP3    H252268   4.914   2.394   2.780 -0.1216 -0.6620  0.2458
10285TIP3   OH252269   3.121   0.556  13.542 -0.0266  0.5288  0.1585
10285TIP3    H152270   3.151   0.644  13.518  1.4491 -0.2156 -0.8380
10285TIP3    H252271   3.171   0.534  13.621 -0.2168  0.4838  0.2674
10286TIP3   OH252272   6.238   0.322   4.931  0.4468  0.6326  0.1663
10286TIP3    H152273   6.161   0.296   4.982 -0.0367 -1.0797 -1.3623
10286TIP3    H252274   6.225   0.415   4.914 -1.0822  0.4567  0.2764
10287TIP3   OH252275   3.757   5.210   6.344  0.6932  0.8279 -0.2325
10287TIP3    H152276   3.760   5.123   6.384  0.0726  0.8905 -0.0405
10287TIP3    H252277   3.666   5.220   6.315  0.1134  2.3589  1.8856
10288TIP3   OH252278   4.206   1.504  14.928 -0.0851 -0.1445  0.1356
10288TIP3    H152279   4.261   1.582  14.925  1.0841 -0.8330  1.7681
10288TIP3    H252280   4.266   1.432  14.908 -0.6095 -0.8300  0.9454
10289TIP3   OH252281   0.364   4.941   1.948 -0.0226 -0.1877  0.7604
10289TIP3    H152282   0.272   4.919   1.957  0.1392 -0.5082  1.7194
10289TIP3    H252283   0.400   4.875   1.889 -0.4472  0.0885  0.1811
10290TIP3   OH252284   0.479   2.762  13.173 -0.0778  0.4374  0.1930
10290TIP3    H152285   0.427   2.725  13.102 -0.2839 -1.7775  1.4005
10290TIP3    H252286   0.563   2.716  13.168  0.2403  0.9235  0.8183
10291TIP3   OH252287   0.471   3.513   5.234  0.5904  0.3436 -0.4541
10291TIP3    H152288   0.415   3.515   5.311  1.3058  1.9873  0.0516
10291TIP3    H252289   0.560   3.507   5.268  0.9516  1.5601 -1.1070
10292TIP3   OH252290   2.564   6.733  16.845  0.0563 -0.3159  0.0880
10292TIP3    H152291   2.494   6.668  16.846  0.0902 -0.3887 -1.0414
10292TIP3    H252292   2.566   6.768  16.934 -2.8747  1.2101 -0.3090
10293TIP3   OH252293   1.903   0.232   2.964 -0.1717  0.2747 -0.7497
10293TIP3    H152294   1.876   0.320   2.993  0.9612  0.1019  0.9236
10293TIP3    H252295   1.902   0.179   3.044  0.7890 -0.8246 -1.4436
10294TIP3   OH252296   6.423   6.396  17.165 -0.4117 -0.0981 -0.1878
10294TIP3    H152297   6.422   6.478  17.115 -1.7323  0.2126  0.2914
10294TIP3    H252298   6.380   6.419  17.248  0.4076 -0.9609  0.4877
10295TIP3   OH252299   1.769   1.340   1.966  0.1552  0.4336 -0.0952
10295TIP3    H152300   1.770   1.380   1.879 -1.4799 -0.3710 -0.5251
10295TIP3    H252301   1.776   1.246   1.949 -0.5103  0.2453  0.6139
10296TIP3   OH252302   1.937   1.360   3.160 -0.5993 -0.2123 -0.5299
10296TIP3    H152303   2.011   1.324   3.209 -1.4486 -1.2209  0.0708
10296TIP3    H252304   1.938   1.454   3.179  1.5102  0.1126 -1.9066
10297TIP3   OH252305   3.518   5.298  14.891  0.2848  0.0153 -0.2346
10297TIP3    H152306   3.563   5.225  14.934 -0.5626 -0.1692  0.3713
10297TIP3    H252307   3.497   5.358  14.962 -2.1306 -0.8121 -0.1468
10298TIP3   OH252308   4.407   1.380   2.147 -0.4737  0.2007  0.3194
10298TIP3    H152309   4.470   1.447   2.120  0.5046 -0.3260  1.2501
10298TIP3    H252310   4.354   1.423   2.214  1.4139 -0.4943  2.3541
10299TIP3   OH252311   0.514   4.387  12.459  0.1222 -0.5354  0.0668
10299TIP3    H152312   0.511   4.292  12.473 -0.7179 -0.5700 -0.2635
10299TIP3    H252313   0.426   4.417  12.483  0.3394  0.1466  0.0380
10300TIP3   OH252314   1.345   4.020  16.645  0.0347 -0.2828  0.0203
10300TIP3    H152315   1.307   4.052  16.564 -1.5775 -2.1320 -0.0432
10300TIP3    H252316   1.371   4.098  16.693  3.2705  0.8870 -3.1928
10301TIP3   OH252317   3.790   4.841   3.163 -0.1978 -0.2331 -0.2229
10301TIP3    H152318   3.795   4.754   3.123 -0.9698  0.0195 -0.9035
10301TIP3    H252319   3.875   4.854   3.205  1.0875 -0.0851 -2.7021
10302TIP3   OH252320   0.561   0.959  16.417 -0.0737  0.2245 -0.0523
10302TIP3    H152321   0.655   0.942  16.408  0.3715  0.7968  2.7577
10302TIP3    H252322   0.519   0.889  16.366  1.8601 -0.7507 -0.3855
10303TIP3   OH252323   5.893   0.572   1.685 -0.0510 -0.1170  0.6472
10303TIP3    H152324   5.939   0.625   1.751 -1.8560  1.7715  0.4938
10303TIP3    H252325   5.946   0.583   1.606  0.7615 -0.3309  1.1450
10304TIP3   OH252326   1.043   0.850  13.833  0.4091 -0.6212  0.7090
10304TIP3    H152327   0.965   0.906  13.836  1.0132  0.2269  1.0633
10304TIP3    H252328   1.060   0.838  13.739  1.1480  1.0832  0.5826
10305TIP3   OH252329   0.229   4.157   4.979  0.2107 -0.0622  0.2500
10305TIP3    H152330   0.309   4.204   4.957  0.5181 -1.1924 -1.1948
10305TIP3    H252331   0.196   4.126   4.895 -1.8859  0.5722  0.7888
10306TIP3   OH252332   1.323   6.284  14.338 -0.2038 -0.1424  0.0792
10306TIP3    H152333   1.311   6.365  14.388  1.4031  0.8784 -1.0750
10306TIP3    H252334   1.403   6.298  14.289 -0.5482 -1.9713 -1.1157
10307TIP3   OH252335   0.267   4.676   3.322 -0.0988 -0.1474 -0.0311
10307TIP3    H152336   0.258   4.582   3.336 -0.7834  0.2269  2.5961
10307TIP3    H252337   0.339   4.702   3.380  0.1495  0.9399 -0.7974
10308TIP3   OH252338   1.382   6.013  12.042  0.0215  0.3078  0.4869
10308TIP3    H152339   1.352   6.056  11.962  0.4051  0.6537  0.5260
10308TIP3    H252340   1.459   5.963  12.015  0.5507  0.9510  0.7618
10309TIP3   OH252341   0.975   3.649  14.105  0.1269 -0.6944  0.0404
10309TIP3    H152342   1.070   3.655  14.108  0.0515  1.0896  0.0606
10309TIP3    H252343   0.957   3.593  14.030  1.1971  0.2220 -0.9482
10310TIP3   OH252344   2.540   0.237  11.058  0.6273 -0.0946 -0.1243
10310TIP3    H152345   2.526   0.149  11.022 -1.9105  0.0979  0.1989
10310TIP3    H252346   2.524   0.228  11.151  0.9010  0.6028 -0.0043
10311TIP3   OH252347   0.387   2.341  13.622  0.8529 -0.4301  0.5825
10311TIP3    H152348   0.368   2.401  13.549 -0.8902 -0.8621  0.6411
10311TIP3    H252349   0.334   2.264  13.603  0.7292 -0.7311  2.0889
10312TIP3   OH252350   4.352   5.080  12.287 -0.0188 -0.0518 -1.0289
10312TIP3    H152351   4.373   4.992  12.257  1.1760 -0.1624  0.0075
10312TIP3    H252352   4.327   5.128  12.208 -0.8603 -1.3565 -1.5758
10313TIP3   OH252353   3.622   4.732   2.577  0.2962  0.7859  0.8446
10313TIP3    H152354   3.710   4.697   2.587  0.8120  1.5990 -0.6213
10313TIP3    H252355   3.570   4.658   2.544  0.7745  0.7008  0.2760
10314TIP3   OH252356   4.250   4.935  17.261  0.2718  0.0432  0.0329
10314TIP3    H152357   4.182   4.970  17.319  0.4734  0.0652  0.2557
10314TIP3    H252358   4.332   4.958  17.304  0.4905  1.6380 -1.1380
10315TIP3   OH252359   0.021   3.982   1.859  0.7021 -0.0663 -0.2061
10315TIP3    H152360   0.088   4.050   1.863  0.9962 -0.3988  1.5409
10315TIP3    H252361   0.067   3.906   1.823  1.1450 -0.1230  0.4449
10316TIP3   OH252362   2.431   1.921   6.323 -0.2782  0.1852 -0.2635
10316TIP3    H152363   2.404   1.907   6.232 -0.1281  0.8841 -0.4255
10316TIP3    H252364   2.522   1.895   6.325 -0.0432  0.9510 -0.5253
10317TIP3   OH252365   6.085   6.157   1.797  0.2096 -0.4170  0.2757
10317TIP3    H152366   6.115   6.239   1.836  0.9170 -0.5790  0.0929
10317TIP3    H252367   6.106   6.090   1.861 -1.0978 -0.3750  0.7703
10318TIP3   OH252368   4.653   3.291   5.212  0.4490 -0.1210 -0.5347
10318TIP3    H152369   4.605   3.372   5.227 -0.0886 -0.5385  0.0655
10318TIP3    H252370   4.678   3.295   5.119 -0.1388  0.4298 -0.6790
10319TIP3   OH252371   2.561   2.293  15.876 -0.2337 -0.3411 -0.0250
10319TIP3    H152372   2.555   2.286  15.971 -0.3674 -1.2393 -0.0910
10319TIP3    H252373   2.517   2.214  15.843 -0.5773  0.1820 -0.8373
10320TIP3   OH252374   3.732   5.646   4.254 -0.1676 -0.2506 -0.0853
10320TIP3    H152375   3.679   5.670   4.178 -1.6056  0.5406  1.1005
10320TIP3    H252376   3.668   5.613   4.318  1.0847 -1.6499  0.5185
10321TIP3   OH252377   1.647   2.759   2.213 -0.9389 -0.7159  0.0491
10321TIP3    H152378   1.612   2.778   2.126  1.2362 -3.3528 -1.5396
10321TIP3    H252379   1.578   2.708   2.256 -1.0703 -1.5089 -1.0739
10322TIP3   OH252380   3.851   4.921   1.682 -0.4968  0.0794 -0.3523
10322TIP3    H152381   3.898   4.882   1.608  0.8020 -0.6089  0.8019
10322TIP3    H252382   3.823   4.846   1.735 -0.5721  0.6014  0.3652
10323TIP3   OH252383   0.318   4.808   0.833 -0.0177 -1.0336  0.1068
10323TIP3    H152384   0.267   4.873   0.881  1.0881 -1.0235  1.3015
10323TIP3    H252385   0.340   4.852   0.751  1.0706  0.3041  1.0680
10324TIP3   OH252386   4.820   0.189  10.512 -0.2662 -0.4455  0.5438
10324TIP3    H152387   4.820   0.234  10.597 -0.1349  2.2430 -0.7594
10324TIP3    H252388   4.735   0.209  10.475  0.4338  0.2164 -0.7766
10325TIP3   OH252389   4.841   3.268  15.430 -0.3271  0.0892  0.3609
10325TIP3    H152390   4.769   3.315  15.471 -0.3444  1.3376 -0.9998
10325TIP3    H252391   4.802   3.225  15.354  0.3956  1.1123 -0.6218
10326TIP3   OH252392   1.804   0.485   3.006 -0.2836  0.5162  0.2655
10326TIP3    H152393   1.794   0.553   3.072  1.1647  1.2049 -0.1861
10326TIP3    H252394   1.782   0.528   2.923  0.0145  0.2586  0.0503
10327TIP3   OH252395   6.220   2.419  11.923 -0.2017  0.3566  0.4305
10327TIP3    H152396   6.203   2.329  11.897  1.7982 -0.1271  0.6734
10327TIP3    H252397   6.215   2.469  11.841  0.4024 -0.2593  0.0120
10328TIP3   OH252398   4.639   1.764   4.557 -0.2178  0.0542 -0.1077
10328TIP3    H152399   4.701   1.836   4.547 -0.7555  0.6087  0.4598
10328TIP3    H252400   4.554   1.807   4.571 -0.2846 -0.6429  2.0149
10329TIP3   OH252401   1.812   5.900   5.897  0.3039  0.0720 -0.1896
10329TIP3    H152402   1.868   5.844   5.843 -0.3015 -1.0464  0.3045
10329TIP3    H252403   1.776   5.965   5.837  0.0860 -0.7965 -1.0094
10330TIP3   OH252404   1.363   1.083   3.081 -0.2261  0.1781 -0.2407
10330TIP3    H152405   1.289   1.136   3.049 -0.4340  0.4631  0.6652
10330TIP3    H252406   1.429   1.090   3.012  0.5110  3.2196  0.6205
10331TIP3   OH252407   4.133   0.783   4.485  0.0199 -0.0478 -0.4838
10331TIP3    H152408   4.203   0.786   4.419  0.5049  2.2943  0.0844
10331TIP3    H252409   4.096   0.871   4.486 -0.5723 -0.2643  1.7608
10332TIP3   OH252410   4.095   1.139   4.022 -0.5034 -0.5867 -0.2155
10332TIP3    H152411   4.022   1.147   3.960 -1.5084 -0.2785  0.9835
10332TIP3    H252412   4.133   1.226   4.025  0.3416 -0.8975 -1.3244
10333TIP3   OH252413   0.224   1.118   4.900  0.2660  0.4438  1.0001
10333TIP3    H152414   0.158   1.049   4.908  2.1215 -1.2788  2.3369
10333TIP3    H252415   0.191   1.174   4.829 -0.8100 -2.3938 -0.9306
10334TIP3   OH252416   1.266   0.261   5.439  0.5771  0.0661  0.2286
10334TIP3    H152417   1.216   0.263   5.357 -0.1947 -2.0756  0.5980
10334TIP3    H252418   1.288   0.169   5.452  0.8937  0.3919  2.3095
10335TIP3   OH252419   2.396   2.480  14.335  0.1984  0.1902  0.0657
10335TIP3    H152420   2.362   2.447  14.252 -0.0404 -1.1378  0.6648
10335TIP3    H252421   2.319   2.491  14.391  0.4137  0.4751  0.3081
10336TIP3   OH252422   0.625   6.468  15.684 -0.3136 -0.2456 -0.2124
10336TIP3    H152423   0.531   6.449  15.683 -0.8402  1.8066  1.7752
10336TIP3    H252424   0.666   6.384  15.706 -1.8322 -0.8239  0.5758
10337TIP3   OH252425   4.285   0.273  12.105  0.2720 -0.3544  0.5746
10337TIP3    H152426   4.287   0.180  12.084  4.7836 -0.5609  0.9211
10337TIP3    H252427   4.313   0.317  12.024 -0.0056  0.5243  0.9434
10338TIP3   OH252428   6.143   4.361  10.804 -0.1109 -0.1197 -0.1648
10338TIP3    H152429   6.215   4.389  10.748  0.6696 -0.4486  0.6382
10338TIP3    H252430   6.067   4.357  10.746  0.6827 -0.5285 -1.2036
10339TIP3   OH252431   6.308   3.664  13.852  0.2738  0.6398 -0.0915
10339TIP3    H152432   6.275   3.575  13.842  0.8496  0.6241 -2.6004
10339TIP3    H252433   6.258   3.700  13.925 -1.8573 -0.9109 -0.6753
10340TIP3   OH252434   0.292   4.848  11.956  0.7010  0.6572  0.3956
10340TIP3    H152435   0.237   4.872  11.881 -1.0319  0.4080  1.5187
10340TIP3    H252436   0.369   4.808  11.918 -1.3684 -2.1134 -1.2789
10341TIP3   OH252437   6.293   4.333  14.060 -0.1432  0.1513 -0.4248
10341TIP3    H152438   6.340   4.257  14.026 -0.6756 -0.7704  0.8139
10341TIP3    H252439   6.311   4.402  13.997  0.0119 -1.1022 -1.8178
10342TIP3   OH252440   2.782   4.239  14.100  0.0240  0.0183  0.6524
10342TIP3    H152441   2.846   4.240  14.171  1.8645 -0.0350 -0.9146
10342TIP3    H252442   2.829   4.198  14.027 -1.3182  1.2916 -0.9993
10343TIP3   OH252443   0.870   1.040  13.879 -0.3312 -0.6709  0.5562
10343TIP3    H152444   0.845   1.080  13.796  0.7153  0.1441  0.6115
10343TIP3    H252445   0.790   1.000  13.912 -0.9398 -0.3193 -0.4628
10344TIP3   OH252446   3.850   6.535   2.999  0.1757  0.2526 -0.1180
10344TIP3    H152447   3.756   6.550   2.989 -0.2500 -1.9779 -0.0353
10344TIP3    H252448   3.858   6.486   3.081  1.4625  0.7303  0.0698
10345TIP3   OH252449   0.910   0.388  15.855 -0.6152 -0.5275  0.2100
10345TIP3    H152450   0.997   0.405  15.818 -0.4755  0.7022  1.0294
10345TIP3    H252451   0.853   0.385  15.778 -0.2746  1.5924 -0.1927
10346TIP3   OH252452   4.069   1.148  12.107 -0.2816 -0.6199 -0.7932
10346TIP3    H152453   4.086   1.085  12.177 -2.9841 -0.4956  0.0745
10346TIP3    H252454   4.156   1.181  12.082  0.7843 -0.5839  2.5611
10347TIP3   OH252455   2.495   3.763   3.928 -0.4271 -0.2878 -0.1957
10347TIP3    H152456   2.454   3.687   3.970 -1.1784  0.0730 -0.2657
10347TIP3    H252457   2.511   3.734   3.838  0.3788 -0.7624  0.0920
10348TIP3   OH252458   1.683   5.612  13.777 -0.3574  0.1404  0.0120
10348TIP3    H152459   1.682   5.665  13.697  1.0195  0.9456  0.5009
10348TIP3    H252460   1.750   5.652  13.832  0.3763 -1.8154  0.6310
10349TIP3   OH252461   2.944   5.428  12.539 -0.1210  0.8547 -0.5565
10349TIP3    H152462   3.015   5.480  12.577  0.9202 -0.6130 -0.4086
10349TIP3    H252463   2.964   5.424  12.446 -0.9063  1.7617 -0.7781
10350TIP3   OH252464   6.030   3.994  16.605  0.1837  0.1349  0.2380
10350TIP3    H152465   5.977   4.045  16.544 -0.7143  0.1852  1.0325
10350TIP3    H252466   6.060   4.058  16.670  1.0486  0.0656 -0.0833
10351TIP3   OH252467   6.584   1.189   1.339 -0.1678 -0.0224 -0.7688
10351TIP3    H152468   6.649   1.185   1.269 -1.3402 -1.1014 -1.8414
10351TIP3    H252469   6.588   1.102   1.379  1.1331  0.8585  1.1609
10352TIP3   OH252470   5.773   1.823  15.939  0.1513  0.8095 -0.1392
10352TIP3    H152471   5.800   1.840  16.029  0.7009  0.3907 -0.2156
10352TIP3    H252472   5.711   1.892  15.918  0.1726  1.0211  0.4967
10353TIP3   OH252473   0.370   6.462   4.023  0.2645 -0.3065  0.1013
10353TIP3    H152474   0.337   6.530   4.081 -1.0919  0.2862 -1.2791
10353TIP3    H252475   0.400   6.393   4.081 -0.5069  0.4970  1.5059
10354TIP3   OH252476   3.320   4.215  12.593 -0.0482 -0.1048 -0.0873
10354TIP3    H152477   3.240   4.191  12.548 -0.3155 -1.7597  1.1688
10354TIP3    H252478   3.324   4.156  12.669  2.0123  0.3712  0.2427
10355TIP3   OH252479   2.292   1.772  13.150  0.1167  0.7057 -0.0160
10355TIP3    H152480   2.261   1.755  13.239 -0.2955 -0.0334 -0.2986
10355TIP3    H252481   2.213   1.771  13.096  0.4532  0.3422 -0.5097
10356TIP3   OH252482   4.778   2.947  16.508  0.1019  0.4599  0.1164
10356TIP3    H152483   4.785   2.870  16.566  0.4464 -0.4538 -1.0979
10356TIP3    H252484   4.754   2.911  16.423  0.3040  1.7106 -0.4939
10357TIP3   OH252485   3.888   1.861   2.926  0.1415 -0.3959  0.1773
10357TIP3    H152486   3.805   1.888   2.886  0.0050  0.0719  0.7705
10357TIP3    H252487   3.950   1.929   2.900 -0.2768  0.7114  1.9416
10358TIP3   OH252488   6.554   1.432  12.737 -0.2805 -0.3023  0.4289
10358TIP3    H152489   6.622   1.424  12.805 -0.2190  1.5849  0.6322
10358TIP3    H252490   6.499   1.504  12.766  0.8894  1.9516 -2.4147
10359TIP3   OH252491   2.686   0.575  17.154  0.6057  0.2631 -0.3106
10359TIP3    H152492   2.685   0.670  17.143 -0.4106  0.0715 -2.2794
10359TIP3    H252493   2.682   0.540  17.065 -0.0995 -1.6367  0.4051
10360TIP3   OH252494   2.588   5.056   2.598  0.0453  0.3632 -0.0475
10360TIP3    H152495   2.554   5.004   2.670 -0.2090 -0.9233 -1.0602
10360TIP3    H252496   2.663   5.007   2.566 -0.2123  0.5841 -1.0389
10361TIP3   OH252497   3.948   5.039  13.313  0.1778  0.8257  0.9132
10361TIP3    H152498   3.907   5.023  13.228 -0.5338 -2.2505  1.7225
10361TIP3    H252499   3.896   5.110  13.351 -0.4212  1.2357 -0.6025
10362TIP3   OH252500   4.605   1.307   6.549 -0.3862 -0.0964 -0.0340
10362TIP3    H152501   4.586   1.396   6.520  0.4253 -0.1909 -0.8984
10362TIP3    H252502   4.630   1.261   6.469  0.1375 -0.8511  0.5504
10363TIP3   OH252503   3.889   0.710   1.218 -0.6365 -0.2525  0.2847
10363TIP3    H152504   3.977   0.709   1.181 -1.4351  0.5048 -1.7636
10363TIP3    H252505   3.875   0.620   1.248  0.9705 -0.2779  1.0695
10364TIP3   OH252506   0.545   2.379   5.251 -0.4215 -0.2476 -0.5268
10364TIP3    H152507   0.480   2.327   5.203 -1.6371  0.1097  0.6703
10364TIP3    H252508   0.568   2.325   5.327 -2.7082  1.3850  1.4771
10365TIP3   OH252509   4.459   4.059   2.704 -0.1811  0.2765  0.1097
10365TIP3    H152510   4.420   3.974   2.724  0.6394 -0.0903  0.1716
10365TIP3    H252511   4.527   4.040   2.640  0.4571  0.7853  0.6165
10366TIP3   OH252512   3.755   4.361  11.223  0.5382 -0.1965 -0.0388
10366TIP3    H152513   3.766   4.433  11.161 -0.4790  0.8423  0.9328
10366TIP3    H252514   3.812   4.292  11.190  0.5869  0.5882 -1.6988
10367TIP3   OH252515   1.169   2.757   5.391 -0.4131 -0.1227 -0.0734
10367TIP3    H152516   1.164   2.829   5.328  2.0275  0.1678 -0.0197
10367TIP3    H252517   1.232   2.696   5.353 -1.4271 -1.6073  0.5303
10368TIP3   OH252518   6.040   6.344   2.987 -0.5490  0.2601 -0.4886
10368TIP3    H152519   5.961   6.327   3.037 -1.0058  1.8897 -0.5799
10368TIP3    H252520   6.008   6.383   2.905  0.3143  0.1587 -0.8858
10369TIP3   OH252521   2.237   3.507   1.971 -0.0066  0.5310  0.6798
10369TIP3    H152522   2.282   3.455   1.905  2.2571 -1.1687  3.3516
10369TIP3    H252523   2.195   3.443   2.028 -2.1204  1.9466  0.8454
10370TIP3   OH252524   4.423   4.056   0.068  0.3187 -0.0730  0.0982
10370TIP3    H152525   4.373   3.987   0.025 -0.9212  1.5264 -1.1543
10370TIP3    H252526   4.446   4.116  -0.003  0.8198  1.1274  1.2456
10371TIP3   OH252527   4.003   4.426   2.720  0.2900 -0.2089  0.5049
10371TIP3    H152528   4.060   4.497   2.750 -1.1756  0.6305  1.3636
10371TIP3    H252529   4.006   4.362   2.791  0.6424 -0.4661  0.2650
10372TIP3   OH252530   0.316   5.683   3.733  0.1660 -0.3957  0.8486
10372TIP3    H152531   0.300   5.599   3.690  0.4723 -0.0436  0.0190
10372TIP3    H252532   0.229   5.723   3.740  0.2502  0.1280 -0.7157
10373TIP3   OH252533   1.086   1.870  13.494 -0.1954  0.3718  0.4665
10373TIP3    H152534   1.021   1.885  13.425  1.0148  1.3729 -0.5068
10373TIP3    H252535   1.035   1.867  13.575 -1.8460 -2.2322 -0.5347
10374TIP3   OH252536   3.367   5.809   3.532 -0.0175  0.1173 -0.3319
10374TIP3    H152537   3.397   5.760   3.608  0.1974  0.4131 -0.2287
10374TIP3    H252538   3.293   5.861   3.564  0.1162  0.2936 -0.3096
10375TIP3   OH252539   6.521   5.928  12.661 -0.8858 -0.0535  0.1729
10375TIP3    H152540   6.594   5.988  12.645 -1.6471  0.3828 -2.0960
10375TIP3    H252541   6.485   5.956  12.745  0.8549  0.4250  0.8023
10376TIP3   OH252542   5.343   0.586   4.420  0.4421 -0.1279 -0.0059
10376TIP3    H152543   5.361   0.494   4.438  0.3475  0.1503  1.6311
10376TIP3    H252544   5.427   0.622   4.392  0.3498 -0.8116 -1.2651
10377TIP3   OH252545   2.003   3.864  13.394  0.0514 -0.0427 -0.1961
10377TIP3    H152546   2.064   3.927  13.357  0.8799 -0.3074  0.6573
10377TIP3    H252547   1.916   3.895  13.368  0.3539  2.0841  1.1115
10378TIP3   OH252548   1.650   1.331   3.233  0.0420  0.0418 -0.3388
10378TIP3    H152549   1.743   1.328   3.210  0.4121  1.4304  0.8260
10378TIP3    H252550   1.614   1.249   3.200  1.4960 -0.1266 -1.5877
10379TIP3   OH252551   4.955   1.774   3.582 -0.5175  0.1247 -0.5124
10379TIP3    H152552   4.886   1.806   3.523 -1.2768  0.6453  0.6242
10379TIP3    H252553   4.930   1.683   3.599 -1.7022  0.6773  0.9241
10380TIP3   OH252554   4.893   1.412   5.095 -0.2451  0.4895  0.5032
10380TIP3    H152555   4.901   1.351   5.022  0.2287  1.5183 -0.3127
10380TIP3    H252556   4.910   1.358   5.173  0.9035 -0.2702 -0.2477
10381TIP3   OH252557   5.587   2.689   4.931 -0.0143  0.0477  0.0833
10381TIP3    H152558   5.518   2.634   4.892  0.3692 -0.2488 -0.1835
10381TIP3    H252559   5.593   2.659   5.021  1.0862 -1.2510 -0.4001
10382TIP3   OH252560   5.087   0.684   1.922 -0.3022  0.5641  0.2738
10382TIP3    H152561   5.055   0.625   1.854  0.9389 -1.0782  1.0498
10382TIP3    H252562   5.149   0.741   1.876 -0.4123  0.3030 -0.2078
10383TIP3   OH252563   0.594   1.131  13.929  0.2330  0.2677 -0.3102
10383TIP3    H152564   0.579   1.197  13.997  0.9395  1.5883 -1.3765
10383TIP3    H252565   0.649   1.176  13.865  1.7076 -1.7308 -0.5353
10384TIP3   OH252566   4.653   2.693  16.073  0.3614  0.4559  0.4700
10384TIP3    H152567   4.635   2.603  16.098 -0.6641  0.9079  1.4461
10384TIP3    H252568   4.575   2.720  16.024  0.3610  1.0205  0.7756
10385TIP3   OH252569   4.791   2.843   5.153 -0.2049 -0.0604  0.0585
10385TIP3    H152570   4.813   2.755   5.124  0.9428 -0.5446  2.1979
10385TIP3    H252571   4.696   2.850   5.141 -0.3340 -1.6538  0.0375
10386TIP3   OH252572   5.764   0.486   3.846  0.1220 -0.0472 -0.0651
10386TIP3    H152573   5.802   0.543   3.780 -0.9669  2.1854  1.1342
10386TIP3    H252574   5.839   0.443   3.887  0.9047 -0.2634 -1.6220
10387TIP3   OH252575   4.635   5.722   6.446 -0.1511  0.2166  0.2015
10387TIP3    H152576   4.673   5.635   6.452 -0.6720  0.0134  0.6713
10387TIP3    H252577   4.701   5.780   6.483 -0.1191 -0.0751  0.6094
10388TIP3   OH252578   6.248   2.357  17.374 -0.3830 -0.6920 -0.2998
10388TIP3    H152579   6.238   2.377  17.467  1.9297  0.4202 -0.2174
10388TIP3    H252580   6.183   2.412  17.330  0.3822  0.9412  0.5174
10389TIP3   OH252581   4.264   3.352  12.728 -0.0564  0.3442 -0.7965
10389TIP3    H152582   4.181   3.344  12.775 -0.9639  0.4638 -2.2994
10389TIP3    H252583   4.275   3.268  12.685  1.2562 -0.1042  0.3801
10390TIP3   OH252584   4.514   6.621  14.738 -0.1105  0.2624 -0.0913
10390TIP3    H152585   4.592   6.675  14.742 -0.3179  0.4904  1.4137
10390TIP3    H252586   4.523   6.571  14.657  1.5402  0.3500  0.0180
10391TIP3   OH252587   6.693   0.375   0.007  0.2558  0.1710  0.0944
10391TIP3    H152588   6.756   0.438   0.041  0.6893 -0.0361 -0.3213
10391TIP3    H252589   6.715   0.293   0.050  0.9556 -0.1478 -0.8292
10392TIP3   OH252590   5.844   1.161   0.324  0.6136  0.4509  0.4819
10392TIP3    H152591   5.785   1.092   0.292 -0.0187  0.1297  2.2236
10392TIP3    H252592   5.922   1.154   0.268  0.5755 -1.7133  0.6142
10393TIP3   OH252593   3.340   2.938  11.687 -0.5623 -0.4748  0.1796
10393TIP3    H152594   3.258   2.963  11.730  1.1691  1.2347  2.7922
10393TIP3    H252595   3.364   2.855  11.727 -0.0861  0.0040  0.9256
10394TIP3   OH252596   2.224   3.017  14.781 -0.7133  0.1534 -0.3671
10394TIP3    H152597   2.133   2.989  14.786 -0.1495 -2.0847 -1.3253
10394TIP3    H252598   2.268   2.946  14.734  0.9892  2.4773 -2.5097
10395TIP3   OH252599   0.001   3.926   1.513 -0.4045  0.1823  0.4534
10395TIP3    H152600  -0.061   3.859   1.543  0.4596 -0.7673  0.1495
10395TIP3    H252601  -0.019   3.937   1.420  1.4397 -1.9296 -0.2796
10396TIP3   OH252602   3.357   0.084  12.055 -0.1681 -0.5983  0.6850
10396TIP3    H152603   3.351   0.176  12.081 -1.0590 -0.4252 -0.0391
10396TIP3    H252604   3.420   0.084  11.983  0.4635 -0.6922  1.2332
10397TIP3   OH252605   0.803   6.700  14.895  0.1153  0.2551  0.3578
10397TIP3    H152606   0.813   6.777  14.951  0.8960  0.1899  0.3075
10397TIP3    H252607   0.720   6.715  14.850 -0.5318  0.3113  1.5142
10398TIP3   OH252608   4.363   4.888   3.015  0.3258  0.5852  0.2141
10398TIP3    H152609   4.338   4.979   3.003  1.4782  1.0013  0.8709
10398TIP3    H252610   4.281   4.842   3.030 -0.3765  1.3285 -1.1401
10399TIP3   OH252611   1.493   1.186   4.800 -0.3377 -0.0311  0.1133
10399TIP3    H152612   1.465   1.249   4.867  0.2647 -2.1800  2.5694
10399TIP3    H252613   1.584   1.207   4.784 -0.3705  0.2524  0.2825
10400TIP3   OH252614   5.987   0.448   5.030  0.4848 -0.0096 -0.3326
10400TIP3    H152615   6.016   0.526   5.076 -2.1940  0.8365  0.0759
10400TIP3    H252616   5.982   0.475   4.938  0.3862  0.0254 -0.3165
10401TIP3   OH252617   2.696   5.440  12.108  0.4706  0.4427  0.6815
10401TIP3    H152618   2.612   5.397  12.123  0.0963  0.8216 -0.2960
10401TIP3    H252619   2.746   5.424  12.189 -0.0748 -0.8360  0.7861
10402TIP3   OH252620   0.420   5.757  15.948  0.1130  0.0605  0.5210
10402TIP3    H152621   0.431   5.760  15.853 -1.0917 -2.4721  0.2093
10402TIP3    H252622   0.326   5.744  15.961  0.5084 -1.8800  1.8996
10403TIP3   OH252623   0.087   4.074  16.155 -0.3921  0.0901  0.0635
10403TIP3    H152624   0.097   4.061  16.060 -1.1052  0.3951 -0.0635
10403TIP3    H252625   0.003   4.033  16.175  0.5903 -1.6154  0.9151
10404TIP3   OH252626   1.480   1.873   3.072  0.6410  0.2231  0.8075
10404TIP3    H152627   1.523   1.952   3.041  0.4065 -0.0356 -0.2138
10404TIP3    H252628   1.525   1.801   3.028 -2.6904  0.0452 -2.9254
10405TIP3   OH252629   3.358   1.603  12.952  0.0378 -0.1352  0.0855
10405TIP3    H152630   3.323   1.530  13.003  1.5606 -0.0945  1.2619
10405TIP3    H252631   3.418   1.647  13.012  0.2158  1.2595 -1.0584
10406TIP3   OH252632   3.519   0.778   3.950  0.1636 -0.5133  0.0280
10406TIP3    H152633   3.477   0.821   3.874  1.0620  0.8242  0.2597
10406TIP3    H252634   3.446   0.734   3.995 -0.7975  0.6982 -0.2768
10407TIP3   OH252635   4.071   6.513   0.716  0.2584  0.2423 -0.3254
10407TIP3    H152636   4.077   6.420   0.734  1.7079  0.1869 -0.9544
10407TIP3    H252637   4.035   6.551   0.796 -0.0665 -0.8125  0.0386
10408TIP3   OH252638   1.706   2.748  11.584  0.3424 -0.1414 -0.4886
10408TIP3    H152639   1.773   2.816  11.573 -0.7230  0.7523 -1.7209
10408TIP3    H252640   1.624   2.789  11.555 -0.7258 -1.2778  0.7318
10409TIP3   OH252641   0.989   6.427   5.168  0.8388  0.8707  0.5338
10409TIP3    H152642   1.023   6.343   5.202 -0.0207 -0.6272 -2.0718
10409TIP3    H252643   0.922   6.453   5.231  1.3683 -0.2011  1.5838
10410TIP3   OH252644   2.626   4.184  16.263 -0.5975 -0.5884 -1.3381
10410TIP3    H152645   2.647   4.278  16.269  3.2353 -1.3146 -0.7971
10410TIP3    H252646   2.587   4.174  16.176 -0.5783  1.4175 -1.6373
10411TIP3   OH252647   4.959   5.700  12.535 -0.5466  0.3082 -0.0995
10411TIP3    H152648   4.993   5.640  12.470 -1.8419  0.3246 -0.8085
10411TIP3    H252649   5.011   5.780  12.523 -0.1745  0.0110 -0.4957
10412TIP3   OH252650   0.994   3.356  17.163  0.1510  0.2391 -0.2883
10412TIP3    H152651   0.925   3.421  17.152 -0.0233  0.0792 -0.1461
10412TIP3    H252652   1.074   3.401  17.136  0.0021  0.4481 -0.3812
10413TIP3   OH252653   0.433   5.832   1.850 -0.0744  0.4745  0.1552
10413TIP3    H152654   0.353   5.844   1.900  0.9022  1.4498  1.5587
10413TIP3    H252655   0.431   5.902   1.785  0.7513  2.0827  1.7745
10414TIP3   OH252656   3.708   4.159   3.493  0.2595 -0.1904  0.1961
10414TIP3    H152657   3.633   4.099   3.496  1.1698 -1.3227  2.7525
10414TIP3    H252658   3.689   4.225   3.561  0.1502  1.4165 -1.3089
10415TIP3   OH252659   4.526   3.690  12.559 -0.0610  0.2308 -0.4871
10415TIP3    H152660   4.530   3.606  12.605  1.3857  1.0020  0.8983
10415TIP3    H252661   4.617   3.718  12.552 -0.5974  2.4242  0.5278
10416TIP3   OH252662   2.685   1.463   0.553  0.5813  0.3569 -0.2787
10416TIP3    H152663   2.592   1.477   0.535  0.2762 -1.6041 -0.4200
10416TIP3    H252664   2.715   1.545   0.591 -0.8253  1.5887 -1.6896
10417TIP3   OH252665   0.553   3.933  12.742  0.6721  0.1669  0.1918
10417TIP3    H152666   0.464   3.910  12.767  0.1947  2.5893  1.0106
10417TIP3    H252667   0.590   3.973  12.821  3.0850 -2.1880  0.4060
10418TIP3   OH252668   3.360   5.530   2.391 -0.3397 -0.4438  0.0104
10418TIP3    H152669   3.290   5.593   2.374 -0.8225 -0.9846 -0.0539
10418TIP3    H252670   3.336   5.488   2.474 -0.3361 -0.9444 -0.2341
10419TIP3   OH252671   3.126   1.267   4.839 -0.2189  0.0706  0.5980
10419TIP3    H152672   3.051   1.259   4.780 -0.2088  0.1886  0.5679
10419TIP3    H252673   3.199   1.287   4.781 -0.0792 -0.4746  0.5832
10420TIP3   OH252674   2.833   3.879  15.276 -0.5266 -0.3071  0.0889
10420TIP3    H152675   2.796   3.908  15.193 -1.0709 -0.1734  0.3756
10420TIP3    H252676   2.824   3.954  15.334 -0.5844 -0.5564  0.4060
10421TIP3   OH252677   2.433   1.520   0.486  0.1184  0.3395  0.6239
10421TIP3    H152678   2.362   1.485   0.432  0.3017 -0.6377  0.9790
10421TIP3    H252679   2.393   1.534   0.572  0.2013  0.3744  0.6567
10422TIP3   OH252680   1.579   2.993  15.164 -0.7661 -0.1185  0.2188
10422TIP3    H152681   1.509   2.943  15.123 -2.6079  1.1425  1.6890
10422TIP3    H252682   1.567   2.978  15.258  0.2742  0.9907  0.5476
10423TIP3   OH252683   0.786   4.145  15.831  0.2618 -0.0982  0.0039
10423TIP3    H152684   0.703   4.164  15.787 -0.2703 -1.2934  0.4645
10423TIP3    H252685   0.790   4.050  15.835  1.0755 -0.0357  1.0798
10424TIP3   OH252686   1.109   5.999  11.213 -0.2569  0.0783  0.1804
10424TIP3    H152687   1.200   5.969  11.207 -0.4172 -0.8193  1.5359
10424TIP3    H252688   1.071   5.942  11.281 -1.4355  1.3910  0.6526
10425TIP3   OH252689   3.331   2.370  14.582 -0.1658 -0.6278 -0.2431
10425TIP3    H152690   3.380   2.349  14.502  0.8908 -1.1928  0.5234
10425TIP3    H252691   3.398   2.397  14.644 -1.0210  0.2214  0.3385
10426TIP3   OH252692   1.880   0.191  12.560 -0.0695  0.0634  0.5849
10426TIP3    H152693   1.936   0.206  12.637  0.2803  1.7972  0.0481
10426TIP3    H252694   1.868   0.279  12.523 -2.1113 -0.4398 -0.0470
10427TIP3   OH252695   5.725   6.023   1.998 -0.8663 -0.3168  0.1431
10427TIP3    H152696   5.807   6.072   1.997 -1.9658  1.6196  0.1410
10427TIP3    H252697   5.736   5.956   1.931  0.6606 -0.0555  0.0918
10428TIP3   OH252698   0.029   2.050   3.277 -0.0800 -0.1250  0.2124
10428TIP3    H152699   0.118   2.026   3.252 -0.2474 -0.8318  0.2763
10428TIP3    H252700   0.039   2.103   3.356  0.2554 -0.6200  0.5081
10429TIP3   OH252701   3.404   6.503   1.184 -0.1154  0.3917 -0.0257
10429TIP3    H152702   3.440   6.549   1.108 -0.3005  1.7640  0.6689
10429TIP3    H252703   3.330   6.558   1.212 -0.4395 -0.4211  0.7672
10430TIP3   OH252704   1.771   1.245  11.489 -0.0446 -0.4536  0.4535
10430TIP3    H152705   1.854   1.233  11.534 -0.8150 -0.8304  1.8493
10430TIP3    H252706   1.739   1.331  11.519  0.6705  0.5761 -1.5310
10431TIP3   OH252707   2.176   2.850  16.631 -0.1161  0.2599 -0.4011
10431TIP3    H152708   2.089   2.845  16.592 -0.3679  2.3687 -0.2677
10431TIP3    H252709   2.173   2.791  16.705 -0.7479 -1.2370 -1.5722
10432TIP3   OH252710   1.030   6.309   1.260 -0.0242 -0.3820  0.3955
10432TIP3    H152711   1.120   6.277   1.261 -0.1807 -0.9655 -1.0093
10432TIP3    H252712   0.980   6.237   1.222 -0.4730  1.2509 -2.4307
10433TIP3   OH252713   4.370   6.064  13.451 -0.2716  0.5896  0.7959
10433TIP3    H152714   4.282   6.037  13.480 -0.7128  1.4392  0.2748
10433TIP3    H252715   4.417   5.981  13.437 -1.4157  0.0933 -0.2411
10434TIP3   OH252716   6.290   0.284  14.068 -0.3959  0.2421 -0.1828
10434TIP3    H152717   6.381   0.270  14.094 -0.5603 -1.0343 -0.2323
10434TIP3    H252718   6.243   0.293  14.151 -0.3321  0.1797 -0.1396
10435TIP3   OH252719   0.876   3.618   0.342  0.4076  0.0521  0.2065
10435TIP3    H152720   0.963   3.582   0.325  0.1704 -1.1507  1.3138
10435TIP3    H252721   0.820   3.541   0.351 -0.6805  0.7981 -0.0194
10436TIP3   OH252722   2.065   6.042  12.352  0.1722  0.6390  0.2614
10436TIP3    H152723   2.064   5.975  12.421 -3.1043  0.3421  0.0608
10436TIP3    H252724   1.999   6.106  12.380  2.0579  3.0196 -0.3759
10437TIP3   OH252725   1.975   1.532   2.348 -0.8350  0.0915 -0.2938
10437TIP3    H152726   1.929   1.543   2.264  1.6218 -0.7604 -1.8658
10437TIP3    H252727   1.992   1.438   2.354  1.7616  0.4931 -0.4672
10438TIP3   OH252728   4.168   0.373   0.472  0.5494 -0.5794  0.2814
10438TIP3    H152729   4.155   0.450   0.527  1.2769 -0.5523  0.4281
10438TIP3    H252730   4.118   0.392   0.392  0.5294 -0.0602  0.4129
10439TIP3   OH252731   1.012   0.716   5.714 -0.0229  0.2046  0.2207
10439TIP3    H152732   1.053   0.699   5.799 -0.3490  2.0534  0.7963
10439TIP3    H252733   0.990   0.629   5.680  1.4311 -0.6577  1.3477
10440TIP3   OH252734   1.217   4.918  12.981 -0.6587 -0.4492  0.1523
10440TIP3    H152735   1.194   4.832  13.015 -4.3730  0.2870  0.0194
10440TIP3    H252736   1.137   4.947  12.935  0.6880  2.7372 -0.4473
10441TIP3   OH252737   0.915   6.111   3.056  0.3421 -0.0028 -0.4691
10441TIP3    H152738   0.867   6.101   2.973 -1.5586  1.2696  0.4320
10441TIP3    H252739   0.925   6.205   3.067  2.6735 -0.2003 -0.3402
10442TIP3   OH252740   1.827   2.481   1.549  0.3737 -0.3371  0.4582
10442TIP3    H152741   1.869   2.427   1.616 -0.8446 -0.8220  0.8590
10442TIP3    H252742   1.898   2.505   1.490  1.2143 -1.1125  1.1155
10443TIP3   OH252743   3.328   4.250  16.994  0.3277 -0.0348 -0.1360
10443TIP3    H152744   3.246   4.204  17.015  0.4394 -0.2045 -0.0654
10443TIP3    H252745   3.302   4.319  16.933  0.2575 -0.6162 -0.7762
10444TIP3   OH252746   6.418   2.270   3.362 -0.6489  0.4974  0.0618
10444TIP3    H152747   6.353   2.327   3.321 -3.1375 -1.9434  0.2810
10444TIP3    H252748   6.377   2.244   3.445  1.9752  1.1701  1.6626
10445TIP3   OH252749   3.975   5.511   3.185  0.5988  0.1348  0.2055
10445TIP3    H152750   4.024   5.558   3.118  1.0681  1.2623  1.3091
10445TIP3    H252751   3.918   5.577   3.224 -2.0077 -1.1645 -1.1459
10446TIP3   OH252752   1.899   4.648  16.758  0.0639 -0.2248 -0.1140
10446TIP3    H152753   1.826   4.617  16.703  0.0660 -0.8119  0.2036
10446TIP3    H252754   1.966   4.580  16.749  0.2051 -0.1473  0.3332
10447TIP3   OH252755   1.033   4.345  14.679 -0.6029 -0.0373  0.6737
10447TIP3    H152756   0.943   4.356  14.648 -0.6100 -2.1004 -0.1933
10447TIP3    H252757   1.086   4.360  14.601 -0.3902 -1.5638  0.5005
10448TIP3   OH252758   2.322   6.189  11.227 -0.1959  0.0893 -0.3282
10448TIP3    H152759   2.363   6.121  11.174 -1.3834 -1.2368  0.3943
10448TIP3    H252760   2.329   6.157  11.317 -2.7247 -0.2047 -0.1722
10449TIP3   OH252761   3.135   6.458  16.745 -0.0334  0.1607 -0.1513
10449TIP3    H152762   3.061   6.405  16.715  1.0894 -1.5675  0.0110
10449TIP3    H252763   3.188   6.471  16.667  0.3426 -0.0467  0.0694
10450TIP3   OH252764   2.879   5.774  14.151 -0.2057 -0.3138 -0.5950
10450TIP3    H152765   2.797   5.783  14.101 -0.9947  0.8655  0.8366
10450TIP3    H252766   2.913   5.863  14.157  0.2653 -0.5470  0.3049
10451TIP3   OH252767   4.224   6.206  11.597  0.2310 -0.7364 -0.3053
10451TIP3    H152768   4.157   6.159  11.547 -0.0948 -0.2424 -0.3411
10451TIP3    H252769   4.204   6.186  11.689 -0.5101  0.1000 -0.2655
10452TIP3   OH252770   1.346   0.342  16.467 -0.3722  0.3825 -0.9647
10452TIP3    H152771   1.254   0.318  16.461 -0.3120 -1.2534  2.3430
10452TIP3    H252772   1.393   0.260  16.456  0.6645  1.0258 -1.5425
10453TIP3   OH252773   4.916   2.052  12.786  0.4497  0.0023  0.4377
10453TIP3    H152774   4.986   2.011  12.837 -0.1846 -0.9113  0.5936
10453TIP3    H252775   4.883   1.981  12.730 -0.7585  0.2594  0.8071
10454TIP3   OH252776   0.588   5.316  13.014 -0.1908  0.2746  0.1086
10454TIP3    H152777   0.640   5.258  12.959 -0.7893  1.5567 -1.9193
10454TIP3    H252778   0.498   5.285  13.004 -0.4325  1.1218 -0.4817
10455TIP3   OH252779   3.793   1.490   5.635 -0.5279 -0.1798  0.0791
10455TIP3    H152780   3.759   1.452   5.554 -0.4584 -1.1236  0.4762
10455TIP3    H252781   3.741   1.570   5.648  0.7640  1.0779 -1.9135
10456TIP3   OH252782   6.707   6.704  11.579 -0.7884  0.5869 -0.0962
10456TIP3    H152783   6.679   6.748  11.659  1.1485  0.4105  0.7101
10456TIP3    H252784   6.781   6.755  11.547  0.7166 -1.3219  0.1760
10457TIP3   OH252785   4.400   2.703  12.375  0.5591  0.1290 -0.5552
10457TIP3    H152786   4.425   2.614  12.399 -0.6919 -0.2878 -0.6896
10457TIP3    H252787   4.367   2.741  12.456  1.4391  0.6080 -0.4149
10458TIP3   OH252788   3.877   4.927  12.090 -0.6809 -0.2528 -0.1079
10458TIP3    H152789   3.852   4.941  12.181 -0.6406 -0.2619 -0.0950
10458TIP3    H252790   3.964   4.967  12.082 -0.4388 -0.7423  0.0032
10459TIP3   OH252791   6.589   3.563   2.546  0.6209  0.2878 -0.0840
10459TIP3    H152792   6.526   3.513   2.494  2.8742 -1.0581 -1.6818
10459TIP3    H252793   6.602   3.511   2.625  0.2143  0.2709 -0.0237
10460TIP3   OH252794   3.295   4.175   3.435 -0.2216 -0.2231 -0.2709
10460TIP3    H152795   3.239   4.127   3.375 -0.9333  0.7679 -0.4350
10460TIP3    H252796   3.346   4.108   3.480  0.1297 -1.0037 -1.7700
10461TIP3   OH252797   2.565   3.138  11.950  0.1968 -0.2498  0.4526
10461TIP3    H152798   2.649   3.179  11.930  2.1727 -2.4393  3.4148
10461TIP3    H252799   2.548   3.160  12.042 -1.4555 -1.5256  0.5088
10462TIP3   OH252800   2.496   5.655  12.568  0.0894  0.1280 -0.1766
10462TIP3    H152801   2.543   5.661  12.651  3.0634  1.1606 -1.7825
10462TIP3    H252802   2.519   5.568  12.534  3.2794  1.5372 -2.1283
10463TIP3   OH252803   6.096   6.121  16.012  1.1479  0.7144 -0.2025
10463TIP3    H152804   6.077   6.208  15.977 -0.7880  0.5278  0.3013
10463TIP3    H252805   6.147   6.138  16.092 -0.2620  1.4900  0.5731
10464TIP3   OH252806   4.191   1.853   6.067  0.2957 -0.4063 -0.1504
10464TIP3    H152807   4.141   1.780   6.103  0.6791 -0.3099  0.6014
10464TIP3    H252808   4.195   1.916   6.139  0.3097  0.1791 -0.6631
10465TIP3   OH252809   2.993   4.232  14.277 -0.1555  0.0143  0.4296
10465TIP3    H152810   3.002   4.200  14.367 -2.0989 -1.2285  0.2662
10465TIP3    H252811   3.079   4.219  14.238  0.0986 -1.7027  1.4465
10466TIP3   OH252812   2.298   1.064   0.262 -0.0481 -0.0968  0.3897
10466TIP3    H152813   2.326   1.081   0.172 -3.0860 -0.4526 -0.7338
10466TIP3    H252814   2.336   1.135   0.312  0.8350  0.7361 -1.3541
10467TIP3   OH252815   6.707   1.455  16.436 -0.1465  0.0144 -0.0974
10467TIP3    H152816   6.683   1.489  16.522  1.2470  0.1211  0.2666
10467TIP3    H252817   6.683   1.526  16.376 -1.0456 -0.0266  0.1878
10468TIP3   OH252818   1.492   2.259  16.473 -0.0403 -0.2243  0.2350
10468TIP3    H152819   1.438   2.212  16.411  2.1045 -1.6841 -0.6472
10468TIP3    H252820   1.492   2.204  16.552 -0.8035  0.4036  0.6891
10469TIP3   OH252821   6.055   0.148  12.800 -0.5095  0.1290  0.1817
10469TIP3    H152822   6.063   0.066  12.752 -2.7358 -0.4615  0.6914
10469TIP3    H252823   6.034   0.121  12.889  0.2112  1.2486  0.6996
10470TIP3   OH252824   5.598   2.954  14.710  0.6738 -0.1929 -0.4512
10470TIP3    H152825   5.582   2.888  14.643  0.8732  0.6364 -1.3405
10470TIP3    H252826   5.519   2.954  14.764  0.7520 -1.2764 -0.3259
10471TIP3   OH252827   1.748   3.542   0.908  0.1112  0.5322 -0.1867
10471TIP3    H152828   1.804   3.547   0.831 -0.1205 -0.9329 -0.4823
10471TIP3    H252829   1.678   3.605   0.892 -0.9584 -1.0287 -2.0644
10472TIP3   OH252830   0.825   2.679   5.873 -0.1736 -0.1836  0.3632
10472TIP3    H152831   0.860   2.619   5.938 -0.3336 -0.3195  0.3237
10472TIP3    H252832   0.731   2.685   5.893 -0.6984 -1.9946 -1.2341
10473TIP3   OH252833   6.277   0.122  12.132 -0.0190  0.0660  0.5951
10473TIP3    H152834   6.304   0.201  12.086 -0.9041 -0.1435 -0.3218
10473TIP3    H252835   6.181   0.125  12.131 -0.0780 -1.2123  0.1741
10474TIP3   OH252836   0.529   2.147   5.400  0.2080  0.4164  0.3883
10474TIP3    H152837   0.443   2.175   5.431 -0.5958 -1.6765  0.2274
10474TIP3    H252838   0.585   2.147   5.478 -0.5454 -0.3113  0.9455
10475TIP3   OH252839   1.602   2.986  14.048  0.1264  0.0404 -0.2316
10475TIP3    H152840   1.653   2.911  14.080 -0.7911  0.5850  2.8217
10475TIP3    H252841   1.668   3.050  14.021  1.0024 -0.3439  0.9335
10476TIP3   OH252842   6.615   2.803  14.493 -0.0464 -0.3690 -0.4970
10476TIP3    H152843   6.646   2.729  14.440  2.1917 -0.0182  0.2322
10476TIP3    H252844   6.684   2.868  14.486 -0.0856  0.0428  2.0974
10477TIP3   OH252845   3.202   1.332  11.797  0.1886  0.1913 -0.8645
10477TIP3    H152846   3.165   1.247  11.821  1.3988  0.2601  1.4973
10477TIP3    H252847   3.130   1.378  11.753 -1.9009 -0.4614  1.6514
10478TIP3   OH252848   2.452   5.632  16.649 -0.0065  0.0241  0.3306
10478TIP3    H152849   2.456   5.727  16.654 -1.4840  0.0415  2.6725
10478TIP3    H252850   2.475   5.612  16.559 -1.5230  2.7319 -0.7881
10479TIP3   OH252851   0.841   5.838   2.113  0.5351 -0.1402  0.2833
10479TIP3    H152852   0.762   5.858   2.164 -0.0192  1.8982 -1.2181
10479TIP3    H252853   0.809   5.793   2.035  0.3908  2.7203 -1.4927
10480TIP3   OH252854   6.460   3.528  14.834 -0.1517 -0.3171  0.7415
10480TIP3    H152855   6.404   3.606  14.835  0.5520  0.1991  0.6531
10480TIP3    H252856   6.406   3.459  14.872 -0.6580  0.3086  1.1791
10481TIP3   OH252857   1.767   6.550  15.070 -0.1333  0.0907 -0.8789
10481TIP3    H152858   1.714   6.504  15.135 -2.0319 -0.0090 -2.4087
10481TIP3    H252859   1.856   6.519  15.086 -0.5045  0.1093  1.6683
10482TIP3   OH252860   3.791   1.323  17.195  0.2982 -0.2469  0.3166
10482TIP3    H152861   3.838   1.354  17.118  2.7192 -2.1982  0.8748
10482TIP3    H252862   3.758   1.237  17.171 -0.9356  0.0866  0.7484
10483TIP3   OH252863   6.226   3.328   3.306  0.0570 -0.7259  0.0789
10483TIP3    H152864   6.269   3.268   3.246 -0.6806 -0.3881 -0.8209
10483TIP3    H252865   6.144   3.284   3.329 -0.0541 -0.4826  0.1576
10484TIP3   OH252866   6.736   5.888   3.496  0.5029 -0.1871 -0.1953
10484TIP3    H152867   6.749   5.864   3.404  0.9426 -1.3484  0.1489
10484TIP3    H252868   6.761   5.810   3.545  1.1994  0.7311  0.9706
10485TIP3   OH252869   1.379   2.851   4.005  0.0609 -0.0812  0.3730
10485TIP3    H152870   1.313   2.888   3.947  0.6026 -0.4372 -0.4881
10485TIP3    H252871   1.445   2.814   3.946  0.8794 -0.0035  1.2142
10486TIP3   OH252872   5.902   1.203  13.047  0.2868  0.0846 -0.3527
10486TIP3    H152873   5.891   1.109  13.063  0.1445 -0.2351 -2.1345
10486TIP3    H252874   5.997   1.217  13.050  0.2429  0.2744  1.7200
10487TIP3   OH252875   0.623   5.675   0.122 -0.1346 -0.4601 -0.0315
10487TIP3    H152876   0.608   5.628   0.040 -0.2242 -0.1007 -0.2205
10487TIP3    H252877   0.586   5.617   0.190  2.5079 -2.1519  0.0938
10488TIP3   OH252878   1.032   2.267   6.598  0.2756 -0.3482 -0.0986
10488TIP3    H152879   1.109   2.307   6.558 -0.4236 -0.4023 -1.5695
10488TIP3    H252880   0.974   2.340   6.617 -0.1739 -0.4686 -0.9545
10489TIP3   OH252881   6.607   5.837  13.834 -0.8344 -0.0735  0.8727
10489TIP3    H152882   6.528   5.891  13.834 -0.1775  0.9116  1.4619
10489TIP3    H252883   6.671   5.888  13.785 -0.2298 -0.3736  1.3377
10490TIP3   OH252884   0.069   0.630  10.490 -0.3875 -0.2220  0.3175
10490TIP3    H152885   0.160   0.663  10.492  0.9582 -3.3224 -1.8755
10490TIP3    H252886   0.076   0.539  10.518 -2.2711 -1.4011 -2.5666
10491TIP3   OH252887   0.710   0.286  13.635 -0.0492  0.3570  0.3203
10491TIP3    H152888   0.773   0.282  13.564  0.8849 -1.2201  1.1803
10491TIP3    H252889   0.729   0.208  13.688 -3.1786 -0.6084  0.2259
10492TIP3   OH252890   1.445   2.755  16.600 -0.1504  0.2814  0.2253
10492TIP3    H152891   1.373   2.790  16.547  0.2956  1.1808  0.1836
10492TIP3    H252892   1.402   2.710  16.672 -0.7649 -0.5798 -0.6540
10493TIP3   OH252893   4.188   6.151   4.441  0.5315 -0.3398  0.1290
10493TIP3    H152894   4.218   6.209   4.371  1.8382 -0.1714  0.8035
10493TIP3    H252895   4.161   6.071   4.396  2.2687 -0.6008 -0.5159
10494TIP3   OH252896   6.183   3.281  13.623  0.1083  0.4007  0.2765
10494TIP3    H152897   6.235   3.250  13.549  1.4610 -0.7337  1.6432
10494TIP3    H252898   6.094   3.288  13.588  0.5157 -1.1053 -1.1975
10495TIP3   OH252899   0.718   5.001  15.063  0.6375 -0.5723 -0.9042
10495TIP3    H152900   0.674   4.998  15.148  1.5363  0.6600 -0.3707
10495TIP3    H252901   0.801   4.956  15.077  1.4363  0.9143 -0.7022
10496TIP3   OH252902   5.564   1.933  12.638  0.0573  0.0385 -0.4583
10496TIP3    H152903   5.591   2.013  12.682  0.5505  1.2119 -2.7876
10496TIP3    H252904   5.646   1.891  12.611 -0.2465 -0.3670 -0.7695
10497TIP3   OH252905   4.091   2.131   3.678 -0.0559  0.2184  0.1222
10497TIP3    H152906   4.033   2.152   3.606 -1.6356  1.9705  1.7867
10497TIP3    H252907   4.157   2.200   3.678  1.0065 -0.7505 -0.6432
10498TIP3   OH252908   2.696   2.570  12.199  0.3428 -0.0463 -0.0435
10498TIP3    H152909   2.655   2.543  12.116  1.9163  0.1072 -0.9099
10498TIP3    H252910   2.786   2.593  12.175  1.5090 -2.0393  2.0689
10499TIP3   OH252911   2.472   1.314   0.181 -0.1906 -0.1962  0.2098
10499TIP3    H152912   2.516   1.398   0.176  0.0284 -0.3416 -0.5166
10499TIP3    H252913   2.482   1.286   0.272 -0.7280  0.7973  0.5875
10500TIP3   OH252914   5.907   5.795   2.639  0.4283  0.0069 -0.1640
10500TIP3    H152915   5.994   5.757   2.623  0.5650 -0.2394  1.1049
10500TIP3    H252916   5.917   5.888   2.615  1.8902  0.6725  2.6142
10501TIP3   OH252917   6.472   6.224  16.101 -0.7992  0.8461 -0.2771
10501TIP3    H152918   6.436   6.311  16.081 -0.1962  0.7489 -1.9204
10501TIP3    H252919   6.521   6.200  16.023 -0.5093 -0.7614  0.3651
10502TIP3   OH252920   5.326   3.227   6.586  0.7148  0.3121  0.0721
10502TIP3    H152921   5.233   3.247   6.586  0.8815  1.2280 -1.5843
10502TIP3    H252922   5.332   3.140   6.627 -0.6865  0.8549  1.5261
10503TIP3   OH252923   2.743   2.419   0.889  0.1769  0.1123  0.6257
10503TIP3    H152924   2.810   2.443   0.953 -0.8500 -1.1759  2.2506
10503TIP3    H252925   2.694   2.500   0.874  0.0595  0.3031  1.9443
10504TIP3   OH252926   3.463   1.400  15.735  0.3090 -0.9576 -0.0597
10504TIP3    H152927   3.480   1.491  15.711 -0.1691 -0.7840  0.2344
10504TIP3    H252928   3.527   1.349  15.685 -0.7773 -0.6340 -1.8912
10505TIP3   OH252929   4.204   4.855  11.459 -0.3830 -0.0492 -0.1766
10505TIP3    H152930   4.155   4.887  11.384 -0.6943 -1.6167 -0.6765
10505TIP3    H252931   4.293   4.843  11.426 -0.1283  0.8606  0.1723
10506TIP3   OH252932   1.496   6.334  15.855 -0.1794 -0.5822  0.0999
10506TIP3    H152933   1.509   6.403  15.920 -2.1058 -1.2613  1.2814
10506TIP3    H252934   1.475   6.381  15.774 -1.8051  0.2590  0.9638
10507TIP3   OH252935   4.674   2.264   6.354 -0.1673  0.3570  0.1592
10507TIP3    H152936   4.621   2.194   6.316 -0.4198  1.6630 -2.0457
10507TIP3    H252937   4.615   2.306   6.417 -0.4192 -0.6218  0.5940
10508TIP3   OH252938   2.364   3.430  16.896  0.4489  0.3871 -0.0774
10508TIP3    H152939   2.348   3.384  16.978  0.9684  0.9795  0.3662
10508TIP3    H252940   2.289   3.408  16.841 -0.5788  1.0285  1.0116
10509TIP3   OH252941   6.236   1.733  15.688 -0.2542  0.0728 -0.0999
10509TIP3    H152942   6.217   1.819  15.652  0.6728  0.6288  0.6877
10509TIP3    H252943   6.236   1.746  15.783 -2.1557 -1.2496  0.1261
10510TIP3   OH252944   6.696   4.067  11.672 -0.0504  0.5025 -0.2822
10510TIP3    H152945   6.757   4.009  11.626 -0.0321  0.7257 -0.5427
10510TIP3    H252946   6.698   4.036  11.763  0.4160  0.4750 -0.2977
10511TIP3   OH252947   3.726   6.351  17.253  0.3241 -0.5797 -0.5887
10511TIP3    H152948   3.647   6.320  17.297  0.0107 -2.5115 -2.3280
10511TIP3    H252949   3.795   6.293  17.285  0.4809 -0.6938 -1.1321
10512TIP3   OH252950   3.120   5.788   1.964 -0.5981 -0.0488  0.1218
10512TIP3    H152951   3.060   5.809   1.892  1.6620  0.6414 -1.7158
10512TIP3    H252952   3.071   5.809   2.043 -2.5646  0.9708 -1.2664
10513TIP3   OH252953   2.893   2.692   2.218 -0.4157  0.5282 -0.3142
10513TIP3    H152954   2.849   2.689   2.133 -1.3217  2.8369 -0.0017
10513TIP3    H252955   2.986   2.700   2.197 -0.2905 -1.8933 -1.0009
10514TIP3   OH252956   5.920   1.153  15.008  0.7623 -0.1943  0.6376
10514TIP3    H152957   5.842   1.199  15.038  1.2923  0.0112  1.7548
10514TIP3    H252958   5.964   1.215  14.949  0.0637 -0.3419 -0.0590
10515TIP3   OH252959   6.247   5.460  14.555  0.0702 -0.4503  0.3154
10515TIP3    H152960   6.236   5.411  14.473 -1.5017  0.4172 -0.0280
10515TIP3    H252961   6.161   5.453  14.598  0.4923  0.1900  1.2867
10516TIP3   OH252962   6.330   2.092  13.130  0.0272 -0.0742 -0.3026
10516TIP3    H152963   6.331   2.102  13.225 -0.2566 -1.0911 -0.1808
10516TIP3    H252964   6.360   2.177  13.097 -0.9488  0.6661  0.6551
10517TIP3   OH252965   5.543   3.830  13.977  0.4209 -0.2330 -0.1406
10517TIP3    H152966   5.485   3.771  13.929  1.3866 -2.5735  1.3918
10517TIP3    H252967   5.565   3.899  13.914 -0.4929 -1.6859 -2.1458
10518TIP3   OH252968   1.005   2.739   0.259  0.3273 -0.0296 -0.4696
10518TIP3    H152969   1.078   2.728   0.198  0.8369 -1.0846  0.2968
10518TIP3    H252970   0.957   2.815   0.226  0.9115 -0.2334 -1.8478
10519TIP3   OH252971   0.384   6.234  14.684 -0.2833 -0.5028 -0.2518
10519TIP3    H152972   0.327   6.190  14.621  0.2784  2.1562 -2.8631
10519TIP3    H252973   0.472   6.206  14.661 -0.1718 -0.5357  0.2178
10520TIP3   OH252974   3.042   2.846  11.278 -0.6471 -0.4073 -0.1962
10520TIP3    H152975   3.015   2.798  11.199 -0.9724  0.1032 -0.4013
10520TIP3    H252976   3.074   2.930  11.245  3.4394 -1.7501 -0.2283
10521TIP3   OH252977   4.261   2.245   4.169 -1.1804  0.0815  0.4417
10521TIP3    H152978   4.183   2.189   4.157  0.9549 -2.6206 -3.1108
10521TIP3    H252979   4.290   2.227   4.259 -2.9011 -1.3329  0.7770
10522TIP3   OH252980   3.419   1.965  12.787 -0.3892 -0.5342  0.1847
10522TIP3    H152981   3.372   2.008  12.858  1.4715  1.8831  0.0779
10522TIP3    H252982   3.474   1.900  12.831 -0.2197  0.0293  0.8070
10523TIP3   OH252983   0.011   2.962   4.110 -0.4890 -0.0042 -0.0540
10523TIP3    H152984  -0.011   2.913   4.031  1.4940 -1.1826  0.0610
10523TIP3    H252985   0.004   3.054   4.084 -2.5812 -0.3213 -0.7632
10524TIP3   OH252986   1.747   6.126   5.101  0.1470  0.3600 -0.3252
10524TIP3    H152987   1.733   6.148   5.009 -3.1361 -1.5715 -0.4657
10524TIP3    H252988   1.744   6.030   5.103 -0.0045  0.3635  1.7944
10525TIP3   OH252989   4.444   0.865  15.121 -0.0542  0.2566 -0.1856
10525TIP3    H152990   4.463   0.776  15.091  0.1230  0.0788  0.4330
10525TIP3    H252991   4.422   0.913  15.042 -2.0720 -0.8048 -0.3466
10526TIP3   OH252992   0.951   0.025  12.487 -0.2744 -0.6479 -0.0786
10526TIP3    H152993   0.911   0.018  12.400 -1.8542  2.2735  0.2677
10526TIP3    H252994   1.004   0.105  12.482 -1.0673  0.0455  1.8458
10527TIP3   OH252995   0.463   3.239   4.659  0.0302  0.4183 -0.5492
10527TIP3    H152996   0.505   3.317   4.694  0.5992  0.0331 -0.3687
10527TIP3    H252997   0.466   3.176   4.731 -0.0560  0.0931 -0.8297
10528TIP3   OH252998   3.482   2.612   4.522 -0.3724 -0.0463  0.2587
10528TIP3    H152999   3.438   2.592   4.440  0.7222  0.4843 -0.4872
10528TIP3    H253000   3.563   2.562   4.519 -0.3177 -0.0125  1.0090
10529TIP3   OH253001   0.307   5.567  16.232  0.0275 -0.2466  0.0542
10529TIP3    H153002   0.358   5.598  16.306  0.0145  0.5095 -0.2412
10529TIP3    H253003   0.294   5.645  16.177 -1.6644 -0.3423  0.2552
10530TIP3   OH253004   3.967   0.984  13.175  0.2106 -0.2317  0.3034
10530TIP3    H153005   4.032   0.971  13.244  0.8928 -1.4312 -0.5202
10530TIP3    H253006   3.892   1.023  13.220  0.5027 -1.2819  1.7951
10531TIP3   OH253007   2.478   3.359   2.122  0.0942  0.1861  0.2031
10531TIP3    H153008   2.424   3.375   2.199 -2.8863 -0.9191 -1.4958
10531TIP3    H253009   2.483   3.445   2.078  2.2218  0.9345  1.7560
10532TIP3   OH253010   3.407   5.815  15.206  0.5207  0.6322  0.0293
10532TIP3    H153011   3.483   5.764  15.235  0.8690  1.3675  0.4273
10532TIP3    H253012   3.338   5.792  15.268 -0.0605 -1.1952 -1.2084
10533TIP3   OH253013   5.329   6.148  12.354 -0.3371  0.1495  0.2895
10533TIP3    H153014   5.334   6.080  12.287  0.2058  1.7213 -1.3400
10533TIP3    H253015   5.329   6.099  12.437  0.4550 -1.8093 -0.7833
10534TIP3   OH253016   1.350   4.789   2.315  0.2281  0.6304  0.8505
10534TIP3    H153017   1.403   4.818   2.241 -0.1128  0.4543  0.5339
10534TIP3    H253018   1.365   4.695   2.320 -0.5515  0.4696  0.3502
10535TIP3   OH253019   1.499   3.100  12.778  0.6253  0.5003  0.4291
10535TIP3    H153020   1.553   3.165  12.823  0.0051  0.6491  0.9818
10535TIP3    H253021   1.559   3.028  12.757  0.3599 -1.2804  4.7643
10536TIP3   OH253022   1.561   4.668  14.013  0.2087  0.8263 -0.4395
10536TIP3    H153023   1.609   4.650  14.094  0.3328  1.2328 -0.4240
10536TIP3    H253024   1.539   4.761  14.017 -2.4562  0.2565  0.5869
10537TIP3   OH253025   1.404   3.819   1.849  0.0301  0.1326 -0.2615
10537TIP3    H153026   1.377   3.879   1.780  0.1472 -0.2026 -0.6049
10537TIP3    H253027   1.491   3.848   1.874 -1.3734  2.5775  2.3659
10538TIP3   OH253028   1.937   4.307  13.629  0.0310  0.1685  0.2005
10538TIP3    H153029   1.978   4.370  13.570  1.1683 -0.3106  0.4497
10538TIP3    H253030   1.881   4.254  13.572  1.5019 -0.6159 -0.5657
10539TIP3   OH253031   3.106   3.764   1.990  0.3173 -0.2005  0.3657
10539TIP3    H153032   3.025   3.726   2.025  1.0338 -1.6530  0.5408
10539TIP3    H253033   3.078   3.842   1.943 -1.5604 -2.0411 -1.8359
10540TIP3   OH253034   4.599   5.048   5.574 -0.5730 -0.4635 -0.2678
10540TIP3    H153035   4.685   5.022   5.541 -0.8536 -1.1675 -0.4539
10540TIP3    H253036   4.592   5.141   5.551 -0.4455 -0.7408 -1.5105
10541TIP3   OH253037   5.865   2.424   3.380 -0.2282  0.4401  0.1824
10541TIP3    H153038   5.811   2.381   3.446  1.4056 -0.6717  0.8439
10541TIP3    H253039   5.904   2.353   3.330 -0.3257  1.2467 -1.0895
10542TIP3   OH253040   6.289   2.995  11.909 -0.1737 -0.2918 -0.3538
10542TIP3    H153041   6.291   3.070  11.850 -1.8064  0.1561  0.0976
10542TIP3    H253042   6.217   2.941  11.877  1.2656 -1.9512 -0.9523
10543TIP3   OH253043   0.690   6.025   0.690 -0.1683 -0.3098 -0.6240
10543TIP3    H153044   0.739   6.001   0.769 -1.1771 -0.6522 -0.0854
10543TIP3    H253045   0.648   5.943   0.663  1.5076 -0.6003 -2.5110
10544TIP3   OH253046   3.056   3.902  15.921 -0.3217  0.0961 -0.4714
10544TIP3    H153047   3.104   3.968  15.971 -0.2546 -0.9981  0.9902
10544TIP3    H253048   3.114   3.878  15.849 -0.6419  2.1029 -1.4494
10545TIP3   OH253049   3.242   4.159  14.222 -0.4994  0.3515 -0.4576
10545TIP3    H153050   3.286   4.092  14.275  0.8511  1.6942  0.1779
10545TIP3    H253051   3.270   4.242  14.260 -0.8671  1.3199 -2.2147
10546TIP3   OH253052   2.587   1.655   2.366 -0.4112 -0.1968 -0.5042
10546TIP3    H153053   2.681   1.640   2.374 -0.4657 -1.0245 -1.3233
10546TIP3    H253054   2.560   1.602   2.291 -1.2434  1.3140 -1.3248
10547TIP3   OH253055   1.097   1.772  16.975  0.3294  0.1666 -1.0682
10547TIP3    H153056   1.146   1.690  16.979 -0.0449 -0.2061 -3.0025
10547TIP3    H253057   1.044   1.772  17.055  1.1700 -0.9219 -0.4831
10548TIP3   OH253058   3.119   5.247   1.410 -0.1791  0.6171 -0.1825
10548TIP3    H153059   3.130   5.170   1.355  1.2598  1.6790 -1.4809
10548TIP3    H253060   3.125   5.214   1.499 -1.5206 -1.0088 -0.6515
10549TIP3   OH253061   6.135   1.180  15.195 -0.7212 -0.2868 -0.9512
10549TIP3    H153062   6.073   1.197  15.266 -0.0173 -0.5124 -0.2639
10549TIP3    H253063   6.082   1.141  15.125 -1.0507 -2.5519  0.4420
10550TIP3   OH253064   4.303   5.449   6.437  0.0876 -0.0631  0.0849
10550TIP3    H153065   4.289   5.504   6.514  1.2583  0.3398  0.0260
10550TIP3    H253066   4.289   5.360   6.468 -2.3060  0.2404  0.0736
10551TIP3   OH253067   4.841   6.640   2.115  0.0657 -0.4034  0.3677
10551TIP3    H153068   4.920   6.598   2.080  1.0516  1.0844  0.7088
10551TIP3    H253069   4.819   6.708   2.052  0.8338  1.1440  1.6888
10552TIP3   OH253070   6.646   3.668  16.493  0.1302  0.5403  0.1565
10552TIP3    H153071   6.695   3.619  16.559  0.1815  2.5821  1.7394
10552TIP3    H253072   6.696   3.750  16.482 -1.4279  1.4744 -0.2720
10553TIP3   OH253073   3.612   1.508  15.403 -0.4413  0.4058 -0.8086
10553TIP3    H153074   3.601   1.588  15.455  3.3228  0.7945 -0.3240
10553TIP3    H253075   3.555   1.521  15.327  0.0981  3.6316 -0.8046
10554TIP3   OH253076   1.471   4.176  14.337 -0.2142  0.0475  0.1549
10554TIP3    H153077   1.531   4.251  14.337 -1.1698  0.8336  0.8282
10554TIP3    H253078   1.501   4.122  14.264  2.2063 -0.3099  1.3333
10555TIP3   OH253079   0.350   5.921   5.459 -0.5316 -0.2538  0.3246
10555TIP3    H153080   0.415   5.853   5.448  0.1063 -0.0079  2.1830
10555TIP3    H253081   0.270   5.874   5.485 -0.5075 -0.3979  0.1397
10556TIP3   OH253082   5.934   1.752  15.730 -0.1486 -0.3297  0.2270
10556TIP3    H153083   6.017   1.710  15.751  1.2723  2.1505 -0.0303
10556TIP3    H253084   5.904   1.789  15.813 -1.2124 -1.5022  0.3903
10557TIP3   OH253085   0.329   1.653  16.851 -0.4212 -0.1105  0.0054
10557TIP3    H153086   0.247   1.663  16.899 -0.0785  0.6997  0.4440
10557TIP3    H253087   0.315   1.701  16.769 -0.5833 -0.4645 -0.1759
10558TIP3   OH253088   0.284   2.494  13.433  0.2155 -0.2540 -0.1727
10558TIP3    H153089   0.310   2.571  13.484 -1.9680 -0.0025  0.6914
10558TIP3    H253090   0.252   2.530  13.350 -0.6876 -0.1971  0.1828
10559TIP3   OH253091   6.393   6.346  14.703  0.0764 -0.3899  0.3950
10559TIP3    H153092   6.391   6.342  14.798 -0.5581 -1.4544  0.3525
10559TIP3    H253093   6.383   6.439  14.682 -1.7305 -0.3259  1.3493
10560TIP3   OH253094   5.597   2.354  15.298 -0.2792  0.2256 -1.0924
10560TIP3    H153095   5.587   2.318  15.386 -0.0446  2.4670 -0.1044
10560TIP3    H253096   5.688   2.335  15.274 -0.6367 -1.3405 -1.3503
10561TIP3   OH253097   5.560   6.593  14.761  0.0627  0.0615 -0.1618
10561TIP3    H153098   5.499   6.665  14.747 -1.5094 -1.2345 -0.2517
10561TIP3    H253099   5.603   6.580  14.676  1.8210  2.0915  0.3233
10562TIP3   OH253100   6.329   6.153   2.799  0.2964  0.1407 -0.2982
10562TIP3    H153101   6.420   6.172   2.823  0.3267  0.8203 -0.9330
10562TIP3    H253102   6.277   6.215   2.850  0.2987  0.9195 -1.2361
10563TIP3   OH253103   5.719   3.793  14.376  0.1794  0.4088  0.8445
10563TIP3    H153104   5.669   3.872  14.398 -0.4300 -0.0460  1.0980
10563TIP3    H253105   5.671   3.753  14.304 -0.0648 -0.2572  1.3681
10564TIP3   OH253106   6.626   0.942  12.324 -0.3510  0.0118 -0.0772
10564TIP3    H153107   6.589   0.984  12.246 -1.7284 -0.9976 -0.0167
10564TIP3    H253108   6.621   0.848  12.305 -2.8930 -0.4180  2.0627
10565TIP3   OH253109   6.141   1.365  13.708  0.2460 -0.3006  0.4471
10565TIP3    H153110   6.149   1.460  13.716 -0.6112 -0.2528  0.7664
10565TIP3    H253111   6.170   1.332  13.793 -1.8038 -0.1803  1.2337
10566TIP3   OH253112   5.662   6.353   0.413 -0.0628  0.7593  0.1793
10566TIP3    H153113   5.692   6.378   0.500  1.0084  1.1226 -0.2850
10566TIP3    H253114   5.653   6.436   0.366 -0.6196  0.5644 -0.0730
10567TIP3   OH253115   2.638   3.646   4.195 -0.5830 -0.2222 -0.7646
10567TIP3    H153116   2.563   3.616   4.245 -0.6940  1.6255  0.2117
10567TIP3    H253117   2.707   3.660   4.260  0.3163 -0.9388 -1.5307
10568TIP3   OH253118   2.740   1.119  12.110 -0.2207  0.2801  0.3764
10568TIP3    H153119   2.712   1.174  12.183 -1.1962  0.2017  0.0847
10568TIP3    H253120   2.795   1.176  12.057 -0.7061  0.7920  0.4095
10569TIP3   OH253121   3.275   4.507   4.191  0.1577 -0.0515  0.3175
10569TIP3    H153122   3.287   4.466   4.277  1.1543 -0.0829  0.1763
10569TIP3    H253123   3.326   4.453   4.131  0.5847  0.7460 -0.0604
10570TIP3   OH253124   0.347   0.381   3.208  0.0171  0.0237  0.0773
10570TIP3    H153125   0.305   0.451   3.258 -1.8588  0.4725 -1.9374
10570TIP3    H253126   0.287   0.366   3.134  1.6619 -1.9216 -0.9516
10571TIP3   OH253127   0.291   5.598   0.198  0.3731 -0.1983  0.3668
10571TIP3    H153128   0.213   5.563   0.242  0.5837 -0.4104  0.5733
10571TIP3    H253129   0.364   5.554   0.241  0.8130  2.2474  2.3233
10572TIP3   OH253130   3.573   4.778  11.603  0.0985 -0.3076  0.4689
10572TIP3    H153131   3.658   4.803  11.569 -0.6175  0.1134 -1.0890
10572TIP3    H253132   3.554   4.843  11.671  0.5112  0.2654  0.0359
10573TIP3   OH253133   5.307   6.585  16.622  0.0018 -0.3806  0.4246
10573TIP3    H153134   5.360   6.660  16.648  1.3615 -0.9095 -0.7177
10573TIP3    H253135   5.220   6.604  16.657  0.4192  1.5256  0.5295
10574TIP3   OH253136   0.809   3.895  17.037 -0.5445 -0.8668 -0.3112
10574TIP3    H153137   0.878   3.952  17.004 -0.5538  0.7066  2.1692
10574TIP3    H253138   0.739   3.904  16.973  0.3196  0.1041 -1.1646
10575TIP3   OH253139   1.496   0.737   2.118  0.5632 -0.0706 -0.5792
10575TIP3    H153140   1.554   0.695   2.054  0.5742 -0.7262 -0.1490
10575TIP3    H253141   1.412   0.744   2.072 -0.3407 -3.3558  0.2613
10576TIP3   OH253142   0.610   5.420   3.088  0.1693  0.0483 -0.5586
10576TIP3    H153143   0.577   5.441   3.001  0.9012 -0.5085 -0.9773
10576TIP3    H253144   0.617   5.506   3.132 -0.8447  0.2644 -0.7956
10577TIP3   OH253145   5.981   6.139  15.679  0.1987  0.0891 -0.0810
10577TIP3    H153146   5.992   6.210  15.743  0.5291  0.4938 -0.5734
10577TIP3    H253147   6.071   6.113  15.658  0.0871 -1.5916  1.2891
10578TIP3   OH253148   6.646   6.650  16.207  0.3745 -0.4880  0.5578
10578TIP3    H153149   6.656   6.673  16.114 -3.1786  2.1316  0.6214
10578TIP3    H253150   6.626   6.556  16.206 -1.2679 -0.1881 -1.5549
10579TIP3   OH253151   4.752   6.283  13.181  0.4943 -0.4541 -0.3367
10579TIP3    H153152   4.785   6.245  13.263 -0.2682 -0.2318  0.0879
10579TIP3    H253153   4.658   6.264  13.183 -0.0071  1.8210  0.1175
10580TIP3   OH253154   4.058   5.711  13.946 -0.0180 -0.1347 -0.3660
10580TIP3    H153155   4.110   5.676  14.018  0.2841  1.0624  0.0179
10580TIP3    H253156   3.992   5.644  13.929  1.7365 -1.8184 -1.0225
10581TIP3   OH253157   4.898   4.298   4.079  0.0909 -0.0485 -0.2876
10581TIP3    H153158   4.969   4.266   4.024 -0.9950 -0.6657 -1.3835
10581TIP3    H253159   4.931   4.380   4.117  2.3183 -1.5602  1.2675
10582TIP3   OH253160   5.048   1.817   2.176 -0.2752 -0.0498  0.2844
10582TIP3    H153161   5.003   1.742   2.139  0.5039  0.3111 -1.5183
10582TIP3    H253162   5.138   1.787   2.189 -0.7818 -0.5489  3.1757
10583TIP3   OH253163   4.918   1.496  11.738  0.3315  0.4969  0.0944
10583TIP3    H153164   4.946   1.441  11.665  0.9431 -0.8445  1.2977
10583TIP3    H253165   4.998   1.542  11.766 -0.2522  2.3889 -1.1664
10584TIP3   OH253166   4.531   0.633   3.076  0.0943  0.4590 -0.3350
10584TIP3    H153167   4.512   0.719   3.113  0.0584  0.5292 -0.5135
10584TIP3    H253168   4.453   0.611   3.025  0.4012  0.6554 -0.8974
10585TIP3   OH253169   6.003   0.273   3.139  0.1924  0.0193  0.5304
10585TIP3    H153170   6.086   0.280   3.093 -0.1542 -0.2460 -0.1539
10585TIP3    H253171   5.998   0.181   3.166 -0.5738 -0.3516 -0.8012
10586TIP3   OH253172   4.665   1.601  11.393 -0.0163 -0.3231 -0.0051
10586TIP3    H153173   4.644   1.508  11.386 -0.8852 -0.2818  1.4841
10586TIP3    H253174   4.587   1.640  11.433  0.3964  1.0159 -0.4502
10587TIP3   OH253175   2.279   1.430  13.202  0.6286 -0.0804 -0.0247
10587TIP3    H153176   2.184   1.434  13.214  0.2670 -0.5462 -2.2011
10587TIP3    H253177   2.312   1.393  13.283 -0.8296  1.8468  1.5356
10588TIP3   OH253178   4.492   1.856  14.796 -0.0938 -0.0685  0.7028
10588TIP3    H153179   4.536   1.896  14.871 -1.3301  0.5820  1.1149
10588TIP3    H253180   4.472   1.930  14.739 -1.6490 -0.1652  1.0703
10589TIP3   OH253181   0.347   2.841   4.901 -0.5508  0.2579  0.3366
10589TIP3    H153182   0.337   2.775   4.970 -0.0076 -0.2290 -0.0491
10589TIP3    H253183   0.271   2.828   4.844 -1.2106  0.9125  1.0340
10590TIP3   OH253184   2.373   1.215  14.737 -0.4724 -0.0622  0.1530
10590TIP3    H153185   2.438   1.151  14.708 -0.8497 -0.2649 -0.2525
10590TIP3    H253186   2.305   1.214  14.669 -0.2004  1.1930 -0.1802
10591TIP3   OH253187   5.076   4.199   0.041  0.3717 -0.2063  0.0682
10591TIP3    H153188   5.100   4.126  -0.016 -1.6158  0.1637 -1.3875
10591TIP3    H253189   5.077   4.275  -0.017  0.8298  0.6511  1.1768
10592TIP3   OH253190   2.166   1.931  15.768  0.4564 -0.2754  0.0029
10592TIP3    H153191   2.132   1.940  15.857  1.3803  0.6426  0.2798
10592TIP3    H253192   2.261   1.931  15.779  0.5886 -2.1506 -0.8063
10593TIP3   OH253193   4.590   3.573   2.980 -0.0520 -0.1101 -0.1832
10593TIP3    H153194   4.611   3.593   3.071  0.5211  0.9065 -0.5235
10593TIP3    H253195   4.533   3.495   2.984  1.2201 -1.0137  0.9474
10594TIP3   OH253196   0.982   6.369  11.750  0.0458 -0.9606  0.1677
10594TIP3    H153197   0.981   6.461  11.724  1.4761 -1.2170 -0.9348
10594TIP3    H253198   1.047   6.365  11.820 -0.5873 -1.0159  0.7616
10595TIP3   OH253199   5.862   1.718  14.278  0.1340  0.5782 -0.1504
10595TIP3    H153200   5.847   1.643  14.336 -0.0200  1.5699  1.1226
10595TIP3    H253201   5.778   1.763  14.274  0.6605  1.6463  0.4893
10596TIP3   OH253202   4.948   3.127   4.095  0.0231 -0.2377 -0.2762
10596TIP3    H153203   4.884   3.057   4.081 -0.1798 -0.2711  0.6918
10596TIP3    H253204   4.936   3.186   4.021 -1.7273  0.1879  0.2986
10597TIP3   OH253205   1.884   3.455  10.995  0.7179  0.3281  0.4082
10597TIP3    H153206   1.802   3.482  11.035  0.6489  0.1053  0.4205
10597TIP3    H253207   1.923   3.535  10.962 -0.2078  0.2632 -0.9224
10598TIP3   OH253208   0.082   0.262   2.677 -0.2433  0.5008  0.1128
10598TIP3    H153209   0.154   0.243   2.616 -0.7777  1.7367 -0.9795
10598TIP3    H253210   0.003   0.243   2.627 -0.6990 -1.0344  1.3706
10599TIP3   OH253211   2.846   1.855  16.193  0.6850  0.1684  0.7400
10599TIP3    H153212   2.823   1.801  16.117 -1.5850 -0.1816  1.5929
10599TIP3    H253213   2.879   1.936  16.156 -1.5935  0.5222 -0.7066
10600TIP3   OH253214   2.075   4.157  12.457 -0.0382  0.3183 -0.0116
10600TIP3    H153215   2.108   4.122  12.375 -1.8148  1.6308 -1.3911
10600TIP3    H253216   2.071   4.252  12.443 -0.4469  0.5682  1.5582
10601TIP3   OH253217   3.767   5.898   2.120 -0.0107 -0.0539  0.1806
10601TIP3    H153218   3.676   5.919   2.101  0.4926  2.1366 -0.1368
10601TIP3    H253219   3.764   5.850   2.203 -1.4629 -0.3577 -0.0181
10602TIP3   OH253220   0.232   1.388  13.880 -0.5018 -0.2284  0.7951
10602TIP3    H153221   0.322   1.384  13.914 -0.2028 -1.0984 -0.0532
10602TIP3    H253222   0.192   1.460  13.927  1.1579  1.3162 -0.0544
10603TIP3   OH253223   5.535   0.799   5.633  0.4796 -0.0904 -0.3673
10603TIP3    H153224   5.608   0.797   5.694  1.0213 -1.5301 -1.0142
10603TIP3    H253225   5.566   0.750   5.557 -1.4788 -1.6485 -0.2494
10604TIP3   OH253226   0.095   5.964  17.240 -0.3532 -0.2244 -0.5351
10604TIP3    H153227   0.128   5.913  17.315 -0.1960 -1.0513 -1.1443
10604TIP3    H253228   0.012   6.000  17.270 -0.7117 -1.2612 -0.2347
10605TIP3   OH253229   3.075   6.153   4.941  0.2983  0.6303 -0.0614
10605TIP3    H153230   3.145   6.167   4.878  0.0545  0.3920 -0.3884
10605TIP3    H253231   3.059   6.058   4.939  1.7351  0.2817  1.9143
10606TIP3   OH253232   0.971   1.858  16.759 -0.2935 -0.3808  0.1221
10606TIP3    H153233   0.992   1.810  16.839 -1.0913 -0.1311  0.4932
10606TIP3    H253234   1.056   1.879  16.721  0.1874  1.1469  1.8929
10607TIP3   OH253235   2.059   5.849  16.845  0.3954  0.7642  0.4626
10607TIP3    H153236   2.113   5.927  16.856  0.8855  0.4237  0.5114
10607TIP3    H253237   2.010   5.842  16.927 -0.4560  1.6128  0.0504
10608TIP3   OH253238   6.193   0.537  16.579  0.0842  0.0491  0.0070
10608TIP3    H153239   6.121   0.599  16.568  0.6215  0.7344  0.2850
10608TIP3    H253240   6.155   0.452  16.555 -1.9324 -0.2843  3.5912
10609TIP3   OH253241   0.034   5.517  12.482  0.0571 -0.5171  0.3558
10609TIP3    H153242   0.001   5.443  12.432  0.1550 -0.9236  0.8853
10609TIP3    H253243   0.077   5.573  12.417  0.0948 -0.9852 -0.0271
10610TIP3   OH253244   1.787   4.638  12.452  0.4172 -0.0427  0.2371
10610TIP3    H153245   1.734   4.691  12.511  1.8681  1.8644 -0.0484
10610TIP3    H253246   1.745   4.647  12.367 -0.7254 -1.4232  0.6185
10611TIP3   OH253247   0.233   6.060   1.751 -0.0292  0.5789 -0.7838
10611TIP3    H153248   0.204   6.000   1.683 -1.7704  1.1723 -0.6218
10611TIP3    H253249   0.219   6.011   1.833  1.9678 -0.0977 -0.7849
10612TIP3   OH253250   4.412   1.067  13.794 -0.2420  0.3592 -0.5449
10612TIP3    H153251   4.323   1.040  13.818 -0.7856  0.7363 -2.0579
10612TIP3    H253252   4.404   1.100  13.705  1.4989  0.0296 -0.8526
10613TIP3   OH253253   1.181   3.984  10.709 -0.6277 -0.5140  0.0876
10613TIP3    H153254   1.148   4.063  10.751  2.3593  0.3698  1.0231
10613TIP3    H253255   1.239   3.944  10.774  3.5978  0.4678 -2.6117
10614TIP3   OH253256   6.595   5.174   0.652  0.2522 -0.2226 -0.0901
10614TIP3    H153257   6.657   5.215   0.591 -0.4641  1.1856  0.1048
10614TIP3    H253258   6.534   5.126   0.595  0.9980 -0.9104 -0.3287
10615TIP3   OH253259   0.698   4.149   3.354 -0.5788  0.3794 -0.0963
10615TIP3    H153260   0.765   4.175   3.290  1.2759 -1.5025  0.9337
10615TIP3    H253261   0.628   4.110   3.302 -0.3084  1.2263 -1.1308
10616TIP3   OH253262   0.623   3.158  16.210 -0.0660 -0.0263 -0.3470
10616TIP3    H153263   0.629   3.063  16.223 -0.6368 -0.0856 -0.5074
10616TIP3    H253264   0.600   3.192  16.296 -0.2887 -0.0761 -0.3858
10617TIP3   OH253265   1.296   0.709  12.842  0.1255  0.2542 -0.2207
10617TIP3    H153266   1.244   0.778  12.800  1.1034  1.0032 -0.2393
10617TIP3    H253267   1.245   0.630  12.829 -1.0473  0.9764 -0.1659
10618TIP3   OH253268   3.119   0.892  12.876 -0.4163 -0.0269 -0.2230
10618TIP3    H153269   3.163   0.862  12.955  0.0823 -0.6604 -0.7328
10618TIP3    H253270   3.028   0.864  12.887 -0.9976  2.1523  1.2888
10619TIP3   OH253271   0.408   1.019   3.020  0.5522 -0.4949 -0.1073
10619TIP3    H153272   0.321   1.048   3.046  1.1256  0.6718  0.6070
10619TIP3    H253273   0.408   1.025   2.924 -0.0845 -0.2935 -0.0952
10620TIP3   OH253274   3.905   1.529   1.958 -0.1487  0.8598  0.2321
10620TIP3    H153275   3.932   1.563   1.873 -1.8186 -0.5851 -0.9571
10620TIP3    H253276   3.809   1.536   1.957 -0.5429 -2.5937  0.3757
10621TIP3   OH253277   5.305   4.551  13.664 -0.0886  0.1439 -0.4343
10621TIP3    H153278   5.324   4.616  13.732 -1.0854 -1.6406  1.6637
10621TIP3    H253279   5.212   4.530  13.677 -0.2995 -0.3491 -2.3395
10622TIP3   OH253280   6.415   5.128  12.746 -0.5546 -0.2631 -0.3627
10622TIP3    H153281   6.322   5.147  12.730 -0.3375  0.9734 -0.3001
10622TIP3    H253282   6.459   5.156  12.666 -0.1647 -0.2412 -0.1419
10623TIP3   OH253283   4.939   3.502  15.292 -0.2511  0.1125 -0.2856
10623TIP3    H153284   4.898   3.446  15.358  0.8724 -0.5504 -0.1258
10623TIP3    H253285   4.866   3.540  15.245 -1.1210  1.1571  1.7712
10624TIP3   OH253286   6.634   1.830   6.289  0.6543 -0.6029 -0.1383
10624TIP3    H153287   6.716   1.836   6.338 -0.4634  1.2027  1.6602
10624TIP3    H253288   6.641   1.899   6.223  0.2267  0.2063  0.6425
10625TIP3   OH253289   2.594   2.505  11.944 -0.2780 -0.3183  0.7923
10625TIP3    H153290   2.539   2.427  11.939  0.1209 -0.6172  0.9627
10625TIP3    H253291   2.675   2.480  11.900 -0.5833  0.3898 -0.1970
10626TIP3   OH253292   3.367   2.419   4.803  0.2443  0.4549  0.0260
10626TIP3    H153293   3.414   2.502   4.814 -0.0843  0.7484 -0.7634
10626TIP3    H253294   3.321   2.406   4.886  2.9979 -0.6800  1.5162
10627TIP3   OH253295   2.387   0.192   2.278 -0.2784  0.3788 -0.4970
10627TIP3    H153296   2.306   0.214   2.231 -0.2390  0.4929 -0.5114
10627TIP3    H253297   2.366   0.210   2.370  0.1641  1.7250 -0.6327
10628TIP3   OH253298   4.935   0.582   0.380  0.2619 -1.0760 -0.0842
10628TIP3    H153299   4.899   0.517   0.440 -0.9211 -0.9405 -0.6071
10628TIP3    H253300   4.878   0.577   0.303 -0.1774  0.8842  0.0520
10629TIP3   OH253301   2.948   5.520   3.127  0.4124  0.4016  0.0705
10629TIP3    H153302   3.008   5.481   3.063  0.6686 -0.5386  0.8594
10629TIP3    H253303   2.870   5.465   3.123  0.7855 -0.2402  1.2040
10630TIP3   OH253304   5.311   1.478  14.505  0.2943 -0.7248 -0.3027
10630TIP3    H153305   5.226   1.474  14.549 -0.0374  1.3312 -0.6522
10630TIP3    H253306   5.370   1.431  14.563 -0.6607 -0.3844  1.0047
10631TIP3   OH253307   5.744   4.165  13.260 -0.0174  0.2778  0.1106
10631TIP3    H153308   5.829   4.121  13.263  0.2086  0.5977 -1.2553
10631TIP3    H253309   5.762   4.250  13.219 -0.9722  0.4213 -0.0308
10632TIP3   OH253310   1.949   4.382   3.360 -0.0874 -0.3662 -0.2987
10632TIP3    H153311   1.970   4.409   3.270  0.1937 -1.5804 -0.6167
10632TIP3    H253312   2.014   4.314   3.380 -0.4318 -0.4256  0.6691
10633TIP3   OH253313   2.613   0.749   4.588  0.6087 -0.4184  0.3781
10633TIP3    H153314   2.553   0.808   4.633 -0.0730 -0.5472 -0.3453
10633TIP3    H253315   2.609   0.668   4.639  0.9710 -0.0974  0.9326
10634TIP3   OH253316   1.015   6.734  16.912  0.4321 -0.3856  0.0412
10634TIP3    H153317   1.046   6.825  16.916  1.5807 -0.6561 -1.8166
10634TIP3    H253318   1.043   6.703  16.827 -0.0896 -2.4656  0.5828
10635TIP3   OH253319   5.581   2.403  11.072  0.7477 -0.4537  0.5062
10635TIP3    H153320   5.509   2.345  11.047  1.0862 -1.3250  1.4552
10635TIP3    H253321   5.639   2.405  10.996 -0.8642  1.2502 -0.7339
10636TIP3   OH253322   3.525   1.142   0.506 -0.4336  0.0300  0.1718
10636TIP3    H153323   3.521   1.237   0.500 -0.6637  0.0028 -0.1604
10636TIP3    H253324   3.454   1.111   0.448 -2.7377 -0.2734  2.9018
10637TIP3   OH253325   3.030   4.846   4.726  0.9976  0.3483  0.0363
10637TIP3    H153326   2.972   4.778   4.759  0.6723 -0.3872 -1.9209
10637TIP3    H253327   3.053   4.898   4.803 -0.2275 -0.8587  1.2610
10638TIP3   OH253328   3.481   2.556  16.115  0.0289  0.5511  0.0178
10638TIP3    H153329   3.482   2.464  16.091 -2.6099  0.8159 -1.4947
10638TIP3    H253330   3.560   2.593  16.074 -0.2273 -0.5632 -1.5614
10639TIP3   OH253331   5.539   0.930  10.806  0.4956 -0.8848  0.0232
10639TIP3    H153332   5.489   0.898  10.881 -1.0264 -0.3117 -0.7204
10639TIP3    H253333   5.577   0.851  10.767 -1.5480 -1.6134 -0.6050
10640TIP3   OH253334   3.844   6.569  11.638 -0.1467  0.1189 -0.2724
10640TIP3    H153335   3.776   6.596  11.576 -0.6091 -2.4323 -1.0012
10640TIP3    H253336   3.798   6.558  11.721 -0.2644  0.1645 -0.3305
10641TIP3   OH253337   1.637   2.126  16.145 -0.8859 -0.8746 -0.3421
10641TIP3    H153338   1.731   2.135  16.134 -0.8802 -0.4758  0.0033
10641TIP3    H253339   1.626   2.050  16.202 -0.6754  0.2048  1.1942
10642TIP3   OH253340   2.723   5.447  13.745 -0.4430  0.3136 -0.2171
10642TIP3    H153341   2.750   5.537  13.761 -0.9903  0.8767 -2.2448
10642TIP3    H253342   2.634   5.454  13.709 -1.0592 -1.1392  0.9129
10643TIP3   OH253343   2.732   4.072   4.862  0.0570 -0.2748  0.2907
10643TIP3    H153344   2.741   3.980   4.836 -0.8321 -0.5130  0.7968
10643TIP3    H253345   2.649   4.076   4.909  0.2299  0.7350  0.5334
10644TIP3   OH253346   5.564   3.022  16.122  0.3718 -0.0110  0.2454
10644TIP3    H153347   5.576   2.929  16.143 -1.9927 -0.5227 -0.3345
10644TIP3    H253348   5.480   3.044  16.163  0.8081  1.8416  0.1969
10645TIP3   OH253349   0.624   2.848  14.002 -0.2362  0.1767 -0.4511
10645TIP3    H153350   0.649   2.899  14.079 -0.9692  0.0241 -0.1071
10645TIP3    H253351   0.593   2.914  13.939 -1.8192  0.1329  0.2360
10646TIP3   OH253352   4.977   2.336  14.081  0.0844 -0.0156 -0.5229
10646TIP3    H153353   4.960   2.256  14.032  1.2769 -0.0433 -0.9327
10646TIP3    H253354   4.955   2.314  14.172 -1.9776 -0.0185 -0.9738
10647TIP3   OH253355   3.267   2.406  17.075 -0.3677  0.3502 -0.3453
10647TIP3    H153356   3.343   2.450  17.113  0.4956  1.3575 -2.9795
10647TIP3    H253357   3.248   2.456  16.995 -1.5770 -1.9953 -1.6192
10648TIP3   OH253358   3.084   2.090   6.156  0.2575  0.3022  0.4112
10648TIP3    H153359   3.003   2.054   6.191  0.1519 -2.2835 -2.1099
10648TIP3    H253360   3.057   2.140   6.079  0.9375  0.8734  0.5282
10649TIP3   OH253361   3.290   1.997   2.332 -0.1831  0.3781 -0.8458
10649TIP3    H153362   3.255   2.074   2.378  2.6376  1.1163  0.3126
10649TIP3    H253363   3.332   1.946   2.401  0.4488 -0.7443 -2.0288
10650TIP3   OH253364   1.209   4.428  12.863  0.3557  0.0989  0.3596
10650TIP3    H153365   1.159   4.359  12.819  1.5927 -0.1716 -0.6712
10650TIP3    H253366   1.236   4.390  12.946  0.2909 -0.3481  0.1770
10651TIP3   OH253367   6.094   5.879  15.053  0.5520  0.1584  0.0937
10651TIP3    H153368   6.185   5.881  15.083  0.9146  0.4216 -0.9637
10651TIP3    H253369   6.063   5.969  15.065  1.5498  0.9957 -2.6818
10652TIP3   OH253370   6.319   0.466   4.584 -0.1379  0.0199  0.4571
10652TIP3    H153371   6.229   0.494   4.570 -0.6056 -1.7443 -0.3936
10652TIP3    H253372   6.334   0.398   4.518  1.8109  0.2340  0.5988
10653TIP3   OH253373   2.871   1.411  15.333 -0.5076  0.4900  0.2551
10653TIP3    H153374   2.778   1.434  15.323 -0.6968 -0.1839  0.3361
10653TIP3    H253375   2.881   1.394  15.427 -0.5520 -0.3781  0.1192
10654TIP3   OH253376   6.149   5.353  16.931  0.2775 -0.0087 -0.4422
10654TIP3    H153377   6.229   5.301  16.922  0.6388  0.6198 -0.9410
10654TIP3    H253378   6.178   5.435  16.970 -0.6043 -0.9638  2.5077
10655TIP3   OH253379   5.853   0.861   5.546 -0.7808 -0.2105  0.4516
10655TIP3    H153380   5.816   0.882   5.632  1.5002  1.1094  1.2028
10655TIP3    H253381   5.896   0.776   5.558 -0.9184 -0.2801  0.4547
10656TIP3   OH253382   1.529   3.660   4.777  0.5057 -0.1147 -0.5338
10656TIP3    H153383   1.594   3.611   4.726  1.5423  1.0447 -0.3646
10656TIP3    H253384   1.480   3.592   4.823  0.6452 -1.0986 -1.7629
10657TIP3   OH253385   4.035   3.042   5.272  0.7781  0.3510 -0.6126
10657TIP3    H153386   4.105   3.027   5.335 -1.0110  1.5932  1.8627
10657TIP3    H253387   4.070   3.105   5.210  1.3132  2.5754  1.7758
10658TIP3   OH253388   2.067   0.009  16.609  0.3837 -0.2349  0.0604
10658TIP3    H153389   2.141   0.007  16.548  1.4709 -0.1701  1.3320
10658TIP3    H253390   2.079  -0.068  16.664 -0.2238  0.0513  0.6083
10659TIP3   OH253391   4.098   5.078   0.049  0.1183  0.0041 -0.3307
10659TIP3    H153392   4.106   5.164   0.007  1.8785 -0.3079 -0.6802
10659TIP3    H253393   4.017   5.085   0.101 -0.5956  1.3396 -1.5421
10660TIP3   OH253394   2.945   4.512  12.424 -0.2596  0.7221 -0.5183
10660TIP3    H153395   2.964   4.595  12.467 -0.9811  0.4134  0.4146
10660TIP3    H253396   2.931   4.535  12.332 -1.3881  1.7651 -0.1068
10661TIP3   OH253397   1.774   6.114   4.186 -0.3477  0.4685 -0.5011
10661TIP3    H153398   1.857   6.160   4.200 -0.5475  0.5947  0.2833
10661TIP3    H253399   1.722   6.133   4.264 -0.2339 -1.5267  0.1277
10662TIP3   OH253400   3.792   5.739  13.521  0.1566 -0.0451 -0.5044
10662TIP3    H153401   3.771   5.682  13.447 -0.1176 -0.1793 -0.3251
10662TIP3    H253402   3.714   5.793  13.533  0.4028  0.3551 -0.6565
10663TIP3   OH253403   1.857   4.169   6.063  0.4369 -0.2327 -0.2807
10663TIP3    H153404   1.919   4.113   6.016  2.6335  1.2768  0.6784
10663TIP3    H253405   1.822   4.114   6.133 -1.7466 -2.0469 -2.5952
10664TIP3   OH253406   6.533   0.515   4.962  0.3477  0.1527  0.3002
10664TIP3    H153407   6.565   0.476   4.880  1.3143  2.1753 -0.3394
10664TIP3    H253408   6.521   0.440   5.020 -1.2861 -1.4618 -1.9325
10665TIP3   OH253409   3.726   5.415  14.063 -0.5563 -0.1759 -0.4244
10665TIP3    H153410   3.778   5.448  13.990 -0.0960  1.6075  0.6315
10665TIP3    H253411   3.638   5.405  14.028 -0.5111  1.3959 -1.0705
10666TIP3   OH253412   3.217   4.243   1.711  0.0004 -0.4555 -0.1970
10666TIP3    H153413   3.209   4.202   1.625  0.1865 -2.7304  0.7990
10666TIP3    H253414   3.291   4.303   1.703 -0.5151  0.0055 -1.8271
10667TIP3   OH253415   2.588   4.772  11.266 -0.1722  0.1128 -0.2904
10667TIP3    H153416   2.644   4.782  11.189  1.4944  0.7478  0.9452
10667TIP3    H253417   2.600   4.681  11.293  0.2998  0.2598 -0.0037
10668TIP3   OH253418   5.676   2.620  14.928  0.6289 -0.3977 -0.3307
10668TIP3    H153419   5.617   2.593  14.857 -1.9434  2.2743  0.5638
10668TIP3    H253420   5.723   2.696  14.892  0.5830 -0.0955  0.2263
10669TIP3   OH253421   5.781   4.374   0.357 -0.0248  0.6062  0.2690
10669TIP3    H153422   5.762   4.461   0.391 -1.9695  1.4045 -2.5651
10669TIP3    H253423   5.832   4.389   0.278  0.8852 -0.9497  0.5130
10670TIP3   OH253424   1.284   4.922   3.084 -0.1362  1.0739 -0.2832
10670TIP3    H153425   1.249   4.984   3.147 -0.4892  1.2636 -0.6561
10670TIP3    H253426   1.343   4.973   3.028 -0.7654  1.1831 -0.8666
10671TIP3   OH253427   5.146   4.940  14.854  0.6965  0.2214  0.3294
10671TIP3    H153428   5.223   4.994  14.875 -0.2939  1.2952  1.3527
10671TIP3    H253429   5.137   4.881  14.929 -1.6731  2.7112  2.2012
10672TIP3   OH253430   0.524   6.725   2.417 -0.1677 -0.5468 -0.4155
10672TIP3    H153431   0.490   6.738   2.506 -1.4366 -0.3268 -0.9057
10672TIP3    H253432   0.540   6.630   2.411  0.8739 -0.4326  0.3574
10673TIP3   OH253433   1.639   4.287   3.907 -0.1128 -0.2728 -0.1824
10673TIP3    H153434   1.649   4.331   3.823  0.6424 -2.6322 -1.4297
10673TIP3    H253435   1.725   4.250   3.925 -0.5465 -0.7182  1.0829
10674TIP3   OH253436   6.047   5.504   4.689  0.1816 -0.2253 -0.1906
10674TIP3    H153437   5.984   5.454   4.740 -0.3282  0.5822 -0.0054
10674TIP3    H253438   6.039   5.470   4.600 -0.1586 -0.4701 -0.0664
10675TIP3   OH253439   5.815   2.201   2.206 -0.4050 -0.0556 -0.1581
10675TIP3    H153440   5.858   2.149   2.274 -0.0213 -1.0958 -1.1609
10675TIP3    H253441   5.880   2.267   2.182 -0.3735  0.0339  0.1642
10676TIP3   OH253442   1.588   5.928  11.786 -0.0426 -0.0985  0.0896
10676TIP3    H153443   1.581   5.834  11.798  0.8268 -0.2575 -0.5223
10676TIP3    H253444   1.524   5.949  11.718 -2.3064  0.2344  2.1813
10677TIP3   OH253445   4.780   4.146  13.944 -0.7936 -0.0597  0.1775
10677TIP3    H153446   4.792   4.063  13.991 -1.8479  0.4007  1.3051
10677TIP3    H253447   4.720   4.124  13.873  0.5309 -0.6803 -0.8013
10678TIP3   OH253448   5.983   6.509   5.678  0.2223 -0.0099 -0.1382
10678TIP3    H153449   6.026   6.590   5.703  0.6283 -0.0378 -0.7305
10678TIP3    H253450   5.910   6.500   5.740  0.5824  0.4490  0.3564
10679TIP3   OH253451   2.690   4.114  16.831 -0.7158 -0.2491  0.6022
10679TIP3    H153452   2.725   4.025  16.826  0.0189  0.0719  0.0251
10679TIP3    H253453   2.626   4.110  16.903 -2.1067 -1.7206 -0.6432
10680TIP3   OH253454   3.012   3.467   4.442  0.5128 -0.0672 -0.1793
10680TIP3    H153455   3.037   3.409   4.514  0.7840  0.5015  0.1935
10680TIP3    H253456   3.010   3.410   4.365  1.3983 -0.4528  0.0667
10681TIP3   OH253457   4.594   2.301   2.773 -0.0041 -0.7830 -0.1289
10681TIP3    H153458   4.664   2.364   2.759 -1.1941  0.2489 -1.8694
10681TIP3    H253459   4.624   2.221   2.730  1.0705 -1.1406  1.2071
10682TIP3   OH253460   6.140   3.033  15.320 -0.2984  0.1385 -0.2233
10682TIP3    H153461   6.220   3.061  15.276 -0.3739 -0.7196 -0.9201
10682TIP3    H253462   6.169   3.006  15.407  0.3834 -1.3345 -0.8762
10683TIP3   OH253463   3.270   4.641   3.150 -0.3601 -0.1957  0.2608
10683TIP3    H153464   3.319   4.687   3.082  2.1934 -0.5636  1.6887
10683TIP3    H253465   3.294   4.686   3.231  0.8521 -2.7983  1.5074
10684TIP3   OH253466   3.936   3.440   1.290 -0.6008  0.3502 -0.0302
10684TIP3    H153467   3.859   3.412   1.339 -0.0449  0.7848  1.1265
10684TIP3    H253468   3.972   3.360   1.252 -1.0033 -0.0003  0.3284
10685TIP3   OH253469   6.015   3.396  16.459  0.3917 -0.1002 -0.0386
10685TIP3    H153470   6.025   3.491  16.464 -2.1821  0.1935  1.4911
10685TIP3    H253471   5.946   3.383  16.395 -0.0461 -0.8352  0.5699
10686TIP3   OH253472   1.289   0.677   6.758  0.4707  0.1823 -0.3444
10686TIP3    H153473   1.248   0.608   6.811  0.7494  0.0336 -0.3227
10686TIP3    H253474   1.320   0.631   6.679 -0.3279  0.4775 -0.8386
10687TIP3   OH253475   6.197   5.996   2.029 -0.3269  0.5532  0.4547
10687TIP3    H153476   6.218   6.044   2.110  1.4380  1.5629 -0.5391
10687TIP3    H253477   6.187   5.905   2.057 -0.9869  1.0532  1.9766
10688TIP3   OH253478   5.094   5.909  17.301 -0.2143  0.6010  0.3315
10688TIP3    H153479   5.179   5.911  17.344  0.6021  1.9145 -1.2482
10688TIP3    H253480   5.057   5.995  17.317 -0.4776  0.6414 -0.4445
10689TIP3   OH253481   2.824   0.037   2.199  0.9576 -0.4332 -0.0878
10689TIP3    H153482   2.870   0.116   2.227 -0.6383  0.3812  0.3592
10689TIP3    H253483   2.866   0.012   2.117  0.5005  1.8042 -1.0781
10690TIP3   OH253484   2.833   5.649  15.348  0.5242  0.3086 -0.3351
10690TIP3    H153485   2.849   5.559  15.321 -0.2624  0.4879 -1.4802
10690TIP3    H253486   2.829   5.645  15.443  0.2363 -0.9122 -0.3807
10691TIP3   OH253487   5.824   4.581  12.054 -0.2002  0.0030 -0.2051
10691TIP3    H153488   5.732   4.568  12.028 -0.7733 -1.9318  2.3990
10691TIP3    H253489   5.847   4.667  12.018 -3.7358  1.5686  0.8031
10692TIP3   OH253490   2.404   1.992  13.618 -0.0243  0.0376  0.4590
10692TIP3    H153491   2.475   1.975  13.557  1.2596  1.3143  1.4953
10692TIP3    H253492   2.436   1.958  13.702 -0.5432  0.7938  0.9793
10693TIP3   OH253493   0.679   3.776  16.566  0.4547  0.1146  0.2972
10693TIP3    H153494   0.687   3.842  16.635 -0.9133  1.7314 -0.9787
10693TIP3    H253495   0.672   3.827  16.485  1.1484 -1.6828 -0.9586
10694TIP3   OH253496   1.189   5.767   4.977 -0.3135  0.4003  0.0002
10694TIP3    H153497   1.127   5.696   4.960  0.6985 -0.5896  0.3623
10694TIP3    H253498   1.191   5.775   5.072  0.9269 -0.3219  0.0451
10695TIP3   OH253499   1.210   3.548  16.385  0.7732  0.0556  0.0473
10695TIP3    H153500   1.295   3.593  16.387  0.6568  0.2516  1.4799
10695TIP3    H253501   1.166   3.584  16.308  2.8685 -1.7649 -2.1619
10696TIP3   OH253502   6.558   2.915   4.338  0.6374  0.2677 -0.3128
10696TIP3    H153503   6.641   2.963   4.339 -0.9028  3.2049 -1.5383
10696TIP3    H253504   6.565   2.857   4.262  2.4886 -1.5236  1.1177
10697TIP3   OH253505   6.104   6.504  14.018  0.2573  0.0166 -0.3321
10697TIP3    H153506   6.083   6.513  13.925  2.7467  0.0477 -0.9780
10697TIP3    H253507   6.177   6.565  14.032 -0.7699  0.8413  1.9457
10698TIP3   OH253508   3.913   4.542  15.611  0.1995 -0.6348  0.2006
10698TIP3    H153509   3.963   4.462  15.600  0.3769 -0.4846 -0.1117
10698TIP3    H253510   3.889   4.544  15.704 -1.5729 -2.0933 -0.1694
10699TIP3   OH253511   5.355   3.698   1.682  0.3938  0.2997  0.3098
10699TIP3    H153512   5.327   3.779   1.725 -3.0375  0.4580 -1.8907
10699TIP3    H253513   5.435   3.722   1.635  1.1254  1.5244  2.0409
10700TIP3   OH253514   1.684   4.835  12.609  0.3835  0.2799  0.1095
10700TIP3    H153515   1.589   4.842  12.616  0.4287  0.0040  1.4070
10700TIP3    H253516   1.715   4.839  12.700  1.6832  1.3182 -0.3501
10701TIP3   OH253517   1.580   2.166  14.927  0.4285  0.1558 -0.4302
10701TIP3    H153518   1.596   2.240  14.868 -1.5120  1.6573  0.8003
10701TIP3    H253519   1.651   2.171  14.991  0.7450  0.4788 -0.8023
10702TIP3   OH253520   2.131   0.427   2.425  0.0288  0.8408 -0.5245
10702TIP3    H153521   2.205   0.402   2.480  0.6674  0.2180 -1.6247
10702TIP3    H253522   2.065   0.359   2.442  0.8779 -0.3490 -1.7719
10703TIP3   OH253523   4.274   5.775   1.370 -0.3304 -0.1845 -0.4414
10703TIP3    H153524   4.274   5.751   1.277 -2.2471  1.4459 -0.9466
10703TIP3    H253525   4.232   5.701   1.414  0.8869 -1.1168 -0.8032
10704TIP3   OH253526   4.926   0.453  14.386 -0.0565  0.1081 -0.1058
10704TIP3    H153527   4.923   0.364  14.420 -1.3190  0.5118  0.8873
10704TIP3    H253528   5.018   0.465  14.359 -0.0033 -1.6763 -0.8406
10705TIP3   OH253529   5.078   2.255   5.502  0.6475  0.3785 -0.0266
10705TIP3    H153530   4.989   2.264   5.536  0.6996  1.3700 -0.1294
10705TIP3    H253531   5.130   2.230   5.579  0.6077  1.7163  0.4574
10706TIP3   OH253532   3.279   3.526  11.324  0.4501  0.0925  0.1751
10706TIP3    H153533   3.369   3.501  11.306 -0.5486 -2.0676 -2.3660
10706TIP3    H253534   3.226   3.454  11.290 -2.3076  1.7105  0.7161
10707TIP3   OH253535   1.839   5.552   5.863  0.1895 -0.4252  0.3033
10707TIP3    H153536   1.905   5.583   5.925  0.7411 -0.7925 -0.0903
10707TIP3    H253537   1.856   5.602   5.783 -0.7127  0.2649  0.5273
10708TIP3   OH253538   2.202   3.896   6.544 -0.6504  0.2048  0.2895
10708TIP3    H153539   2.218   3.912   6.451  0.9856 -1.4779  0.2293
10708TIP3    H253540   2.140   3.965   6.570 -2.1316 -0.0193 -2.3086
10709TIP3   OH253541   5.356   4.121   2.889  0.6169 -0.0228 -0.4264
10709TIP3    H153542   5.449   4.121   2.868  0.8846 -0.1579  0.6834
10709TIP3    H253543   5.315   4.072   2.818  1.1984  1.1816 -1.6535
10710TIP3   OH253544   2.220   0.053   4.796  0.3590 -0.1222 -0.8377
10710TIP3    H153545   2.170   0.122   4.839 -1.4518 -2.0647  0.4015
10710TIP3    H253546   2.180   0.044   4.710  0.7163  0.4817 -1.0686
10711TIP3   OH253547   4.874   6.000  11.987 -0.2621  0.1717 -0.2032
10711TIP3    H153548   4.876   5.946  11.908 -0.4642  0.3252 -0.3147
10711TIP3    H253549   4.885   6.090  11.954 -2.3957  0.4687 -0.2731
10712TIP3   OH253550   3.229   0.378  16.588  0.0804 -0.1904  0.3434
10712TIP3    H153551   3.203   0.419  16.670 -0.2890 -1.6930  1.0064
10712TIP3    H253552   3.272   0.449  16.538  0.8020  0.6138  2.0369
10713TIP3   OH253553   5.927   0.013  13.016 -0.4097  0.0507  0.3882
10713TIP3    H153554   5.849  -0.007  12.964 -0.3843 -0.1204  0.4160
10713TIP3    H253555   5.934  -0.060  13.078  0.5251 -0.6247 -0.4756
10714TIP3   OH253556   0.175   4.007   2.604 -0.3438  0.5732 -0.2144
10714TIP3    H153557   0.240   4.070   2.573  0.4241 -0.6346 -1.1444
10714TIP3    H253558   0.091   4.049   2.586  0.1549  1.5539 -0.3262
10715TIP3   OH253559   6.572   4.721   2.303  0.1792  0.1865 -0.0021
10715TIP3    H153560   6.654   4.682   2.332  0.0111 -0.7571 -0.7547
10715TIP3    H253561   6.504   4.667   2.343 -0.0673  0.4340 -0.0819
10716TIP3   OH253562   4.158   4.969   5.201  0.2121  0.1807  0.0984
10716TIP3    H153563   4.251   4.957   5.182  0.6198 -1.5604  2.7627
10716TIP3    H253564   4.155   5.046   5.257 -0.1353  0.9360 -0.9255
10717TIP3   OH253565   5.897   6.111  13.974 -0.5455 -0.1839 -0.4713
10717TIP3    H153566   5.877   6.029  14.020 -0.3210 -0.1894 -0.3794
10717TIP3    H253567   5.974   6.145  14.019 -1.3258  0.6744  0.2423
10718TIP3   OH253568   5.838   6.077   2.345  0.3693 -0.1669  0.2412
10718TIP3    H153569   5.815   6.097   2.436  0.6347 -1.3195  0.5697
10718TIP3    H253570   5.782   6.136   2.293  0.1030  0.3889  1.1359
10719TIP3   OH253571   2.409   0.547   1.378  0.2387 -0.0665 -0.0472
10719TIP3    H153572   2.313   0.545   1.381  0.2601 -0.5923  0.3697
10719TIP3    H253573   2.436   0.471   1.429  0.9174  1.1460  1.4647
10720TIP3   OH253574   5.132   0.341   0.857  0.0562 -0.4413 -0.1303
10720TIP3    H153575   5.187   0.296   0.793  0.3803 -0.8879  0.4423
10720TIP3    H253576   5.095   0.270   0.910  1.3811 -0.0121  1.4356
10721TIP3   OH253577   4.081   4.713   2.376  0.3623  0.0382  0.4557
10721TIP3    H153578   4.127   4.723   2.292  1.3346  2.9023  1.2206
10721TIP3    H253579   4.146   4.676   2.435  0.1196 -0.6163  0.3192
10722TIP3   OH253580   1.447   2.074  16.710  0.4216 -0.4404 -0.2091
10722TIP3    H153581   1.497   1.998  16.679  0.8774 -0.4669  0.5563
10722TIP3    H253582   1.427   2.053  16.801 -0.5663 -0.2056 -0.3668
10723TIP3   OH253583   3.555   1.269   2.699 -0.3307  0.5066  0.2054
10723TIP3    H153584   3.480   1.302   2.649 -1.3650 -1.5058  0.3119
10723TIP3    H253585   3.605   1.347   2.723 -2.3701  1.9107  0.0890
10724TIP3   OH253586   3.202   2.826  14.002  0.1292  0.7872  0.4280
10724TIP3    H153587   3.111   2.818  13.972  0.8673  0.1846 -1.8173
10724TIP3    H253588   3.250   2.759  13.954  1.4966 -0.2146  3.0019
10725TIP3   OH253589   4.681   2.179  13.481  0.4369  0.1698  0.0054
10725TIP3    H153590   4.612   2.123  13.517  0.7709  0.8674  1.8408
10725TIP3    H253591   4.761   2.128  13.493  0.5096  0.2573 -0.1063
10726TIP3   OH253592   6.097   1.744  13.742 -0.2881  0.1446 -0.4586
10726TIP3    H153593   6.013   1.716  13.779 -0.4130  0.6697 -0.3323
10726TIP3    H253594   6.078   1.759  13.649 -0.1762 -0.3628 -0.5656
10727TIP3   OH253595   6.592   1.783  12.584 -0.6288  0.0832  0.2411
10727TIP3    H153596   6.651   1.744  12.648  0.7688  0.1104 -0.9835
10727TIP3    H253597   6.563   1.709  12.530 -2.0681  0.0058  1.0482
10728TIP3   OH253598   3.588   2.496   5.014  0.1172 -0.2175 -1.0935
10728TIP3    H153599   3.647   2.564   4.981  0.9528  0.2203  1.1245
10728TIP3    H253600   3.641   2.417   5.019  0.4837  0.0922  0.5677
10729TIP3   OH253601   2.435   5.067  16.190 -0.0776  0.4391 -0.7741
10729TIP3    H153602   2.416   4.982  16.149  0.3967  1.3148 -2.9621
10729TIP3    H253603   2.359   5.084  16.247 -1.5753 -0.1927 -2.4671
10730TIP3   OH253604   2.867   6.021   2.861 -0.5574 -0.4854 -0.2713
10730TIP3    H153605   2.901   5.949   2.914  0.0068 -0.1157 -0.1109
10730TIP3    H253606   2.904   6.100   2.902 -1.0038 -0.1217 -0.5595
10731TIP3   OH253607   1.351   0.348  12.250 -0.0748 -0.3031  0.3197
10731TIP3    H153608   1.335   0.429  12.203  0.3721 -1.8248 -2.7059
10731TIP3    H253609   1.437   0.318  12.219 -0.2434 -1.9741  1.2877
10732TIP3   OH253610   2.565   3.523  13.944 -0.4996 -0.4344 -0.2636
10732TIP3    H153611   2.571   3.529  14.039 -1.0859 -0.9152 -0.1931
10732TIP3    H253612   2.536   3.610  13.916 -0.0158 -0.1962 -0.0369
10733TIP3   OH253613   3.209   5.530  14.965 -0.2303 -0.7182  0.3077
10733TIP3    H153614   3.219   5.457  15.027 -0.1229 -1.3537 -0.4392
10733TIP3    H253615   3.182   5.604  15.019  0.2982 -1.1424  1.1753
10734TIP3   OH253616   0.574   0.534   2.665 -0.1327  0.2062  0.4721
10734TIP3    H153617   0.608   0.598   2.602  0.0661  1.5766  1.9251
10734TIP3    H253618   0.479   0.537   2.653 -0.0935  0.4192  0.2058
10735TIP3   OH253619   4.556   0.402   3.850  0.9591  0.4071  0.1998
10735TIP3    H153620   4.579   0.341   3.920 -1.5610 -0.8163  0.0835
10735TIP3    H253621   4.627   0.394   3.786  1.3692 -1.3968  0.8235
10736TIP3   OH253622   3.789   0.439  15.219  0.7048  0.0433  0.0033
10736TIP3    H153623   3.869   0.407  15.177 -0.2444 -1.3995 -0.7676
10736TIP3    H253624   3.820   0.484  15.298  2.3748  0.9864 -1.1200
10737TIP3   OH253625   5.247   1.713  13.514 -0.5628  0.1152 -0.0318
10737TIP3    H153626   5.226   1.738  13.604  0.3909  0.6775  0.0514
10737TIP3    H253627   5.266   1.796  13.470 -0.2048 -0.2245 -0.5287
10738TIP3   OH253628   3.579   2.980   4.792 -0.2252  0.1815 -0.0793
10738TIP3    H153629   3.512   3.047   4.781 -0.3895  0.2105  0.9492
10738TIP3    H253630   3.603   2.985   4.885  0.4382 -0.5475 -0.1950
10739TIP3   OH253631   2.110   0.404   4.129  0.0760  0.4186 -0.1242
10739TIP3    H153632   2.204   0.411   4.146 -0.0674  0.1454  0.8045
10739TIP3    H253633   2.082   0.494   4.111  0.4884  0.5196 -0.2702
10740TIP3   OH253634   3.679   1.014   4.535 -0.1486 -0.2671 -0.2365
10740TIP3    H153635   3.728   1.070   4.595 -1.6397  1.7199 -0.7574
10740TIP3    H253636   3.744   0.951   4.503  0.5922 -1.8540  3.8015
10741TIP3   OH253637   3.190   4.004  15.421  0.1762 -0.3500  0.4398
10741TIP3    H153638   3.112   4.059  15.427 -1.0355 -1.9414  0.2630
10741TIP3    H253639   3.231   4.029  15.339  0.8406  1.6910  1.3471
10742TIP3   OH253640   3.376   1.895  13.980  0.3199 -0.2000 -0.3560
10742TIP3    H153641   3.296   1.859  14.020  0.1645  1.2638  0.7175
10742TIP3    H253642   3.402   1.828  13.917  0.0552 -2.2139  1.5252
10743TIP3   OH253643   3.957   3.504   6.290  0.0016  0.5815  0.7454
10743TIP3    H153644   3.972   3.570   6.357  0.4219  0.8241  0.4210
10743TIP3    H253645   4.039   3.502   6.241  0.1982 -0.5670  1.0882
10744TIP3   OH253646   5.843   0.523  12.509 -0.1406 -0.2544 -0.0825
10744TIP3    H153647   5.882   0.456  12.563 -1.9558  0.1965  1.9235
10744TIP3    H253648   5.776   0.564  12.565  0.1649  2.5055 -1.5416
10745TIP3   OH253649   1.396   2.448  11.648  0.1788  0.3904 -1.1323
10745TIP3    H153650   1.347   2.367  11.634 -0.2841  0.4638 -0.0091
10745TIP3    H253651   1.476   2.437  11.597 -0.4936 -0.1957 -2.1034
10746TIP3   OH253652   0.748   3.581   1.145  0.4673  0.4761 -0.4484
10746TIP3    H153653   0.808   3.508   1.162  0.1572  0.5776  1.2612
10746TIP3    H253654   0.793   3.634   1.080  1.5871 -0.2070 -0.2624
10747TIP3   OH253655   0.431   4.640  12.821  0.0128 -0.4985 -1.0442
10747TIP3    H153656   0.375   4.687  12.883  1.2652  0.5717 -0.6843
10747TIP3    H253657   0.389   4.554  12.812 -1.1694 -0.0574 -0.0871
10748TIP3   OH253658   5.065   1.062   0.362  0.3052 -0.6297  0.2970
10748TIP3    H153659   5.100   1.136   0.412 -1.7221 -0.0226  0.9075
10748TIP3    H253660   4.981   1.042   0.404 -0.3896 -1.6082 -1.4516
10749TIP3   OH253661   1.205   3.528  17.092 -0.2309  0.1132 -0.1558
10749TIP3    H153662   1.252   3.554  17.013  1.8543 -0.2402  0.8869
10749TIP3    H253663   1.214   3.602  17.151 -0.2799 -0.2779  0.3511
10750TIP3   OH253664   0.973   2.057   2.044 -0.6529  0.1977 -0.3151
10750TIP3    H153665   0.925   2.074   1.963 -0.9218 -1.6778 -0.6095
10750TIP3    H253666   1.060   2.031   2.016 -0.3291  0.8514  0.0738
10751TIP3   OH253667   4.736   2.963   5.430 -0.3720 -0.0214  0.1389
10751TIP3    H153668   4.766   2.915   5.353 -0.3185  0.2502 -0.0088
10751TIP3    H253669   4.769   2.912   5.504 -0.3308 -0.2231 -0.0178
10752TIP3   OH253670   1.735   4.690  11.676  0.3931  0.1440 -0.3466
10752TIP3    H153671   1.759   4.768  11.726 -0.7028  0.3039 -0.0439
10752TIP3    H253672   1.727   4.721  11.585 -2.2399  0.9440  0.0723
10753TIP3   OH253673   3.885   1.115   1.802  0.6963 -0.3173 -0.0467
10753TIP3    H153674   3.876   1.141   1.710 -0.2200 -0.0576  0.1109
10753TIP3    H253675   3.971   1.073   1.806  0.7618 -0.3053 -1.0190
10754TIP3   OH253676   0.529   3.101   1.332  0.3269  0.1628  0.0945
10754TIP3    H153677   0.624   3.101   1.330  0.4349  0.0088  2.2697
10754TIP3    H253678   0.504   3.191   1.311  0.9660  0.3063 -0.0628
10755TIP3   OH253679   1.445   5.629  16.740  0.1012 -0.1944 -0.6733
10755TIP3    H153680   1.447   5.572  16.817  0.7240  0.8280  0.0940
10755TIP3    H253681   1.353   5.630  16.713 -0.0890 -0.7314 -0.0671
10756TIP3   OH253682   3.711   0.924  10.627  0.0698 -0.2887 -0.0163
10756TIP3    H153683   3.684   0.970  10.707 -0.2706  0.5341 -0.5950
10756TIP3    H253684   3.643   0.943  10.563  0.5344 -0.6245 -0.6264
10757TIP3   OH253685   1.548   2.156  17.068  0.6053  0.4319  0.4219
10757TIP3    H153686   1.538   2.221  17.137 -1.2979 -0.1752  0.7649
10757TIP3    H253687   1.494   2.082  17.096 -1.4176  0.7013 -2.3283
10758TIP3   OH253688   2.173   2.331  16.212  0.2438 -0.0480  0.1372
10758TIP3    H153689   2.154   2.354  16.303  1.8228  0.2121  0.4265
10758TIP3    H253690   2.159   2.412  16.163  0.8507  0.2119  0.3871
10759TIP3   OH253691   4.226   1.726  12.437  0.1783  0.4101 -0.3482
10759TIP3    H153692   4.139   1.698  12.409 -0.4548  2.1398 -0.2159
10759TIP3    H253693   4.210   1.806  12.488  1.8652  0.9530 -0.6167
10760TIP3   OH253694   2.734   1.197   2.246 -0.3235  0.3908  0.0065
10760TIP3    H153695   2.748   1.274   2.190 -1.1222  0.1515 -0.5353
10760TIP3    H253696   2.750   1.229   2.335  0.5109  0.8896 -0.3040
10761TIP3   OH253697   1.270   3.384  13.580 -0.0126 -0.0761 -0.2059
10761TIP3    H153698   1.327   3.325  13.530 -0.1876 -0.5261  0.1195
10761TIP3    H253699   1.181   3.362  13.552 -0.1901 -1.0662  1.0526
10762TIP3   OH253700   4.211   5.366  14.444  0.1760  0.0227 -0.6650
10762TIP3    H153701   4.214   5.462  14.436 -0.3461 -0.0602 -2.4053
10762TIP3    H253702   4.151   5.339  14.374 -1.0290 -1.4700  0.8755
10763TIP3   OH253703   2.378   6.100  15.506  0.5006  0.3689 -0.2531
10763TIP3    H153704   2.433   6.165  15.463 -0.0786  0.5109 -0.8091
10763TIP3    H253705   2.389   6.116  15.599  2.5355 -0.5609 -0.2859
10764TIP3   OH253706   0.018   0.624   4.815  0.8342 -0.1765 -0.2001
10764TIP3    H153707   0.075   0.585   4.882  1.9580  1.4653 -0.1330
10764TIP3    H253708   0.007   0.715   4.843 -2.4495 -0.5490  0.1546
10765TIP3   OH253709   6.215   0.776   0.454 -0.0613 -0.1494 -0.3998
10765TIP3    H153710   6.213   0.835   0.379  2.1942 -1.7086 -1.8357
10765TIP3    H253711   6.308   0.770   0.477 -0.7021  0.6968  2.9775
10766TIP3   OH253712   5.049   2.499   1.210 -0.1758 -0.8429 -0.3819
10766TIP3    H153713   5.022   2.587   1.237 -2.5229 -1.8623  0.8994
10766TIP3    H253714   4.970   2.460   1.172  1.1116 -2.0618 -1.9731
10767TIP3   OH253715   4.473   2.782  15.118 -0.2851  0.1414 -0.5682
10767TIP3    H153716   4.479   2.864  15.167  1.5180 -0.3123  0.0570
10767TIP3    H253717   4.425   2.804  15.038 -0.8768  1.5143  0.1364
10768TIP3   OH253718   0.677   0.323  16.459  0.8135 -0.0748  0.0899
10768TIP3    H153719   0.678   0.267  16.381  1.0331 -0.5355  0.4213
10768TIP3    H253720   0.740   0.392  16.440  0.7269 -0.0779 -0.2173
10769TIP3   OH253721   4.461   1.974  14.004 -0.2093 -0.6014 -0.0679
10769TIP3    H153722   4.422   1.923  14.075  1.8014 -1.8671  0.2057
10769TIP3    H253723   4.538   1.924  13.978  1.0095  1.5588 -0.8585
10770TIP3   OH253724   5.235   5.979  10.881  0.4954 -0.2159 -0.6058
10770TIP3    H153725   5.151   6.020  10.899  1.0717 -0.3120  2.9503
10770TIP3    H253726   5.298   6.051  10.880  0.7658 -0.4472 -0.2389
10771TIP3   OH253727   4.944   5.551   1.803 -0.2207 -0.0368 -0.2128
10771TIP3    H153728   4.914   5.637   1.830 -0.7098 -1.2629  3.8115
10771TIP3    H253729   5.040   5.558   1.803 -0.2473  0.4210  0.5167
10772TIP3   OH253730   2.460   5.707   2.678 -0.2143 -0.8288  0.0982
10772TIP3    H153731   2.392   5.775   2.673  1.0547  0.6546  1.5919
10772TIP3    H253732   2.422   5.638   2.732 -0.9401 -0.5445 -0.0438
10773TIP3   OH253733   4.880   2.531   1.839  0.3263 -0.1237 -0.3146
10773TIP3    H153734   4.813   2.520   1.907  0.9810 -2.6666  0.0419
10773TIP3    H253735   4.914   2.442   1.825  1.1214  0.5174 -3.0623
10774TIP3   OH253736   5.589   3.303   2.752  0.0868 -0.0878 -0.2809
10774TIP3    H153737   5.569   3.304   2.658 -0.6960  0.8574 -0.1216
10774TIP3    H253738   5.593   3.210   2.774 -0.0960 -0.3220 -1.1768
10775TIP3   OH253739   6.230   5.273  15.397  0.5249  0.0678 -0.1503
10775TIP3    H153740   6.319   5.261  15.366  0.4069 -0.3854 -0.3352
10775TIP3    H253741   6.201   5.356  15.360  0.6294 -0.1247 -0.6631
10776TIP3   OH253742   4.154   2.484  14.644  0.1199 -0.0288  0.1141
10776TIP3    H153743   4.132   2.521  14.729 -0.9372 -0.3437 -0.0040
10776TIP3    H253744   4.101   2.534  14.582  0.3767 -0.2483 -0.2867
10777TIP3   OH253745   0.168   0.917  16.187  0.3345 -0.1404  0.6623
10777TIP3    H153746   0.217   0.871  16.256  0.0094 -0.8471  0.4311
10777TIP3    H253747   0.170   0.857  16.112 -0.9785 -0.2431  0.6849
10778TIP3   OH253748   4.394   3.659   1.018 -0.2675  0.0795 -0.3737
10778TIP3    H153749   4.363   3.570   0.999 -0.4303  0.3250 -1.2942
10778TIP3    H253750   4.314   3.708   1.036 -0.1192 -0.1512  1.0620
10779TIP3   OH253751   5.992   0.313  13.618  0.7698 -0.1355 -0.3727
10779TIP3    H153752   5.936   0.256  13.564  0.5089 -0.5050  0.2787
10779TIP3    H253753   5.964   0.402  13.595  0.0219 -0.3127 -0.1677
10780TIP3   OH253754   5.886   5.814   4.476 -0.3147  0.2407  0.0613
10780TIP3    H153755   5.798   5.791   4.505 -1.1721  1.1852 -1.6427
10780TIP3    H253756   5.942   5.795   4.551 -2.1313  0.8663  1.6548
10781TIP3   OH253757   3.693   2.831   1.878  0.0924  0.1593 -0.1027
10781TIP3    H153758   3.742   2.909   1.850 -0.9786  0.9968  0.2891
10781TIP3    H253759   3.608   2.841   1.836  0.4426 -1.6230 -1.3292
10782TIP3   OH253760   0.514   4.611   4.509  0.1112 -0.0766  0.5959
10782TIP3    H153761   0.460   4.687   4.532 -2.1672 -1.2569 -0.5070
10782TIP3    H253762   0.560   4.589   4.589 -0.6631  1.3025  1.4659
10783TIP3   OH253763   4.420   3.113   2.668 -0.4823 -0.3739 -0.5068
10783TIP3    H153764   4.356   3.052   2.629 -0.7192  0.1631 -0.9737
10783TIP3    H253765   4.488   3.121   2.601 -0.4836 -0.0728 -0.4712
10784TIP3   OH253766   3.171   1.744  16.609 -0.3917 -0.1258  0.0269
10784TIP3    H153767   3.197   1.659  16.646 -0.4068  1.2970  3.7633
10784TIP3    H253768   3.252   1.780  16.573  0.3593 -0.4310  1.3314
10785TIP3   OH253769   0.252   4.277   4.098 -0.1005  0.4209  0.7210
10785TIP3    H153770   0.326   4.273   4.037 -2.2042 -3.7007 -2.0191
10785TIP3    H253771   0.239   4.371   4.114  3.2127  1.4941 -1.7568
10786TIP3   OH253772   6.133   6.128   3.295 -0.1984  0.3570 -0.5181
10786TIP3    H153773   6.177   6.108   3.377 -0.2347  0.8152 -0.3889
10786TIP3    H253774   6.047   6.085   3.303 -0.0533  0.0729 -0.4796
10787TIP3   OH253775   4.316   5.757  11.398 -0.2134 -0.0139  0.1678
10787TIP3    H153776   4.235   5.773  11.349 -0.3072  0.8448  0.5845
10787TIP3    H253777   4.298   5.791  11.485  0.7999  0.7386  0.0993
10788TIP3   OH253778   4.414   4.072  13.990 -0.3446  0.1189  0.3131
10788TIP3    H153779   4.450   4.160  13.980  0.3711 -0.2375 -0.3609
10788TIP3    H253780   4.481   4.024  14.040 -0.0625 -0.4349 -0.5851
10789TIP3   OH253781   1.862   2.196  15.020 -0.1235 -0.0361  0.5579
10789TIP3    H153782   1.948   2.157  15.033 -0.6603 -0.7971  2.0602
10789TIP3    H253783   1.872   2.287  15.049  0.2601 -0.0103  0.3506
10790TIP3   OH253784   2.139   3.209   2.523  0.9875  0.0906 -0.2940
10790TIP3    H153785   2.215   3.190   2.577 -0.1415 -1.4749  0.8406
10790TIP3    H253786   2.123   3.128   2.474 -0.4616  0.0668  0.1685
10791TIP3   OH253787   6.245   6.183  16.264 -0.0515 -0.2885  0.4999
10791TIP3    H153788   6.267   6.168  16.355 -0.4716 -1.9778  0.3473
10791TIP3    H253789   6.329   6.183  16.218  0.0287 -1.5650  0.6155
10792TIP3   OH253790   0.820   1.692   1.118 -0.3542  0.0064  0.0904
10792TIP3    H153791   0.914   1.678   1.123 -0.4184 -0.5710 -0.2678
10792TIP3    H253792   0.787   1.620   1.064 -1.0567 -0.0677  0.5951
10793TIP3   OH253793   2.722   0.568   4.259  0.1928  0.3782 -0.2217
10793TIP3    H153794   2.792   0.537   4.317 -0.4787 -1.1586 -0.1739
10793TIP3    H253795   2.749   0.539   4.172 -1.3223 -2.1941  0.0485
10794TIP3   OH253796   0.170   1.571   1.640 -0.4357  0.0240  0.0504
10794TIP3    H153797   0.135   1.615   1.563 -0.3204  2.0524  1.0775
10794TIP3    H253798   0.093   1.532   1.682 -0.9420  1.2338  0.3030
10795TIP3   OH253799   1.868   0.013  16.854  0.2279 -0.1352 -0.0719
10795TIP3    H153800   1.938   0.047  16.910  0.8550 -1.1875 -0.1940
10795TIP3    H253801   1.800  -0.015  16.915 -0.2013  1.0671  0.0419
10796TIP3   OH253802   0.150   4.939   0.032  0.1304 -0.1564 -0.5427
10796TIP3    H153803   0.226   4.962  -0.021  0.3294 -1.2218 -0.7442
10796TIP3    H253804   0.186   4.916   0.118 -0.1322  0.9333 -0.1149
10797TIP3   OH253805   2.695   3.548   5.360  0.3616  0.6522 -0.8581
10797TIP3    H153806   2.746   3.477   5.322 -0.1882  0.2058 -0.7661
10797TIP3    H253807   2.646   3.584   5.286  1.1728  1.4113 -1.0480
10798TIP3   OH253808   5.298   2.864  15.617  0.0148 -0.4264 -0.0716
10798TIP3    H153809   5.293   2.909  15.533  0.0449  1.1118  0.7058
10798TIP3    H253810   5.334   2.930  15.677 -1.5900 -0.9012  1.4976
10799TIP3   OH253811   1.769   5.934  14.161  0.8233 -0.1748  0.2373
10799TIP3    H153812   1.860   5.950  14.136  0.5160  1.4171  0.0272
10799TIP3    H253813   1.751   5.999  14.229 -0.2162 -0.3000  0.0997
10800TIP3   OH253814   4.590   1.989  15.581  0.2927 -0.4709 -0.0547
10800TIP3    H153815   4.552   2.059  15.635  0.2358  0.4425 -1.2256
10800TIP3    H253816   4.655   1.948  15.637  0.7070  0.8843  0.5014
10801TIP3   OH253817   1.207   3.707   1.239  0.8978  0.3164  0.1486
10801TIP3    H153818   1.217   3.740   1.328 -2.1306 -2.3900  1.7227
10801TIP3    H253819   1.143   3.765   1.198  0.0482 -0.1194  0.8297
10802TIP3   OH253820   1.534   0.925  12.976 -0.0225  0.3571 -0.6095
10802TIP3    H153821   1.537   0.933  13.071  0.0656  1.2631 -0.6737
10802TIP3    H253822   1.453   0.968  12.950 -0.0496  0.1107 -0.9422
10803TIP3   OH253823   4.359   5.409  13.740 -0.6637 -0.3834  0.4226
10803TIP3    H153824   4.291   5.414  13.807 -1.7119  0.2848 -0.6390
10803TIP3    H253825   4.371   5.315  13.725 -0.9077 -0.5172  1.0500
10804TIP3   OH253826   1.712   4.501  16.562  0.2512  0.1384  0.7076
10804TIP3    H153827   1.749   4.413  16.564  2.0370  0.8648  0.7191
10804TIP3    H253828   1.620   4.489  16.586  0.3120 -1.7861  0.0826
10805TIP3   OH253829   6.631   3.296   2.363  0.0112 -0.2341  0.6527
10805TIP3    H153830   6.569   3.284   2.435  0.2438  0.1125  0.9132
10805TIP3    H253831   6.712   3.324   2.406 -0.3256  1.6544  0.1370
10806TIP3   OH253832   0.594   5.592   2.133 -0.1619  0.5999 -0.4658
10806TIP3    H153833   0.582   5.679   2.172  1.0313  0.0181  1.3417
10806TIP3    H253834   0.648   5.608   2.056  0.7676  1.3923  0.3184
10807TIP3   OH253835   1.024   4.168  17.382  0.3350 -0.2306  0.1037
10807TIP3    H153836   1.084   4.102  17.346  0.4956 -1.0389  1.7738
10807TIP3    H253837   0.937   4.130  17.369  0.3850 -0.4612  0.4256
10808TIP3   OH253838   5.619   3.938   4.076 -0.2238 -0.1634 -0.1171
10808TIP3    H153839   5.689   3.876   4.098  0.4262  0.3066 -0.8106
10808TIP3    H253840   5.651   4.022   4.107 -0.1293  0.1826 -1.1038
10809TIP3   OH253841   1.221   3.754  16.692 -0.1036 -0.4686 -0.1371
10809TIP3    H153842   1.270   3.683  16.735 -0.0239 -0.6429 -0.5074
10809TIP3    H253843   1.235   3.830  16.748 -0.4933 -0.8291  0.4742
10810TIP3   OH253844   5.755   2.336  15.993  0.0284 -0.0704 -0.4976
10810TIP3    H153845   5.787   2.372  16.075  0.4052  0.0937 -0.7162
10810TIP3    H253846   5.828   2.285  15.959  0.0007  0.1642 -0.9131
10811TIP3   OH253847   2.086   1.287  11.328 -0.4965  0.1348 -0.0334
10811TIP3    H153848   2.098   1.195  11.350  1.1568  0.2383 -0.4387
10811TIP3    H253849   2.088   1.290  11.232 -0.4991  0.6078 -0.0243
10812TIP3   OH253850   1.131   2.376   3.694  0.2575  0.4880  0.2237
10812TIP3    H153851   1.186   2.316   3.746 -1.5551 -0.5893  0.9950
10812TIP3    H253852   1.194   2.432   3.649  2.0910 -2.0431 -0.6167
10813TIP3   OH253853   5.314   4.552   0.947  0.1111  0.1048  0.2406
10813TIP3    H153854   5.222   4.541   0.970  0.5622 -0.0729  2.0929
10813TIP3    H253855   5.358   4.478   0.988  0.7125 -1.8429 -3.5125
10814TIP3   OH253856   1.958   2.686   4.636  0.5058  0.1668  0.3213
10814TIP3    H153857   2.026   2.645   4.689 -0.4289  0.1222  1.5385
10814TIP3    H253858   1.877   2.646   4.667 -0.0246 -0.2366 -1.5301
10815TIP3   OH253859   1.616   1.446  13.684 -0.0313 -0.3733 -0.4210
10815TIP3    H153860   1.646   1.520  13.738 -1.2729  1.0063 -1.5425
10815TIP3    H253861   1.548   1.404  13.737  2.2154 -2.2080  1.2070
10816TIP3   OH253862   2.585   3.151   0.184  0.0706 -0.0820  0.2626
10816TIP3    H153863   2.576   3.061   0.151 -1.8003 -0.8736  2.5891
10816TIP3    H253864   2.640   3.195   0.119  0.5718 -2.7260 -1.2831
10817TIP3   OH253865   1.869   2.818  15.997  0.0418 -0.1845 -0.3515
10817TIP3    H153866   1.838   2.846  15.912  0.7765  2.3088  0.1194
10817TIP3    H253867   1.954   2.861  16.007  0.5630 -1.4585  1.1048
10818TIP3   OH253868   3.207   6.602  14.086  0.3015  0.1224 -0.3924
10818TIP3    H153869   3.213   6.695  14.107 -0.9717  0.2484 -0.5038
10818TIP3    H253870   3.244   6.594  13.999  1.8267  0.2642  0.2180
10819TIP3   OH253871   5.334   5.077   5.416 -0.1811  0.2879 -0.3857
10819TIP3    H153872   5.410   5.134   5.415 -1.0110  1.4430 -0.3937
10819TIP3    H253873   5.321   5.051   5.325  1.0546 -1.1385 -0.1885
10820TIP3   OH253874   6.467   5.368  17.178  0.2675  0.2590  0.9404
10820TIP3    H153875   6.529   5.440  17.174  0.2138  0.3017 -2.9916
10820TIP3    H253876   6.381   5.411  17.178  0.2321  0.1888  0.9509
10821TIP3   OH253877   0.417   3.587   4.977  0.0819  0.1614 -0.3474
10821TIP3    H153878   0.500   3.595   5.025  0.4517 -1.2230 -0.7090
10821TIP3    H253879   0.358   3.542   5.037 -0.9321  2.4562  0.4757
10822TIP3   OH253880   0.978   3.159  16.419  0.1957 -0.2706 -0.0822
10822TIP3    H153881   0.996   3.070  16.388  0.0055 -0.1847 -0.4419
10822TIP3    H253882   1.059   3.207  16.404  0.7871 -0.7316  1.4266
10823TIP3   OH253883   2.164   1.871  13.693 -0.2337  0.1463  0.1346
10823TIP3    H153884   2.175   1.787  13.646  1.4261 -0.3270  1.2755
10823TIP3    H253885   2.247   1.916  13.681 -0.4310  0.8067  1.1238
10824TIP3   OH253886   1.369   0.014   1.058 -0.1188  0.4078 -0.5649
10824TIP3    H153887   1.379  -0.066   1.110 -0.9029  0.4158 -0.3873
10824TIP3    H253888   1.406  -0.008   0.973  0.3884  0.1093 -0.2702
10825TIP3   OH253889   6.512   1.066   5.187  0.4431  0.5662 -0.6054
10825TIP3    H153890   6.447   1.057   5.258  1.1803 -0.7637 -0.0713
10825TIP3    H253891   6.462   1.048   5.107  0.3281 -1.5631 -0.1215
10826TIP3   OH253892   2.042   6.439  15.146 -0.5930  0.1516 -0.7830
10826TIP3    H153893   1.968   6.401  15.193  0.0444 -0.6802 -0.4376
10826TIP3    H253894   2.087   6.493  15.212  0.6801 -1.5342 -0.2075
10827TIP3   OH253895   3.102   3.462   5.942 -0.3706 -0.1374 -0.5250
10827TIP3    H153896   3.031   3.522   5.965  0.6188  0.6071  0.7076
10827TIP3    H253897   3.067   3.375   5.958 -0.4229  0.2819  1.9159
10828TIP3   OH253898   6.465   3.121   6.285  0.3792 -0.4437  0.1970
10828TIP3    H153899   6.417   3.051   6.240  0.6357 -1.0895  0.9083
10828TIP3    H253900   6.407   3.197   6.278  0.8572 -0.2058 -2.1206
10829TIP3   OH253901   4.516   3.376  16.332  0.1429  0.8091  0.2996
10829TIP3    H153902   4.535   3.357  16.424 -1.4391 -2.1767  0.1578
10829TIP3    H253903   4.420   3.374  16.326  0.2127 -0.9033 -1.6350
10830TIP3   OH253904   2.959   6.448   4.198  0.1210 -0.0510  0.2980
10830TIP3    H153905   2.961   6.456   4.102 -2.0558  1.3269  0.2977
10830TIP3    H253906   2.987   6.534   4.229 -0.4621 -0.0612  0.8680
10831TIP3   OH253907   1.284   1.901   3.736 -0.4273  0.6249 -0.1003
10831TIP3    H153908   1.284   1.946   3.652  0.2905 -1.0401 -1.0517
10831TIP3    H253909   1.218   1.832   3.726 -0.8889  0.8947  0.9860
10832TIP3   OH253910   2.335   5.400  12.461  0.4104  0.3502  0.1942
10832TIP3    H153911   2.370   5.327  12.410 -0.6727  1.3052 -2.0521
10832TIP3    H253912   2.285   5.358  12.530  1.6121 -1.0093  0.2878
10833TIP3   OH253913   3.466   4.929   1.576 -0.3817 -0.0619 -0.3334
10833TIP3    H153914   3.448   4.996   1.641 -1.1653  0.6316 -1.2218
10833TIP3    H253915   3.379   4.903   1.544 -0.0188 -0.2595 -1.1980
10834TIP3   OH253916   1.535   6.267   2.535 -0.1338  0.2508  0.2185
10834TIP3    H153917   1.586   6.323   2.477  0.3617  1.8462  2.1081
10834TIP3    H253918   1.451   6.311   2.544 -1.0098 -1.1022 -0.9228
10835TIP3   OH253919   2.326   1.485  12.866 -0.2403 -0.6846 -0.2276
10835TIP3    H153920   2.297   1.500  12.956 -0.0777 -0.2855 -0.2383
10835TIP3    H253921   2.412   1.528  12.861 -0.3460 -0.5077 -0.6326
10836TIP3   OH253922   0.778   1.244  10.750  0.1701  0.0057  0.0778
10836TIP3    H153923   0.814   1.157  10.768 -1.2976 -1.1263 -1.9720
10836TIP3    H253924   0.772   1.248  10.654  0.1420  2.3721  0.1119
10837TIP3   OH253925   3.322   5.969  16.399  0.6473 -0.1160  0.4277
10837TIP3    H153926   3.248   5.914  16.375  1.0042 -0.4645  0.1057
10837TIP3    H253927   3.284   6.055  16.415 -0.0960 -0.6970  2.0649
10838TIP3   OH253928   3.152   4.872  16.332 -0.2453 -0.4529  0.0711
10838TIP3    H153929   3.194   4.792  16.301 -0.8752  0.1240 -2.5281
10838TIP3    H253930   3.216   4.910  16.394  0.8297 -2.0438 -0.0068
10839TIP3   OH253931   4.872   3.087   0.982 -0.3235 -0.1558  0.0205
10839TIP3    H153932   4.922   3.168   0.992  0.1451 -0.6435  1.9546
10839TIP3    H253933   4.929   3.030   0.930  0.1279  0.1078  0.2219
10840TIP3   OH253934   6.154   1.832  11.024  0.0416  0.1868 -0.1519
10840TIP3    H153935   6.209   1.766  10.983  1.2037  1.3705 -0.5589
10840TIP3    H253936   6.172   1.824  11.118  1.5813  1.0939 -0.3346
10841TIP3   OH253937   4.967   2.514   6.123  0.0845 -0.4878  0.4548
10841TIP3    H153938   4.914   2.439   6.096 -2.9016  1.6020 -0.0081
10841TIP3    H253939   5.037   2.518   6.058 -0.7592 -1.7807 -0.5974
10842TIP3   OH253940   1.195   5.296  13.481  0.1810  0.0124 -0.8919
10842TIP3    H153941   1.247   5.302  13.401 -0.5216 -2.0326 -1.5626
10842TIP3    H253942   1.130   5.366  13.472  0.6161  0.3328 -1.6927
10843TIP3   OH253943   0.787   2.643   3.032 -0.8722  0.2478 -0.0777
10843TIP3    H153944   0.795   2.573   2.967  0.7009  0.9108 -0.6694
10843TIP3    H253945   0.715   2.697   3.000  0.7118  1.3058 -2.0872
10844TIP3   OH253946   1.319   4.688  14.854 -0.1348 -0.2076 -0.7530
10844TIP3    H153947   1.383   4.737  14.906 -0.2755  0.0467 -0.8162
10844TIP3    H253948   1.350   4.696  14.764  1.4091 -2.5987 -0.5177
10845TIP3   OH253949   2.019   0.836   3.066  0.0564 -0.0493 -0.4919
10845TIP3    H153950   2.076   0.908   3.091  1.2996 -0.5832 -1.6652
10845TIP3    H253951   1.991   0.857   2.977  0.1853 -0.8452 -0.7298
10846TIP3   OH253952   0.861   0.927  15.642  0.1964 -0.4966  0.0820
10846TIP3    H153953   0.941   0.894  15.682 -0.3500 -0.6206  1.1213
10846TIP3    H253954   0.806   0.849  15.631 -0.2814 -0.2478  0.6092
10847TIP3   OH253955   0.877   4.546   1.928  0.3043 -0.0862  0.3011
10847TIP3    H153956   0.911   4.605   1.996 -0.3576  1.1408 -0.3946
10847TIP3    H253957   0.819   4.486   1.975  0.3614  0.3267  0.9144
10848TIP3   OH253958   2.846   5.422   1.430  0.4417 -0.6570  0.2856
10848TIP3    H153959   2.890   5.401   1.513  0.0116 -1.6664  0.2672
10848TIP3    H253960   2.756   5.443   1.455  0.5552 -0.0253  0.1697
10849TIP3   OH253961   4.492   5.420  15.336 -0.2310 -0.2149  0.1142
10849TIP3    H153962   4.506   5.371  15.254 -1.7612 -0.1659 -0.1990
10849TIP3    H253963   4.400   5.407  15.356 -0.4022  1.5852  0.6560
10850TIP3   OH253964   0.768   5.019  14.235  0.0163 -0.0245  0.0053
10850TIP3    H153965   0.854   5.055  14.213 -0.4397 -0.2909 -2.5449
10850TIP3    H253966   0.779   4.924  14.226  0.0802 -0.3153  2.3646
10851TIP3   OH253967   6.012   5.838  15.984  0.1802 -0.0370 -0.4415
10851TIP3    H153968   6.032   5.931  15.984 -0.8264  0.1900  0.1991
10851TIP3    H253969   6.069   5.800  16.051  0.0363  0.2502 -0.1564
10852TIP3   OH253970   1.970   6.422  14.557 -0.1815 -0.0809 -0.2486
10852TIP3    H153971   1.929   6.338  14.578  0.2158  0.2614  2.1739
10852TIP3    H253972   1.913   6.461  14.491 -1.6954 -1.1976  0.3524
10853TIP3   OH253973   5.178   5.311  17.272  0.1453  0.5840  0.1095
10853TIP3    H153974   5.267   5.323  17.238  0.9615  0.1084  1.9372
10853TIP3    H253975   5.145   5.400  17.283  1.0390  0.8432  0.9067
10854TIP3   OH253976   2.471   5.014  13.306 -0.3940  0.2495  0.2289
10854TIP3    H153977   2.506   5.102  13.317  2.0313 -0.7755  1.4641
10854TIP3    H253978   2.489   4.992  13.214 -0.6538  0.8604  0.0261
10855TIP3   OH253979   2.476   6.707   0.581  0.0094 -0.3920 -0.0458
10855TIP3    H153980   2.523   6.788   0.563  0.5614 -0.5602  0.5955
10855TIP3    H253981   2.388   6.735   0.605 -0.1331 -0.0539 -0.9200
10856TIP3   OH253982   1.148   1.922   2.822 -0.3000 -0.3362  0.1752
10856TIP3    H153983   1.223   1.901   2.767  0.5728  1.4253  0.6299
10856TIP3    H253984   1.076   1.936   2.760  0.2418 -0.1050 -0.4089
10857TIP3   OH253985   4.321   2.534   5.121  0.1925  0.0990  0.0860
10857TIP3    H153986   4.279   2.485   5.191 -0.0948 -1.4393 -1.1021
10857TIP3    H253987   4.282   2.500   5.040  2.2677  0.0248 -0.9647
10858TIP3   OH253988   5.673   5.369  15.843 -0.0670  0.0532  0.1710
10858TIP3    H153989   5.684   5.429  15.917 -0.2022  0.3701 -0.0626
10858TIP3    H253990   5.646   5.425  15.770 -1.8805 -0.5010  0.3678
10859TIP3   OH253991   4.962   1.342   0.294 -0.0002 -0.4765 -0.0075
10859TIP3    H153992   4.969   1.275   0.362  0.0218 -1.8329 -1.2850
10859TIP3    H253993   5.007   1.304   0.218 -0.8400  0.5803 -1.0810
10860TIP3   OH253994   5.275   1.153   1.184  0.0989  0.0497  0.0826
10860TIP3    H153995   5.355   1.149   1.238  1.5839  3.8022 -1.4667
10860TIP3    H253996   5.301   1.118   1.099 -0.1283  0.4961 -0.1761
10861TIP3   OH253997   3.154   5.842   4.960 -0.5435  0.5403 -0.6837
10861TIP3    H153998   3.114   5.756   4.977 -1.7051  1.0402 -0.7639
10861TIP3    H253999   3.248   5.825   4.962 -0.7367 -0.6135 -0.0573
10862TIP3   OH254000   3.509   2.385   3.864 -0.2275 -0.2950 -0.0181
10862TIP3    H154001   3.518   2.447   3.936  0.6600  0.0910 -0.4450
10862TIP3    H254002   3.579   2.321   3.879 -0.9004 -0.9909  0.2099
10863TIP3   OH254003   3.393   5.023  17.161  0.3067 -0.0030  0.2651
10863TIP3    H154004   3.310   5.070  17.171  0.1701 -0.5251  1.9057
10863TIP3    H254005   3.459   5.085  17.192  0.5460  0.3905 -0.9841
10864TIP3   OH254006   5.194   6.151   5.169  0.6706 -0.1478  0.1930
10864TIP3    H154007   5.284   6.129   5.147  0.4519 -0.9267  0.0461
10864TIP3    H254008   5.187   6.135   5.263  0.9949  1.0581  0.4509
10865TIP3   OH254009   1.296   4.208   4.634  0.1533 -0.7643  0.0613
10865TIP3    H154010   1.374   4.152   4.638  0.2438 -0.7101 -0.7159
10865TIP3    H254011   1.226   4.148   4.606  0.0593 -0.6808  0.1200
10866TIP3   OH254012   5.437   4.293   6.151  0.0817  0.0591  0.0857
10866TIP3    H154013   5.390   4.263   6.228  1.7346  0.9851  1.5252
10866TIP3    H254014   5.520   4.247   6.154 -0.1560 -0.5396 -1.6568
10867TIP3   OH254015   1.154   1.487   5.273 -0.0647  0.3483  0.1573
10867TIP3    H154016   1.069   1.531   5.281  0.0040  0.4044  0.6634
10867TIP3    H254017   1.208   1.529   5.340  0.0024 -0.5000  0.6613
10868TIP3   OH254018   3.728   4.126   4.587 -0.2358  0.4776  0.3970
10868TIP3    H154019   3.648   4.179   4.580 -0.8683 -0.5560 -0.3408
10868TIP3    H254020   3.730   4.074   4.507  0.0919 -1.0138  1.3375
10869TIP3   OH254021   2.054   4.578  16.476  0.1593 -0.9433  0.4327
10869TIP3    H154022   2.032   4.518  16.404 -0.5255  0.0327 -0.2058
10869TIP3    H254023   2.138   4.547  16.509  0.3935 -1.5316 -0.6666
10870TIP3   OH254024   2.112   5.709   5.087  0.0685  0.0255  0.3650
10870TIP3    H154025   2.121   5.792   5.133 -0.7072  0.3266 -0.0045
10870TIP3    H254026   2.076   5.649   5.153 -0.7994  0.3883  0.2378
10871TIP3   OH254027   4.666   1.981   3.712  0.2364 -0.0541 -0.2473
10871TIP3    H154028   4.679   1.903   3.765 -0.4616  0.5061  0.7712
10871TIP3    H254029   4.754   2.018   3.703  0.6252 -1.1103 -1.0176
10872TIP3   OH254030   6.394   2.580  12.820  0.1378  0.6571 -0.1412
10872TIP3    H154031   6.394   2.596  12.726 -1.4146  1.0863 -0.1058
10872TIP3    H254032   6.407   2.486  12.829  0.4959  0.6440 -0.7751
10873TIP3   OH254033   5.817   5.738  13.091  0.2970  0.3243  0.3473
10873TIP3    H154034   5.902   5.732  13.048  0.0175 -1.8859 -0.0201
10873TIP3    H254035   5.771   5.657  13.066 -1.2038  0.5865  2.0076
10874TIP3   OH254036   2.842   6.707  16.626 -0.6708  0.6010  0.1311
10874TIP3    H154037   2.926   6.749  16.642  0.0068 -0.1924 -1.1516
10874TIP3    H254038   2.847   6.624  16.672 -1.5126  1.3250  1.6024
10875TIP3   OH254039   3.018   1.287   5.201  0.1195 -0.4556  0.9058
10875TIP3    H154040   3.001   1.208   5.149 -0.5376 -0.4415  1.0920
10875TIP3    H254041   2.955   1.283   5.273  0.4885 -0.0683  1.2625
10876TIP3   OH254042   1.218   6.610  17.063 -0.0104  0.3680 -0.1554
10876TIP3    H154043   1.156   6.562  17.118  1.0596  0.6524  1.3794
10876TIP3    H254044   1.163   6.669  17.011 -1.0668  0.3025  0.8362
10877TIP3   OH254045   2.468   6.101  14.538 -0.0657  0.5217 -0.6771
10877TIP3    H154046   2.428   6.174  14.586 -0.4008 -0.1529  0.1000
10877TIP3    H254047   2.447   6.024  14.591  2.7157  0.1753  0.0374
10878TIP3   OH254048   0.686   3.114   5.978  0.1964  0.2189  0.3078
10878TIP3    H154049   0.662   3.130   6.069  1.1628 -1.4506  0.9134
10878TIP3    H254050   0.752   3.045   5.983  2.2564  1.9081 -1.4901
10879TIP3   OH254051   3.506   3.372  10.993 -0.1317  0.2278 -0.7683
10879TIP3    H154052   3.449   3.295  11.002 -0.4768  0.5590 -0.0015
10879TIP3    H254053   3.594   3.339  11.008 -0.3313  0.0703  0.1060
10880TIP3   OH254054   2.847   3.696   4.373 -0.1747  0.3102  0.5550
10880TIP3    H154055   2.887   3.610   4.384  0.7462  0.5812 -0.4813
10880TIP3    H254056   2.917   3.750   4.337 -1.3307  0.9343 -0.8402
10881TIP3   OH254057   5.131   3.688   4.623 -0.6083  0.2763 -0.2521
10881TIP3    H154058   5.216   3.668   4.584 -0.0561  1.0437  0.5229
10881TIP3    H254059   5.107   3.773   4.586 -1.1222 -0.0105 -0.5893
10882TIP3   OH254060   3.375   0.767  16.971 -0.3502 -0.4123  0.0299
10882TIP3    H154061   3.374   0.756  16.876  0.6318 -1.4785  0.1197
10882TIP3    H254062   3.361   0.679  17.006 -0.1612 -0.1215  0.8638
10883TIP3   OH254063   0.985   1.752   0.472  0.7042 -0.2678  0.0461
10883TIP3    H154064   0.891   1.742   0.463  0.3392  1.3633  1.3841
10883TIP3    H254065   1.019   1.663   0.485 -0.7541 -0.7899  0.3922
10884TIP3   OH254066   4.666   3.578   5.656 -0.1964 -0.8251 -0.6465
10884TIP3    H154067   4.573   3.554   5.662 -0.2531 -0.3956  0.4387
10884TIP3    H254068   4.680   3.596   5.563 -1.4593  0.1132 -0.6753
10885TIP3   OH254069   0.082   6.662  16.599 -0.4921  0.2913  0.3201
10885TIP3    H154070   0.099   6.630  16.510 -0.1826  0.0354  0.4679
10885TIP3    H254071   0.049   6.586  16.646  0.0020  0.2546  0.6068
10886TIP3   OH254072   4.137   4.425   3.260 -0.3953 -0.0929 -0.9679
10886TIP3    H154073   4.112   4.429   3.168  0.3292 -0.2439 -1.1844
10886TIP3    H254074   4.232   4.438   3.260 -0.2505 -0.9764 -0.3294
10887TIP3   OH254075   1.181   1.933  15.154 -0.0191 -0.0438 -0.2023
10887TIP3    H154076   1.227   2.007  15.194  0.2100 -0.2364 -0.1051
10887TIP3    H254077   1.110   1.913  15.216  0.4915 -0.5068  0.2484
10888TIP3   OH254078   2.609   1.224  12.326 -0.4868  0.5242  0.2986
10888TIP3    H154079   2.528   1.189  12.288 -0.3977  1.9686 -1.3195
10888TIP3    H254080   2.619   1.310  12.286  1.2291  0.8806  1.4017
10889TIP3   OH254081   2.113   2.870  10.502 -0.0785  0.2659 -0.5992
10889TIP3    H154082   2.081   2.818  10.576  0.9553  1.1949  0.5392
10889TIP3    H254083   2.064   2.952  10.508  0.2600  0.4775 -0.7337
10890TIP3   OH254084   3.619   0.063  15.411 -0.4736  0.5515 -0.3929
10890TIP3    H154085   3.639   0.109  15.330 -1.8645  2.0234  0.0464
10890TIP3    H254086   3.568  -0.013  15.384  0.3709  0.1952 -1.0012
10891TIP3   OH254087   3.225   2.422  14.084  0.5461 -0.4603  0.8254
10891TIP3    H154088   3.241   2.341  14.133  0.5515  0.0637  1.7008
10891TIP3    H254089   3.224   2.491  14.150 -3.1398 -0.1273  0.6400
10892TIP3   OH254090   2.115   3.621   5.714 -0.1454  0.0713  0.3142
10892TIP3    H154091   2.049   3.597   5.649  0.3226  0.2650 -0.2423
10892TIP3    H254092   2.141   3.539   5.754 -0.3157 -0.0710  0.1362
10893TIP3   OH254093   6.615   0.352   4.750 -0.7532  0.2294 -0.0162
10893TIP3    H154094   6.684   0.285   4.747  1.8188  2.6549  0.1166
10893TIP3    H254095   6.579   0.353   4.661  1.2765  0.6074 -0.8989
10894TIP3   OH254096   5.923   4.958   0.866 -0.4662 -0.0323 -0.1256
10894TIP3    H154097   6.005   4.989   0.828 -0.4765  0.8312  0.5223
10894TIP3    H254098   5.877   4.914   0.794 -0.0364  0.6664 -0.8306
10895TIP3   OH254099   2.145   5.149   2.239  0.1017 -0.5438 -0.0572
10895TIP3    H154100   2.083   5.144   2.312  1.1406 -0.1819  0.8759
10895TIP3    H254101   2.090   5.146   2.161 -1.1879  0.7943  0.7419
10896TIP3   OH254102   4.139   6.308  14.046  0.6263 -0.3032  0.0126
10896TIP3    H154103   4.054   6.267  14.056  0.4095 -0.0428 -0.7049
10896TIP3    H254104   4.166   6.286  13.957  1.3042 -0.3753  0.2302
10897TIP3   OH254105   6.454   5.404  15.984 -0.2388  0.0107  0.0131
10897TIP3    H154106   6.515   5.466  16.024  0.0802  0.1150 -0.6252
10897TIP3    H254107   6.412   5.453  15.914  0.9298 -0.8380 -1.3188
10898TIP3   OH254108   1.121   0.384   2.211 -0.4764  0.7614 -0.0915
10898TIP3    H154109   1.124   0.289   2.197 -1.2841  0.9855 -2.1230
10898TIP3    H254110   1.211   0.408   2.234 -0.5210 -0.6260  1.8131
10899TIP3   OH254111   2.956   2.194  14.162 -0.3432 -0.1748  0.1261
10899TIP3    H154112   3.037   2.236  14.191  0.1785 -1.5300  0.6843
10899TIP3    H254113   2.887   2.237  14.213 -0.0448  1.2431 -0.6198
10900TIP3   OH254114   6.448   1.904  15.361 -0.2724 -0.3091 -0.7098
10900TIP3    H154115   6.499   1.839  15.313 -2.8622  0.0212 -4.3516
10900TIP3    H254116   6.362   1.865  15.371 -1.4488  1.8413 -1.6118
10901TIP3   OH254117   6.191   6.090  16.709  0.2758  0.0505 -0.3049
10901TIP3    H154118   6.176   6.163  16.768 -0.5555 -0.1680 -0.2346
10901TIP3    H254119   6.178   6.012  16.763 -0.1212 -0.1511 -0.6841
10902TIP3   OH254120   5.387   1.475   2.546 -0.3519  0.0227 -0.4160
10902TIP3    H154121   5.347   1.402   2.593 -2.2837  1.9260  1.0827
10902TIP3    H254122   5.314   1.521   2.505  0.8692  0.8720 -1.7508
10903TIP3   OH254123   2.559   0.060   2.139 -0.2760  0.2154 -0.0938
10903TIP3    H154124   2.513   0.127   2.190  1.5269  0.2664  1.6185
10903TIP3    H254125   2.652   0.072   2.162  0.2173 -2.1949 -0.5134
10904TIP3   OH254126   3.675   0.223   0.464 -0.1201  0.2473  0.6122
10904TIP3    H154127   3.601   0.169   0.434  0.4905 -0.5260  0.4613
10904TIP3    H254128   3.712   0.261   0.385 -0.7927  1.2322  0.7541
10905TIP3   OH254129   6.202   6.465   4.005  0.0897  0.3211  0.2923
10905TIP3    H154130   6.194   6.386   3.953  1.0432  0.7418 -0.5259
10905TIP3    H254131   6.228   6.435   4.092  1.0646 -0.2193 -0.1853
10906TIP3   OH254132   4.879   2.806   2.081  0.5844 -0.3435  0.3933
10906TIP3    H154133   4.908   2.891   2.115  1.0963 -0.6560  0.7423
10906TIP3    H254134   4.955   2.772   2.034  0.8734 -1.2649  1.5018
10907TIP3   OH254135   0.428   2.679  15.072 -0.0893 -0.2686  0.1556
10907TIP3    H154136   0.411   2.594  15.113  0.8144  0.0415  1.2306
10907TIP3    H254137   0.477   2.659  14.993  3.1037 -0.6339  2.0766
10908TIP3   OH254138   2.474   0.195   1.524  0.1121 -0.7553 -0.0462
10908TIP3    H154139   2.544   0.243   1.479 -0.2770  2.3276  2.2544
10908TIP3    H254140   2.398   0.203   1.466  0.7208 -0.7757 -0.8573
10909TIP3   OH254141   5.717   3.764  13.472  0.1773  0.2848 -0.1722
10909TIP3    H154142   5.751   3.825  13.538 -1.1223 -0.0484  0.8513
10909TIP3    H254143   5.627   3.791  13.458 -0.5911 -1.6705  0.6855
10910TIP3   OH254144   6.467   2.292  13.022 -0.3557  0.1422  0.3121
10910TIP3    H154145   6.561   2.286  13.036 -0.5246  0.3102  1.6293
10910TIP3    H254146   6.456   2.284  12.927  0.8447 -1.4862  0.2851
10911TIP3   OH254147   2.064   5.633  16.013  0.1420 -0.0172  0.5695
10911TIP3    H154148   1.994   5.569  16.004  1.3173 -1.6660  2.4519
10911TIP3    H254149   2.019   5.715  16.033 -1.3810 -0.2346 -1.6986
10912TIP3   OH254150   2.827   5.351  15.360  0.3470 -0.0138  0.1101
10912TIP3    H154151   2.772   5.299  15.303  1.0571 -0.9162  0.2283
10912TIP3    H254152   2.913   5.310  15.356  1.1610  1.6384 -0.4379
10913TIP3   OH254153   5.683   3.620  16.266 -0.3047 -0.2128 -0.0849
10913TIP3    H154154   5.706   3.633  16.358  0.8650 -0.2094 -0.3697
10913TIP3    H254155   5.674   3.708  16.231  0.0149 -0.2069 -0.1558
10914TIP3   OH254156   3.694   1.610  17.038 -0.3365  0.6027  0.2329
10914TIP3    H154157   3.771   1.665  17.030 -0.1316  0.6485  2.1658
10914TIP3    H254158   3.725   1.522  17.015 -0.4656  1.0867 -1.9928
10915TIP3   OH254159   4.991   0.941  15.297  0.2286  0.4337 -0.0106
10915TIP3    H154160   4.989   0.877  15.368 -0.6531  0.7761  0.2931
10915TIP3    H254161   4.935   1.013  15.328 -1.9336 -0.3106 -1.8918
10916TIP3   OH254162   1.187   2.043   1.134  0.4826 -0.4700  0.3648
10916TIP3    H154163   1.254   1.979   1.159  0.6305 -1.3188 -1.9755
10916TIP3    H254164   1.234   2.106   1.080 -0.6329 -1.3110 -1.6721
10917TIP3   OH254165   4.883   3.349   0.602  0.1609 -0.0157  0.0056
10917TIP3    H154166   4.809   3.373   0.657 -0.5051 -0.3314 -0.7322
10917TIP3    H254167   4.938   3.427   0.600 -1.1694  0.9412 -1.0769
10918TIP3   OH254168   4.054   0.242  12.254  0.0968  0.0319  0.7124
10918TIP3    H154169   4.059   0.326  12.299  0.5878  0.8816 -0.8316
10918TIP3    H254170   4.131   0.242  12.196  0.7322 -1.9858  1.4924
10919TIP3   OH254171   4.445   1.277  16.204  0.5629 -0.7996  0.5998
10919TIP3    H154172   4.397   1.339  16.258  2.5777  1.6069 -0.2010
10919TIP3    H254173   4.487   1.217  16.267  0.6171  0.2211  1.5562
10920TIP3   OH254174   1.809   2.018   3.851 -0.0718  0.1958  0.0509
10920TIP3    H154175   1.881   2.073   3.882  0.4332 -1.2611  1.5726
10920TIP3    H254176   1.751   2.009   3.927 -1.6602  0.9320 -0.9997
10921TIP3   OH254177   2.006   1.262   2.348  0.1835 -0.0728 -0.2091
10921TIP3    H154178   1.991   1.209   2.270  0.8108 -1.5134  0.5930
10921TIP3    H254179   2.078   1.217   2.393 -0.1794  0.7073  1.2000
10922TIP3   OH254180   3.675   6.409   5.667 -0.5332 -0.3173  0.3210
10922TIP3    H154181   3.690   6.347   5.596 -1.2421  0.5427 -0.6078
10922TIP3    H254182   3.633   6.357   5.736  0.7166 -1.2890  0.3672
10923TIP3   OH254183   5.812   1.534   2.398 -0.4330  0.0934  0.0639
10923TIP3    H154184   5.809   1.610   2.456  0.0063 -0.0289  0.2535
10923TIP3    H254185   5.773   1.463   2.449 -0.5854  0.1286 -0.0063
10924TIP3   OH254186   4.161   5.823  15.651  0.6188  0.1779  0.1852
10924TIP3    H154187   4.226   5.879  15.608 -1.1937  0.8060 -1.9045
10924TIP3    H254188   4.208   5.786  15.726  3.6010  0.0132 -1.5986
10925TIP3   OH254189   1.930   2.719   2.211 -0.1846  0.1081  0.0450
10925TIP3    H154190   1.836   2.730   2.199 -0.3688 -1.2527  0.0852
10925TIP3    H254191   1.966   2.806   2.195 -1.5632  0.9791  1.3857
10926TIP3   OH254192   4.287   2.570  13.050  1.0931 -0.2669  0.2048
10926TIP3    H154193   4.368   2.586  13.000  2.0885 -1.5217  1.3310
10926TIP3    H254194   4.316   2.566  13.141 -0.2217 -0.9111  0.6174
10927TIP3   OH254195   5.900   5.896   6.287 -0.0045  0.0943  0.3424
10927TIP3    H154196   5.925   5.845   6.364 -1.4680 -0.6356  0.3572
10927TIP3    H254197   5.984   5.924   6.250  0.7198  1.4594  2.8038
10928TIP3   OH254198   1.803   4.566  15.432 -0.6790  0.0196  0.0135
10928TIP3    H154199   1.832   4.639  15.487  0.4901  0.6517 -1.3607
10928TIP3    H254200   1.851   4.490  15.466 -1.4454 -0.0183  1.0706
10929TIP3   OH254201   3.988   1.955   1.799  0.2043 -0.3391  0.2088
10929TIP3    H154202   4.036   1.881   1.763  0.8871  0.7128 -1.1240
10929TIP3    H254203   4.040   2.032   1.776 -0.2913  0.5463  1.8738
10930TIP3   OH254204   1.217   0.151  13.062 -0.2860  0.2008 -0.5994
10930TIP3    H154205   1.307   0.179  13.075  0.2964 -2.3001  1.6994
10930TIP3    H254206   1.171   0.230  13.035  2.2823  1.8825 -0.3848
10931TIP3   OH254207   0.070   5.872   3.997 -0.1051  0.4326 -0.9027
10931TIP3    H154208   0.112   5.799   4.042 -3.6746 -0.7051  0.9600
10931TIP3    H254209   0.045   5.836   3.912  0.4172  0.3456 -1.0254
10932TIP3   OH254210   5.824   3.222  16.300  0.4615 -0.3178 -0.2426
10932TIP3    H154211   5.815   3.138  16.254 -0.3542 -1.3604  1.6962
10932TIP3    H254212   5.737   3.238  16.335  0.5500  1.5054 -0.7691
10933TIP3   OH254213   5.945   0.392  12.720  0.4902 -0.4998 -0.9089
10933TIP3    H154214   6.013   0.346  12.769  0.5858 -0.3497 -0.9011
10933TIP3    H254215   5.863   0.355  12.753  0.4553  0.9519  0.7956
10934TIP3   OH254216   2.666   3.378   1.617 -0.1746 -0.1322 -0.1868
10934TIP3    H154217   2.738   3.441   1.604  0.0100 -0.2390  0.2728
10934TIP3    H254218   2.615   3.382   1.536 -0.3980  0.9080 -0.0039
10935TIP3   OH254219   5.795   5.913   6.579  0.3096 -0.3856 -0.5248
10935TIP3    H154220   5.703   5.885   6.580  0.0615  0.4336 -0.1967
10935TIP3    H254221   5.839   5.846   6.526 -0.6504 -0.2596 -1.5347
10936TIP3   OH254222   6.641   5.793  10.669 -0.2391 -0.5900  0.2744
10936TIP3    H154223   6.630   5.862  10.603  1.0720 -0.0516  0.5687
10936TIP3    H254224   6.735   5.774  10.667 -0.4361 -1.6998  0.8776
10937TIP3   OH254225   3.069   3.924   6.055  0.4595  0.1985 -0.1623
10937TIP3    H154226   2.990   3.930   6.108  1.1906 -0.6076  1.0570
10937TIP3    H254227   3.130   3.987   6.094  0.7987  0.0265 -0.4068
10938TIP3   OH254228   4.172   0.715  12.357  0.0869  0.3639  0.0180
10938TIP3    H154229   4.239   0.710  12.289 -0.0629 -0.5699 -0.0718
10938TIP3    H254230   4.222   0.721  12.439  0.2723  2.2786 -0.1856
10939TIP3   OH254231   4.166   2.792   5.851  0.0821  0.0300 -0.1627
10939TIP3    H154232   4.125   2.711   5.881  2.0000 -1.1864 -0.6536
10939TIP3    H254233   4.174   2.845   5.929  0.1523 -0.8708  0.4596
10940TIP3   OH254234   1.538   0.865  14.822 -0.3396 -0.0753  0.1689
10940TIP3    H154235   1.628   0.892  14.845 -0.9359  1.1627  1.1970
10940TIP3    H254236   1.505   0.936  14.768 -0.7996 -0.3881  0.0379
10941TIP3   OH254237   2.180   2.177  14.128  0.3565  0.1317 -0.3891
10941TIP3    H154238   2.122   2.146  14.059  1.3497 -1.0600 -0.7020
10941TIP3    H254239   2.137   2.149  14.209  0.1785 -0.1944 -0.5948
10942TIP3   OH254240   2.903   4.673   2.615  0.3212  0.0418  0.2301
10942TIP3    H154241   2.821   4.665   2.665 -0.0280 -0.0693 -0.3551
10942TIP3    H254242   2.875   4.672   2.524  0.9104  0.8061  0.0347
10943TIP3   OH254243   4.783   5.438  14.820  0.0286 -0.0916 -0.3173
10943TIP3    H154244   4.717   5.507  14.824  0.7545  0.6771 -1.4216
10943TIP3    H254245   4.745   5.367  14.873 -1.2379  0.6922 -0.1207
10944TIP3   OH254246   3.288   4.441  11.352 -0.0340 -0.2959 -0.0548
10944TIP3    H154247   3.372   4.486  11.360 -1.3407  2.0475  1.8260
10944TIP3    H254248   3.261   4.424  11.443 -2.4871  0.8724 -0.4805
10945TIP3   OH254249   4.927   1.710   4.781  0.3079 -0.1913 -0.1814
10945TIP3    H154250   4.932   1.751   4.694  1.1155  0.2688  0.0727
10945TIP3    H254251   5.010   1.733   4.823 -0.5127  0.5005  1.1181
10946TIP3   OH254252   1.205   2.212  15.412 -0.0507 -0.6416 -0.3645
10946TIP3    H154253   1.142   2.231  15.342  0.0071  0.5656 -0.1028
10946TIP3    H254254   1.164   2.141  15.462 -1.4715  0.4921  0.1300
10947TIP3   OH254255   2.263   4.180   1.583 -0.0979  0.8536  0.2524
10947TIP3    H154256   2.277   4.241   1.511  1.1600  0.1488 -0.1372
10947TIP3    H254257   2.301   4.223   1.659 -1.4335  1.6018  0.5441
10948TIP3   OH254258   5.573   1.629   0.631 -0.6521 -0.5332  0.1364
10948TIP3    H154259   5.501   1.682   0.596 -0.2148 -0.4887 -0.7001
10948TIP3    H254260   5.560   1.543   0.592 -1.0888 -0.9302  1.1286
10949TIP3   OH254261   5.759   3.161   0.697 -0.3857 -0.4494  0.2385
10949TIP3    H154262   5.734   3.252   0.713 -1.6344 -0.8686  0.7600
10949TIP3    H254263   5.804   3.134   0.776  0.1064 -0.2595  0.0307
10950TIP3   OH254264   0.471   5.618   4.179 -0.0306 -0.4474  0.3447
10950TIP3    H154265   0.525   5.621   4.100  0.7800 -0.8161  0.8789
10950TIP3    H254266   0.387   5.657   4.152  0.8679  1.2294 -0.2099
10951TIP3   OH254267   4.163   5.138  11.575  0.0102 -0.1787 -0.7148
10951TIP3    H154268   4.190   5.210  11.518  1.0711  0.0355  0.0303
10951TIP3    H254269   4.192   5.059  11.529 -0.6379 -0.1041 -1.2595
10952TIP3   OH254270   4.684   1.486  12.772 -0.2380 -0.3260 -0.4315
10952TIP3    H154271   4.679   1.563  12.829  1.9666  0.0939 -0.7390
10952TIP3    H254272   4.614   1.500  12.708 -1.2482  0.3420  0.7519
10953TIP3   OH254273   6.284   5.777   2.692  0.0835  0.5577  0.3344
10953TIP3    H154274   6.224   5.812   2.757  0.4470  0.6985  0.6003
10953TIP3    H254275   6.251   5.809   2.608 -0.3148  0.4804  0.4596
10954TIP3   OH254276   4.690   1.573   4.886 -0.0315  0.0734 -0.2327
10954TIP3    H154277   4.748   1.642   4.855 -0.6009  1.7663  2.1951
10954TIP3    H254278   4.737   1.535   4.961 -2.0846  1.7898  2.0820
10955TIP3   OH254279   0.106   1.160  12.599 -0.2137  0.6370  0.3821
10955TIP3    H154280   0.200   1.146  12.598 -0.5966 -2.6511 -0.0566
10955TIP3    H254281   0.078   1.138  12.688 -0.6925  0.4794  0.1995
10956TIP3   OH254282   2.063   2.788  12.760  0.1764 -0.2339 -0.6091
10956TIP3    H154283   2.023   2.789  12.673 -0.8498  2.8735 -0.2108
10956TIP3    H254284   2.076   2.880  12.782  4.6284 -0.9096  0.7115
10957TIP3   OH254285   1.474   6.225   4.151 -0.0177  0.2620  0.1652
10957TIP3    H154286   1.398   6.169   4.135  0.2576 -0.0181 -0.1807
10957TIP3    H254287   1.544   6.186   4.099  0.4139  0.4063  0.6290
10958TIP3   OH254288   6.495   5.191  11.920 -0.6236  0.1375  0.1135
10958TIP3    H154289   6.483   5.180  11.825 -0.6077 -1.2334  0.2507
10958TIP3    H254290   6.552   5.268  11.928 -1.1073  0.6375 -0.9539
10959TIP3   OH254291   4.220   2.904   2.301 -0.3469  0.0229  0.0843
10959TIP3    H154292   4.129   2.883   2.321  0.0452 -0.9571  0.9531
10959TIP3    H254293   4.217   2.991   2.262 -1.6610 -0.0432  0.0007
10960TIP3   OH254294   6.017   4.418   3.246 -0.1720  0.2892 -0.3517
10960TIP3    H154295   5.996   4.423   3.339 -1.0590 -0.4869 -0.4843
10960TIP3    H254296   6.031   4.325   3.230 -0.2946  0.3849 -1.0418
10961TIP3   OH254297   2.037   1.149  17.293  0.3672  0.1103 -0.2189
10961TIP3    H154298   2.042   1.131  17.199  1.1134 -0.7421 -0.0313
10961TIP3    H254299   2.065   1.240  17.301 -2.3674  1.0987 -1.0803
10962TIP3   OH254300   2.562   0.318  17.210  0.0874 -0.0895  0.1510
10962TIP3    H154301   2.595   0.407  17.192  0.2195 -0.5566 -2.3580
10962TIP3    H254302   2.640   0.269  17.236  0.0359  0.4529  1.4238
10963TIP3   OH254303   3.232   6.247  15.265 -0.2174  0.4772  0.3092
10963TIP3    H154304   3.197   6.325  15.223 -2.5455 -0.2363  0.7851
10963TIP3    H254305   3.257   6.190  15.193 -2.0903  0.1617 -0.1257
10964TIP3   OH254306   5.236   1.880  15.521 -0.5287 -0.0878  0.1257
10964TIP3    H154307   5.143   1.871  15.502 -0.6099  1.4134 -0.3375
10964TIP3    H254308   5.256   1.971  15.500  1.4923 -0.8599 -1.7087
10965TIP3   OH254309   4.920   0.383  12.059  0.6496  0.4573 -0.1570
10965TIP3    H154310   4.981   0.356  11.990 -0.1102  0.3288 -0.7891
10965TIP3    H254311   4.938   0.323  12.131 -1.1590 -2.0139 -1.6010
10966TIP3   OH254312   4.456   2.766  11.236  0.5049  0.0945 -0.5569
10966TIP3    H154313   4.460   2.855  11.200 -0.5566  0.0532 -0.7915
10966TIP3    H254314   4.458   2.709  11.159 -3.4332  0.0306 -0.8157
10967TIP3   OH254315   5.023   3.561   5.432  0.3848 -0.4497 -0.3840
10967TIP3    H154316   5.026   3.486   5.372 -0.8804 -0.8611  0.0369
10967TIP3    H254317   5.113   3.591   5.436  0.6168 -0.8132 -1.9804
10968TIP3   OH254318   3.649   1.811   2.688 -0.0825 -0.1121 -0.4885
10968TIP3    H154319   3.742   1.830   2.675 -0.1226  0.0369 -0.5637
10968TIP3    H254320   3.629   1.843   2.776 -0.0047 -0.3683 -0.3770
10969TIP3   OH254321   2.203   1.456  13.835 -0.4672  0.2401  0.0832
10969TIP3    H154322   2.228   1.514  13.908 -0.2246 -1.4669  1.4386
10969TIP3    H254323   2.277   1.395  13.828 -1.6299 -1.2274  0.1767
10970TIP3   OH254324   2.926   3.260   6.237  0.5463 -0.1053 -0.2873
10970TIP3    H154325   2.877   3.234   6.315  0.5869  0.5432 -0.0418
10970TIP3    H254326   2.964   3.178   6.205 -1.2257 -0.7290 -0.8690
10971TIP3   OH254327   1.046   1.260  17.277 -0.5235 -0.1741  0.2283
10971TIP3    H154328   0.959   1.234  17.245 -0.3854  0.6341 -0.8631
10971TIP3    H254329   1.047   1.355  17.268  0.9200 -0.2681 -0.9700
10972TIP3   OH254330   3.385   2.451  11.945 -0.4190 -0.2792  0.1294
10972TIP3    H154331   3.460   2.397  11.967 -0.0961  0.6082  1.3679
10972TIP3    H254332   3.339   2.462  12.028  0.2440  2.3738  0.2410
10973TIP3   OH254333   2.126   0.441   0.703 -0.1319 -0.0967  0.1404
10973TIP3    H154334   2.185   0.459   0.776  0.0063 -1.9370  0.5200
10973TIP3    H254335   2.178   0.393   0.640 -0.2737  1.4131 -1.1973
10974TIP3   OH254336   2.690   3.552  13.438 -0.2363 -0.5563  0.1688
10974TIP3    H154337   2.607   3.507  13.457 -1.3774  1.7285  0.8601
10974TIP3    H254338   2.666   3.643  13.425  2.1612  0.1235  0.0335
10975TIP3   OH254339   3.091   5.609   3.553 -0.1855  0.8545  0.2168
10975TIP3    H154340   3.028   5.580   3.487 -0.6426  0.3646  0.8577
10975TIP3    H254341   3.167   5.553   3.538 -0.5234  0.3101  0.5090
10976TIP3   OH254342   5.732   5.209  12.714 -0.2083 -0.4106  0.4753
10976TIP3    H154343   5.765   5.151  12.782 -0.2208  0.4148  1.2115
10976TIP3    H254344   5.801   5.274  12.703 -0.1496 -0.6136 -0.4092
10977TIP3   OH254345   4.577   5.877  12.645 -0.6142 -0.2153  0.2045
10977TIP3    H154346   4.635   5.813  12.604 -1.0310 -0.7039  0.3589
10977TIP3    H254347   4.511   5.896  12.577 -1.6665 -1.4915  0.8176
10978TIP3   OH254348   0.556   3.118  12.638  0.2265  0.0348  0.2012
10978TIP3    H154349   0.486   3.066  12.598 -1.3716  0.1662  2.5820
10978TIP3    H254350   0.632   3.061  12.637 -0.5903 -1.0935 -0.2329
10979TIP3   OH254351   0.249   4.895  13.369  0.1118 -0.0456 -0.0915
10979TIP3    H154352   0.230   4.813  13.414 -0.6435  0.5892  0.7694
10979TIP3    H254353   0.239   4.962  13.436  1.0889  0.7312 -0.6913
10980TIP3   OH254354   5.158   4.548  12.713 -0.8481 -0.2941 -0.7053
10980TIP3    H154355   5.239   4.598  12.703 -0.5119 -0.9187 -1.1594
10980TIP3    H254356   5.169   4.472  12.656 -1.6408 -0.5296 -0.5600
10981TIP3   OH254357   5.187   2.237   0.798  0.4907 -0.3477  0.2927
10981TIP3    H154358   5.174   2.213   0.706  0.9889  0.0520  0.1147
10981TIP3    H254359   5.135   2.316   0.810  0.8460 -0.0958  0.2067
10982TIP3   OH254360   0.145   3.353   5.138 -0.0382  0.0426  0.2284
10982TIP3    H154361   0.070   3.325   5.086 -0.0366  2.2382 -1.0667
10982TIP3    H254362   0.205   3.278   5.135 -1.0711 -0.7881 -0.8700
10983TIP3   OH254363   1.493   4.501   1.742  0.2032 -0.4681 -0.1980
10983TIP3    H154364   1.576   4.526   1.783 -1.2435  3.0414  1.0216
10983TIP3    H254365   1.494   4.545   1.657 -0.3029 -0.5345 -0.2426
10984TIP3   OH254366   6.382   2.173   5.694 -0.3023 -0.4575 -0.3137
10984TIP3    H154367   6.294   2.159   5.658 -0.8186  0.8485  0.3857
10984TIP3    H254368   6.369   2.232   5.767  1.1855 -0.1757 -0.2475
10985TIP3   OH254369   1.156   5.989   0.800  0.5610 -0.2214 -0.0042
10985TIP3    H154370   1.105   5.909   0.787  2.6723 -1.5656 -0.5754
10985TIP3    H254371   1.217   5.990   0.726  1.8645  0.8595  1.0374
10986TIP3   OH254372   6.161   4.539   3.050 -0.3267 -0.5470 -0.0514
10986TIP3    H154373   6.083   4.539   2.993 -0.7780 -0.2811  0.5598
10986TIP3    H254374   6.132   4.497   3.131  0.1346 -0.3400  0.2258
10987TIP3   OH254375   5.745   0.267   3.052 -0.0778  0.5902  0.1489
10987TIP3    H154376   5.825   0.304   3.088  0.4410 -0.7925  0.5008
10987TIP3    H254377   5.705   0.338   3.001  1.1597  1.4104  0.3001
10988TIP3   OH254378   2.168   0.564   5.464 -0.3782 -0.1519 -0.5548
10988TIP3    H154379   2.081   0.599   5.443 -2.3057 -2.3718  2.6785
10988TIP3    H254380   2.175   0.484   5.411 -0.0598  0.2590 -1.1473
10989TIP3   OH254381   6.655   4.587   5.194 -0.2042 -0.1344  0.2195
10989TIP3    H154382   6.577   4.545   5.231 -1.1569  0.9000 -0.5615
10989TIP3    H254383   6.711   4.514   5.167 -1.6688 -0.9273 -0.8015
10990TIP3   OH254384   1.676   6.206  11.792  0.0904  0.1568 -0.4359
10990TIP3    H154385   1.664   6.113  11.811  0.1508 -0.1007 -1.5875
10990TIP3    H254386   1.662   6.213  11.698 -0.0267  1.3402 -0.3428
10991TIP3   OH254387   0.949   3.544   4.874 -0.3160  0.0216 -0.8039
10991TIP3    H154388   0.898   3.473   4.836  0.4275 -1.1032  0.2455
10991TIP3    H254389   1.035   3.506   4.893 -0.7809  0.3100  2.4602
10992TIP3   OH254390   3.659   2.607   6.139  0.4237 -0.8221  0.1768
10992TIP3    H154391   3.579   2.646   6.174 -0.7959 -2.8400 -0.1883
10992TIP3    H254392   3.718   2.600   6.215  0.4556  1.0616  0.3642
10993TIP3   OH254393   0.327   2.029   1.468 -0.3828  0.5689 -0.4957
10993TIP3    H154394   0.405   2.073   1.435 -0.6544  1.5849  0.1782
10993TIP3    H254395   0.258   2.052   1.406 -0.2432 -0.0053 -0.8722
10994TIP3   OH254396   6.676   6.234   5.373 -0.0386  0.3964 -0.5463
10994TIP3    H154397   6.694   6.311   5.427 -1.2465  0.2520  0.1066
10994TIP3    H254398   6.601   6.259   5.319 -0.9741 -0.5762  0.2593
10995TIP3   OH254399   3.964   1.447   4.530  0.5425  0.1662 -0.2011
10995TIP3    H154400   4.034   1.443   4.595  0.1992 -1.2734  0.1241
10995TIP3    H254401   3.992   1.388   4.461 -0.4870 -0.6990  0.0988
10996TIP3   OH254402   3.904   6.608  14.470  0.0852 -0.0005 -0.0554
10996TIP3    H154403   3.898   6.663  14.392  1.5118 -0.4151 -0.4877
10996TIP3    H254404   3.991   6.626  14.505 -0.5973  0.3192  1.5723
10997TIP3   OH254405   5.388   4.961  11.851  0.4037 -0.3268 -0.1987
10997TIP3    H154406   5.442   5.033  11.817  1.5573 -0.1791  1.8218
10997TIP3    H254407   5.322   5.005  11.905 -0.3095 -0.6671 -0.7758
10998TIP3   OH254408   5.385   4.346  15.118 -0.0723 -0.7080  0.0175
10998TIP3    H154409   5.317   4.407  15.087 -1.9407 -1.9865  1.3873
10998TIP3    H254410   5.390   4.280  15.049  0.6455 -0.0139 -0.6172
10999TIP3   OH254411   3.964   5.678   1.454  0.3076  0.4779  0.0473
10999TIP3    H154412   3.870   5.672   1.469  0.4439 -0.2485  0.6489
10999TIP3    H254413   3.991   5.758   1.497  0.2865 -0.3390  1.6413
11000TIP3   OH254414   1.897   5.953   0.801  0.4959 -0.4091  0.7753
11000TIP3    H154415   1.856   5.870   0.774 -0.0410 -0.4091  1.5481
11000TIP3    H254416   1.898   5.948   0.897  0.0261  0.6848  0.8457
11001TIP3   OH254417   0.905   5.935  13.271  0.2605 -0.1510  0.4070
11001TIP3    H154418   0.830   5.876  13.262  0.7973 -0.5334 -3.0104
11001TIP3    H254419   0.978   5.885  13.233  1.7503  1.0910  1.5200
11002TIP3   OH254420   0.733   5.286  16.633  0.5466  0.2076 -0.3599
11002TIP3    H154421   0.640   5.301  16.618  0.9119  1.9003 -1.1792
11002TIP3    H254422   0.768   5.261  16.548  1.0321  0.6959 -0.3107
11003TIP3   OH254423   5.703   4.531  13.758  0.3926 -0.3462 -0.2309
11003TIP3    H154424   5.710   4.507  13.850  2.2470  1.4175  0.1708
11003TIP3    H254425   5.647   4.464  13.720 -1.2581 -0.6023  2.3516
11004TIP3   OH254426   1.110   5.953   1.416 -0.0950  0.3907 -0.3081
11004TIP3    H154427   1.140   6.036   1.453  0.3362  1.4663 -2.8524
11004TIP3    H254428   1.016   5.966   1.400 -0.7416 -0.8041  2.1337
11005TIP3   OH254429   4.026   3.652   5.414  0.1903  0.9349 -0.3354
11005TIP3    H154430   4.036   3.592   5.340  2.2348 -0.3851  0.9132
11005TIP3    H254431   4.097   3.629   5.474 -1.6483  1.5902  2.2894
11006TIP3   OH254432   6.378   5.458   2.210  0.3036  0.3288 -0.0011
11006TIP3    H154433   6.410   5.541   2.246  1.1626 -0.0790  0.1982
11006TIP3    H254434   6.422   5.391   2.261 -2.0566 -0.3033  1.3430
11007TIP3   OH254435   6.378   3.638  16.445 -0.3658 -0.2750  0.4051
11007TIP3    H154436   6.345   3.725  16.468  1.6293  0.1729  1.8717
11007TIP3    H254437   6.473   3.649  16.443 -0.1466 -2.0551 -1.1121
11008TIP3   OH254438   2.499   4.440  16.880  0.4178 -0.3511 -0.1761
11008TIP3    H154439   2.531   4.530  16.886 -0.0487 -0.2088  0.2442
11008TIP3    H254440   2.547   4.393  16.949  0.8745 -0.4938 -0.5857
11009TIP3   OH254441   3.286   1.683  17.236  0.0091  0.4310  0.4142
11009TIP3    H154442   3.192   1.666  17.234  0.4563 -2.6544  0.0035
11009TIP3    H254443   3.309   1.681  17.329  0.1317 -2.7073  0.4128
11010TIP3   OH254444   2.440   0.886  11.499  0.0511 -0.1047 -0.2637
11010TIP3    H154445   2.527   0.924  11.508  0.3393 -0.9931  0.9457
11010TIP3    H254446   2.455   0.797  11.469 -0.4275 -0.2882  0.0215
11011TIP3   OH254447   0.794   6.564  15.226 -0.2099  0.3485 -0.4851
11011TIP3    H154448   0.842   6.623  15.285  0.8627 -0.7625 -0.2064
11011TIP3    H254449   0.854   6.551  15.152 -1.1333  0.9263 -1.3607
11012TIP3   OH254450   1.156   5.976  15.963 -0.2643  0.1137  0.2370
11012TIP3    H154451   1.078   5.939  16.005 -0.1522 -2.3633 -1.4897
11012TIP3    H254452   1.227   5.919  15.989  0.4599  0.7197 -0.3679
11013TIP3   OH254453   6.463   2.490   6.777 -0.0218  0.5350  0.3137
11013TIP3    H154454   6.373   2.461   6.759 -0.5814  1.5047  1.4287
11013TIP3    H254455   6.510   2.409   6.799 -1.6020  0.3278  3.5837
11014TIP3   OH254456   4.445   4.645  11.826 -0.0313 -0.3377  0.9193
11014TIP3    H154457   4.382   4.590  11.873 -1.0911 -0.7610 -0.8890
11014TIP3    H254458   4.392   4.690  11.759  1.1555  1.3489  1.0462
11015TIP3   OH254459   6.568   0.721  15.515 -0.4788  0.3594 -0.2492
11015TIP3    H154460   6.492   0.675  15.479  0.1997 -0.0382 -1.2060
11015TIP3    H254461   6.530   0.797  15.559 -1.4387  0.1764 -0.7140
11016TIP3   OH254462   0.806   3.327   6.428 -0.3157  0.1723 -0.1253
11016TIP3    H154463   0.747   3.384   6.379 -0.7157  0.2533  0.4378
11016TIP3    H254464   0.749   3.285   6.493  0.1630 -0.1150  0.1094
11017TIP3   OH254465   0.026   5.726   2.474  0.0207 -0.1496  0.0129
11017TIP3    H154466  -0.055   5.699   2.517 -0.2789  1.8902  0.8443
11017TIP3    H254467   0.093   5.718   2.542  0.5707 -1.7667 -0.6535
11018TIP3   OH254468   5.410   2.724   2.277 -0.3290 -0.7320 -0.2575
11018TIP3    H154469   5.383   2.633   2.289 -0.8280 -0.5450  0.0629
11018TIP3    H254470   5.425   2.756   2.366  0.1074 -0.5728 -0.3835
11019TIP3   OH254471   2.223   2.277  15.689 -0.5700 -0.5495 -0.0578
11019TIP3    H154472   2.316   2.269  15.712 -0.4055  0.2333 -0.4437
11019TIP3    H254473   2.181   2.301  15.771 -0.3512 -0.3349 -0.0066
11020TIP3   OH254474   0.650   6.019   1.798  0.3449  0.3541 -0.0633
11020TIP3    H154475   0.742   5.996   1.789  0.4661  0.5013  0.7648
11020TIP3    H254476   0.619   5.966   1.871 -0.2045  0.3863 -0.2695
11021TIP3   OH254477   4.046   4.937   3.297  0.8730 -0.4404  0.0807
11021TIP3    H154478   4.114   4.999   3.270  0.9713 -0.2453  0.7454
11021TIP3    H254479   4.092   4.854   3.305  0.9968 -0.3472  0.3498
11022TIP3   OH254480   5.232   3.411  15.154 -0.1998  0.3253  0.5675
11022TIP3    H154481   5.265   3.414  15.244 -0.5053 -1.4902  0.7696
11022TIP3    H254482   5.139   3.433  15.162 -0.5273 -1.0815  0.8954
11023TIP3   OH254483   6.380   6.744   4.278  0.3519 -0.5309  0.7778
11023TIP3    H154484   6.397   6.666   4.225  0.0552 -1.4926  2.0667
11023TIP3    H254485   6.465   6.768   4.314  0.1874 -1.1903  1.6226
11024TIP3   OH254486   1.322   5.084  15.914 -0.1135 -0.1301 -0.8899
11024TIP3    H154487   1.278   5.003  15.889  0.9376 -0.8162 -0.5899
11024TIP3    H254488   1.396   5.091  15.853  0.0990  0.3373 -0.5867
11025TIP3   OH254489   4.544   2.847   1.691 -0.0951 -0.4081  0.2478
11025TIP3    H154490   4.563   2.907   1.763  1.4850  0.4590 -0.8165
11025TIP3    H254491   4.624   2.794   1.684 -0.4846 -0.9106 -0.4553
11026TIP3   OH254492   4.112   4.052  14.652  0.2936  0.4985  0.1788
11026TIP3    H154493   4.164   4.062  14.732 -1.5907  1.1485  1.3935
11026TIP3    H254494   4.050   3.982  14.671  0.7821 -0.3795 -1.2942
11027TIP3   OH254495   4.620   3.448  15.836 -0.2609 -0.2549  0.6837
11027TIP3    H154496   4.690   3.504  15.871 -0.6210  0.4184  0.3518
11027TIP3    H254497   4.544   3.506  15.830  0.0699  0.0218 -2.2644
11028TIP3   OH254498   1.114   1.682  16.063  0.3688 -0.0082  0.6583
11028TIP3    H154499   1.136   1.589  16.050 -0.1150 -0.2306  1.3501
11028TIP3    H254500   1.041   1.680  16.125 -0.2498  0.8024 -0.0418
11029TIP3   OH254501   3.547   6.275   1.567 -0.5279  0.3235 -0.2120
11029TIP3    H154502   3.616   6.297   1.629  0.0843 -1.5319 -0.1771
11029TIP3    H254503   3.534   6.181   1.577 -1.1460  0.1477 -2.1719
11030TIP3   OH254504   6.478   5.575  11.072  0.3565 -0.0539 -0.2437
11030TIP3    H154505   6.442   5.489  11.051  0.7716 -0.0647 -0.9434
11030TIP3    H254506   6.548   5.557  11.135 -0.5831 -0.0673  0.8287
11031TIP3   OH254507   5.292   4.371   3.571  0.2238  0.0635  0.4439
11031TIP3    H154508   5.200   4.349   3.585 -0.3009  0.7254 -1.6257
11031TIP3    H254509   5.332   4.290   3.539  0.2815 -0.1149  0.9576
11032TIP3   OH254510   2.204   2.177  15.126 -0.0212  0.8318  0.0426
11032TIP3    H154511   2.141   2.120  15.169 -1.0248  1.5380 -0.4521
11032TIP3    H254512   2.290   2.143  15.152 -0.5699 -1.3975 -0.8564
11033TIP3   OH254513   2.034   5.236   4.380 -0.2994 -0.3124  0.0563
11033TIP3    H154514   2.078   5.188   4.450 -0.4360  0.8676  0.9875
11033TIP3    H254515   2.092   5.227   4.305  0.3325 -0.8021  0.5887
11034TIP3   OH254516   3.843   1.969  14.782  0.1995  0.3507  0.7612
11034TIP3    H154517   3.762   2.015  14.805  1.5848  2.7425  1.2314
11034TIP3    H254518   3.872   1.929  14.863 -0.7733 -1.0778  0.4523
11035TIP3   OH254519   1.355   2.252   3.796 -0.1910  0.2914  0.2394
11035TIP3    H154520   1.440   2.249   3.752 -1.8946 -1.0902 -3.3192
11035TIP3    H254521   1.360   2.181   3.861  1.5532  0.6985  0.6178
11036TIP3   OH254522   2.308   1.478  12.230  0.0778  0.4421 -0.2197
11036TIP3    H154523   2.386   1.533  12.219  1.0375 -1.0241 -1.1180
11036TIP3    H254524   2.285   1.451  12.141 -0.3915 -0.5518  0.1889
11037TIP3   OH254525   1.245   2.584  15.468  0.0176  0.0584  0.7782
11037TIP3    H154526   1.256   2.493  15.441 -0.1007 -0.3608  2.0491
11037TIP3    H254527   1.152   2.601  15.456  0.3645  0.6633 -1.3152
11038TIP3   OH254528   1.601   1.618  15.536  0.2396 -0.4711  0.3443
11038TIP3    H154529   1.667   1.659  15.591  1.0235 -1.8120  0.4711
11038TIP3    H254530   1.630   1.636  15.447  0.5938 -0.7412  0.3988
11039TIP3   OH254531   4.966   3.710  15.658 -0.1609 -0.3051  0.4454
11039TIP3    H154532   5.033   3.715  15.726 -0.4924 -1.1917  0.8568
11039TIP3    H254533   4.890   3.755  15.695  0.3864  1.2653 -0.2721
11040TIP3   OH254534   3.948   1.142   6.480 -0.4038  0.4629  0.1931
11040TIP3    H154535   4.038   1.171   6.467 -0.4968  1.3001  1.2496
11040TIP3    H254536   3.946   1.053   6.445  0.4475  0.9515 -1.1781
11041TIP3   OH254537   6.513   5.697   1.688 -0.1667 -0.5079 -0.3764
11041TIP3    H154538   6.473   5.782   1.708  1.9321  0.1984  1.2467
11041TIP3    H254539   6.445   5.633   1.708 -1.6747  0.7450 -1.2834
11042TIP3   OH254540   5.289   6.264  15.815  0.3104 -0.0274  0.7778
11042TIP3    H154541   5.263   6.356  15.821 -1.6602 -0.5432  0.7175
11042TIP3    H254542   5.290   6.246  15.721  2.6332  0.3969  0.6559
11043TIP3   OH254543   0.755   4.614  10.950  0.4656  0.1450 -0.6558
11043TIP3    H154544   0.724   4.568  11.028  1.1020 -1.1864 -1.1660
11043TIP3    H254545   0.681   4.670  10.925 -0.2923 -0.4980  0.0593
11044TIP3   OH254546   5.795   3.236   3.083 -0.7890  0.3832  0.3324
11044TIP3    H154547   5.803   3.307   3.020 -2.0888  0.3234  0.0598
11044TIP3    H254548   5.767   3.161   3.030  1.2196 -0.5617  0.4964
11045TIP3   OH254549   5.867   6.616   2.067 -0.0649  0.0241  0.7289
11045TIP3    H154550   5.876   6.594   1.974  0.0041  1.3652  0.4006
11045TIP3    H254551   5.870   6.532   2.111 -0.4603 -0.6692 -0.5092
11046TIP3   OH254552   0.047   2.954   0.847  0.0523  0.0367  0.2933
11046TIP3    H154553   0.024   2.867   0.877 -1.6284  0.7268  1.1367
11046TIP3    H254554  -0.021   2.977   0.784 -0.6244  1.4536  1.4914
11047TIP3   OH254555   1.399   2.964   0.107  0.8350  0.0140  0.0648
11047TIP3    H154556   1.420   3.047   0.151  0.3529  0.5120 -0.6372
11047TIP3    H254557   1.409   2.983   0.014  0.6081 -0.6888 -0.1070
11048TIP3   OH254558   1.871   1.296   5.393  0.1012  0.1975 -0.2087
11048TIP3    H154559   1.889   1.223   5.452  0.6975  1.1377  0.8000
11048TIP3    H254560   1.820   1.257   5.321 -0.7708 -0.9434  0.9885
11049TIP3   OH254561   0.452   4.864   1.374 -1.0965  0.0396 -0.6807
11049TIP3    H154562   0.472   4.955   1.352 -2.5821  0.7649  0.7102
11049TIP3    H254563   0.358   4.865   1.393 -0.6878 -1.2173  1.8639
11050TIP3   OH254564   6.015   3.069   1.648 -0.7080  0.3103 -0.5019
11050TIP3    H154565   6.073   3.037   1.580 -0.8725 -0.7985 -0.1314
11050TIP3    H254566   5.933   3.022   1.634 -0.3024 -1.0124  1.3130
11051TIP3   OH254567   5.728   6.111  14.435 -0.6728 -0.1361 -0.0614
11051TIP3    H154568   5.670   6.049  14.390 -0.2499  0.0163 -0.8474
11051TIP3    H254569   5.671   6.184  14.459 -0.7887  0.0846 -0.9720
11052TIP3   OH254570   1.473   5.000  12.735  0.0834  1.0507  0.1905
11052TIP3    H154571   1.414   4.925  12.732 -0.1340  1.1985  0.6542
11052TIP3    H254572   1.435   5.063  12.674  0.0090  0.9650  0.1480
11053TIP3   OH254573   3.662   0.464   2.449 -0.2899 -0.1424  0.3416
11053TIP3    H154574   3.680   0.553   2.480 -2.6499 -0.0675  1.7422
11053TIP3    H254575   3.597   0.475   2.380 -0.1735 -0.7312  0.1366
11054TIP3   OH254576   3.424   5.353  13.087  0.5573 -0.0456  0.1669
11054TIP3    H154577   3.512   5.341  13.123  0.1647  0.2849  1.2591
11054TIP3    H254578   3.434   5.333  12.994  1.5372 -1.2320  0.4890
11055TIP3   OH254579   1.124   6.488   0.426  0.4223  0.3624  0.2476
11055TIP3    H154580   1.134   6.401   0.466 -0.2600  0.5954  0.9446
11055TIP3    H254581   1.090   6.469   0.338  0.1925 -0.0858  0.4243
11056TIP3   OH254582   1.744   1.561  14.269  0.5398 -0.2677  0.0130
11056TIP3    H154583   1.838   1.552  14.252  0.6102 -0.7141  0.5926
11056TIP3    H254584   1.738   1.568  14.365  0.1599  2.0567 -0.1082
11057TIP3   OH254585   0.402   2.166   4.769  0.2290  0.1127 -0.5362
11057TIP3    H154586   0.485   2.213   4.766  1.2660 -1.5991  0.0650
11057TIP3    H254587   0.384   2.144   4.677  1.0492 -0.4816 -0.5694
11058TIP3   OH254588   4.092   0.026   2.166  0.6759 -0.4013  0.2114
11058TIP3    H154589   4.132   0.044   2.251 -2.1534  2.2056  1.1849
11058TIP3    H254590   4.014  -0.025   2.186 -0.2594  0.6042 -0.7332
11059TIP3   OH254591   5.235   0.659   5.225 -0.2356  0.3161 -0.0213
11059TIP3    H154592   5.232   0.743   5.272 -0.5295 -0.4663  1.4349
11059TIP3    H254593   5.328   0.636   5.223 -0.3007 -0.1219  1.1244
11060TIP3   OH254594   2.703   0.369   5.230  0.3996 -0.2894 -0.2252
11060TIP3    H154595   2.618   0.406   5.205  0.9415  0.5173 -0.9161
11060TIP3    H254596   2.681   0.287   5.274 -0.7365 -0.1010 -0.4066
11061TIP3   OH254597   1.227   4.963   1.367  0.0979 -0.2639 -0.4234
11061TIP3    H154598   1.247   5.016   1.290  1.6220 -0.7772 -0.4121
11061TIP3    H254599   1.311   4.927   1.394 -0.6955 -1.6568  0.3274
11062TIP3   OH254600   4.566   0.946  14.726  0.4637 -0.0235  0.0526
11062TIP3    H154601   4.520   0.975  14.648  0.9690 -3.6210 -1.8006
11062TIP3    H254602   4.652   0.988  14.720  0.3271  0.1205 -1.0858
11063TIP3   OH254603   6.328   5.324  11.071  0.2233 -0.3164 -0.1298
11063TIP3    H154604   6.385   5.303  11.145  1.4495 -0.1068 -0.9793
11063TIP3    H254605   6.290   5.241  11.046 -0.8198 -0.2724  1.2085
11064TIP3   OH254606   3.497   5.209  13.638  0.4678  0.0869  0.3033
11064TIP3    H154607   3.445   5.278  13.598 -0.3998  0.3994  1.8852
11064TIP3    H254608   3.472   5.130  13.591 -1.9532  0.1214  1.3827
11065TIP3   OH254609   2.955   1.105  13.661 -0.1812 -0.3740 -0.4184
11065TIP3    H154610   2.883   1.159  13.694 -0.8615 -0.9142 -0.9720
11065TIP3    H254611   2.912   1.027  13.626  0.6280 -0.4172 -1.3548
11066TIP3   OH254612   4.033   6.601   5.250  0.7275 -1.0026 -0.4109
11066TIP3    H154613   3.978   6.571   5.322 -2.0294  1.1359 -1.4610
11066TIP3    H254614   4.063   6.688   5.277  2.2355 -1.4267 -0.6091
11067TIP3   OH254615   2.215   4.868   2.159 -0.6471 -0.1073 -0.4745
11067TIP3    H154616   2.145   4.803   2.150 -0.6202 -0.1218 -0.5850
11067TIP3    H254617   2.169   4.951   2.169 -0.6796  0.0174 -1.5773
11068TIP3   OH254618   4.741   1.271  11.494  0.0409 -0.7323 -0.0263
11068TIP3    H154619   4.692   1.302  11.418  0.3709  1.4336  0.5577
11068TIP3    H254620   4.830   1.305  11.481  0.1332 -0.4147  1.2293
11069TIP3   OH254621   1.616   2.306   2.121 -0.1046 -0.4418 -0.3614
11069TIP3    H154622   1.628   2.246   2.046 -0.5987 -0.6232 -0.2956
11069TIP3    H254623   1.616   2.248   2.197 -0.2248 -0.3169 -0.2682
11070TIP3   OH254624   4.370   5.573   5.622 -0.3507 -0.0927  0.4741
11070TIP3    H154625   4.454   5.611   5.597 -0.9133  1.2547  0.5393
11070TIP3    H254626   4.386   5.532   5.707  0.5570 -1.0491 -0.1376
11071TIP3   OH254627   2.766   1.402  15.038  0.0951 -0.4256 -0.3899
11071TIP3    H154628   2.726   1.440  15.117  1.6536  0.7667 -0.1240
11071TIP3    H254629   2.794   1.314  15.066 -2.3760 -1.3770 -0.6373
11072TIP3   OH254630   5.036   5.475  12.336 -0.5902 -0.4198  0.1102
11072TIP3    H154631   5.083   5.409  12.285 -0.0911 -1.2647  1.6135
11072TIP3    H254632   5.011   5.430  12.417 -2.0054  0.6702  0.3186
11073TIP3   OH254633   2.027   0.348  14.285  0.4301 -0.0170  0.1737
11073TIP3    H154634   2.011   0.348  14.190  1.6325 -0.6051 -0.0463
11073TIP3    H254635   2.054   0.437  14.304  2.1652 -0.3792 -0.4219
11074TIP3   OH254636   2.522   2.917   1.433 -0.2181  0.1483 -0.0213
11074TIP3    H154637   2.457   2.980   1.463 -1.3413 -1.6494  1.5289
11074TIP3    H254638   2.473   2.836   1.420  0.9715 -0.2087 -3.0585
11075TIP3   OH254639   2.458   6.215  15.977  0.2576 -0.0542 -0.0524
11075TIP3    H154640   2.465   6.283  16.043 -1.0385  0.1209 -0.0777
11075TIP3    H254641   2.477   6.259  15.894  0.5441  0.0229  0.0538
11076TIP3   OH254642   1.041   6.653  16.374  0.1855 -0.0529  0.6048
11076TIP3    H154643   0.989   6.620  16.300  0.4453  0.3993  0.2143
11076TIP3    H254644   1.129   6.619  16.357  0.3566  0.4715  0.4345
11077TIP3   OH254645   4.427   4.359  11.020 -0.7136 -0.0512 -0.2485
11077TIP3    H154646   4.401   4.402  10.939 -0.7545  1.5896  0.5951
11077TIP3    H254647   4.349   4.314  11.051 -2.1630  3.1363  1.2002
11078TIP3   OH254648   1.651   1.612   3.146 -0.0801  0.0087  0.2826
11078TIP3    H154649   1.647   1.522   3.177 -1.1849 -0.5488 -1.3351
11078TIP3    H254650   1.663   1.604   3.051  0.3230  1.5787  0.1682
11079TIP3   OH254651   4.967   4.097  12.749  0.6387  0.5242 -0.0287
11079TIP3    H154652   4.915   4.151  12.809  0.4740  0.1786  0.1485
11079TIP3    H254653   4.998   4.025  12.804  2.4863  1.4447  0.2099
11080TIP3   OH254654   1.344   0.917  15.943 -0.1993 -0.1281  0.6136
11080TIP3    H154655   1.384   1.000  15.965  1.8316 -0.9383  0.1898
11080TIP3    H254656   1.372   0.857  16.013  0.9222 -1.1447 -0.6419
11081TIP3   OH254657   0.299   4.992  15.468 -0.0025 -0.1137 -0.1645
11081TIP3    H154658   0.385   4.973  15.505  0.8057  0.2431 -1.7524
11081TIP3    H254659   0.243   5.007  15.544  1.5778  0.6612  0.9113
11082TIP3   OH254660   6.205   2.718   3.403  0.3036 -0.1496  0.2456
11082TIP3    H154661   6.109   2.715   3.398  0.1846 -0.5520  2.0178
11082TIP3    H254662   6.225   2.811   3.413 -0.0614 -0.2169  1.8033
11083TIP3   OH254663   3.250   5.097  16.715 -0.0006  0.2804 -0.1360
11083TIP3    H154664   3.245   5.102  16.619  1.6248 -0.8760 -0.3087
11083TIP3    H254665   3.224   5.008  16.736  0.6490  0.2157  0.4160
11084TIP3   OH254666   1.855   3.610   4.312 -0.4573 -0.1327 -0.2923
11084TIP3    H154667   1.877   3.683   4.369  0.5120 -1.7669  1.5359
11084TIP3    H254668   1.771   3.578   4.345  1.1935 -2.5534  1.9223
11085TIP3   OH254669   3.536   3.175  15.562  0.1561 -0.4035 -0.3814
11085TIP3    H154670   3.487   3.248  15.599 -0.3317 -1.0865  0.3475
11085TIP3    H254671   3.550   3.199  15.470 -2.9382 -0.8356 -1.0833
11086TIP3   OH254672   1.287   1.750  13.303  0.3826 -0.0159  0.1610
11086TIP3    H154673   1.262   1.778  13.215  1.5357  2.4500  0.5379
11086TIP3    H254674   1.224   1.793  13.361  1.4485  0.8886  0.6948
11087TIP3   OH254675   5.284   3.914   3.182  0.2163 -0.0257 -0.2355
11087TIP3    H154676   5.315   3.980   3.244 -1.3713  0.7328 -0.1781
11087TIP3    H254677   5.350   3.913   3.113  0.5850  1.1906  0.0679
11088TIP3   OH254678   2.929   1.294  15.989 -0.6336 -0.4541 -0.0541
11088TIP3    H154679   2.994   1.341  16.041  1.4294 -1.9300 -1.1630
11088TIP3    H254680   2.864   1.361  15.965  0.2463  0.9793  1.4162
11089TIP3   OH254681   6.526   2.959   3.468 -0.2385 -0.1238 -0.3315
11089TIP3    H154682   6.569   2.878   3.493  0.5169  0.0174 -1.1134
11089TIP3    H254683   6.519   2.954   3.372 -0.8824  0.3915 -0.3185
11090TIP3   OH254684   0.556   3.166  13.409  0.2495 -0.2360 -0.9683
11090TIP3    H154685   0.598   3.136  13.328 -1.2183 -0.6177 -1.6064
11090TIP3    H254686   0.529   3.086  13.454  0.5616 -0.0068 -0.3474
11091TIP3   OH254687   4.390   5.190  12.680 -0.2417  0.6268 -0.4055
11091TIP3    H154688   4.339   5.112  12.657  1.8858 -0.4302 -1.8538
11091TIP3    H254689   4.463   5.157  12.731  0.7272  1.6377 -1.0773
11092TIP3   OH254690   4.192   5.765  14.802 -0.3444  0.7393  0.8925
11092TIP3    H154691   4.123   5.713  14.843  0.4398  0.0453  1.3698
11092TIP3    H254692   4.182   5.852  14.841 -0.6671  0.5253  1.3033
11093TIP3   OH254693   2.594   4.756  12.378 -0.0580  0.1185  0.6157
11093TIP3    H154694   2.604   4.808  12.457  0.5858 -0.0217  0.6296
11093TIP3    H254695   2.664   4.786  12.320  0.8573 -1.3039  0.9461
11094TIP3   OH254696   5.149   3.241   5.422 -0.0092 -0.4099  0.5670
11094TIP3    H154697   5.121   3.280   5.339  0.5757 -0.1019  0.5114
11094TIP3    H254698   5.205   3.167   5.397  1.4359  0.6152  0.6791
11095TIP3   OH254699   6.488   6.511  13.979 -0.4171 -0.0223 -0.2634
11095TIP3    H154700   6.469   6.520  14.073 -1.4332 -0.6637 -0.3863
11095TIP3    H254701   6.504   6.600  13.949  2.3188 -0.0224  0.9685
11096TIP3   OH254702   4.510   4.339   0.283  0.0470  0.1456  0.2970
11096TIP3    H154703   4.565   4.316   0.358 -0.9177 -1.6101  0.5192
11096TIP3    H254704   4.434   4.382   0.321 -1.7615 -3.1240  0.7321
11097TIP3   OH254705   0.188   4.460   2.411  0.1815 -0.2826 -0.1632
11097TIP3    H154706   0.113   4.427   2.363 -1.4586  2.4453  0.2796
11097TIP3    H254707   0.263   4.412   2.376 -1.4181 -1.2118 -2.5369
11098TIP3   OH254708   3.343   4.120  11.884  0.4944 -0.7552 -0.9528
11098TIP3    H154709   3.388   4.070  11.817  0.1344 -2.1108 -0.2322
11098TIP3    H254710   3.335   4.059  11.958 -3.5399 -1.0650 -1.4215
11099TIP3   OH254711   0.671   3.753   1.749  0.2369  0.7567 -0.8057
11099TIP3    H154712   0.719   3.813   1.693  1.2753 -0.0577 -0.8052
11099TIP3    H254713   0.592   3.802   1.774  1.2884  2.3125 -0.3888
11100TIP3   OH254714   3.164   1.607   0.129  0.0753  0.1442  0.6926
11100TIP3    H154715   3.122   1.527   0.160  1.2029 -0.5158  0.5782
11100TIP3    H254716   3.092   1.662   0.098 -0.6415 -1.2954 -0.3187
11101TIP3   OH254717   4.736   0.315   2.058 -0.3438  0.0814 -0.5118
11101TIP3    H154718   4.825   0.309   2.092 -0.5280  0.6000  0.0877
11101TIP3    H254719   4.681   0.283   2.130 -0.6061 -0.9207 -1.1327
11102TIP3   OH254720   6.697   4.004  13.039  0.1455  0.3646  0.3469
11102TIP3    H154721   6.605   3.978  13.035  0.8427 -2.3128 -0.0458
11102TIP3    H254722   6.717   4.005  13.133  0.6152 -3.0219  0.4231
11103TIP3   OH254723   0.399   3.319  13.064  0.6178  0.1394  0.0182
11103TIP3    H154724   0.403   3.243  13.006  1.3172 -0.1946  0.4871
11103TIP3    H254725   0.306   3.341  13.068  0.2161 -1.5954  1.0306
11104TIP3   OH254726   5.764   6.280   6.108 -0.3344  0.2019 -0.2946
11104TIP3    H154727   5.672   6.307   6.103  0.2208  2.5692  0.7975
11104TIP3    H254728   5.778   6.258   6.200 -0.1379 -1.6387 -0.7283
11105TIP3   OH254729   6.587   5.423   5.265  0.5735  0.2066 -0.3031
11105TIP3    H154730   6.585   5.471   5.182 -0.6124 -0.8706 -0.9315
11105TIP3    H254731   6.519   5.464   5.318  0.9537  0.5315 -0.0565
11106TIP3   OH254732   4.008   6.117   5.007  0.0497  0.0492  0.1823
11106TIP3    H154733   3.936   6.181   5.011  0.5195  0.7020 -1.1648
11106TIP3    H254734   4.085   6.167   5.032  0.3603 -0.0649 -0.5148
11107TIP3   OH254735   2.542   1.071  12.557  0.2060 -0.6998 -0.5459
11107TIP3    H154736   2.551   1.076  12.462  1.7898 -4.6390 -0.8228
11107TIP3    H254737   2.453   1.100  12.575  0.0005  0.5530 -3.1506
11108TIP3   OH254738   5.531   6.473  13.920  0.1890 -0.3383  0.3477
11108TIP3    H154739   5.580   6.396  13.947 -1.4395 -1.7844 -0.6641
11108TIP3    H254740   5.452   6.472  13.974  0.6707  1.3106  1.1497
11109TIP3   OH254741   6.472   0.589   1.127  0.1804  0.4656  0.5168
11109TIP3    H154742   6.523   0.580   1.047 -0.2375 -2.1007  0.4436
11109TIP3    H254743   6.459   0.499   1.157 -1.2843  1.2493  2.4508
11110TIP3   OH254744   1.965   0.142  15.584 -0.6216  0.2244 -0.2193
11110TIP3    H154745   1.954   0.189  15.501 -0.3334  1.1062  0.2327
11110TIP3    H254746   2.011   0.204  15.640  0.4698 -0.8915  0.1435
11111TIP3   OH254747   2.553   5.080  15.892 -0.1018  0.3653  0.4985
11111TIP3    H154748   2.580   5.150  15.951  1.0368  0.3514  0.0148
11111TIP3    H254749   2.503   5.125  15.824 -1.0776  0.4305  1.2326
11112TIP3   OH254750   5.925   3.231  11.347  0.6570  0.1944  0.3231
11112TIP3    H154751   5.942   3.158  11.407  0.1321 -0.1438  0.0737
11112TIP3    H254752   5.882   3.190  11.272 -0.5849  0.9069  0.6290
11113TIP3   OH254753   1.334   1.604   3.214 -0.1976  0.1405  0.2049
11113TIP3    H154754   1.428   1.609   3.231 -0.3385  0.0030  1.0923
11113TIP3    H254755   1.295   1.653   3.286 -0.7859  0.6663 -0.4619
11114TIP3   OH254756   5.673   5.907   5.375 -0.1647 -0.2679  0.0657
11114TIP3    H154757   5.746   5.881   5.318  0.4163  0.2927  0.5456
11114TIP3    H254758   5.673   6.003   5.373  0.4706 -0.1969  1.7494
11115TIP3   OH254759   3.070   3.370  16.968  0.3554  0.2496  0.2669
11115TIP3    H154760   3.112   3.441  16.919 -0.3238 -0.7148 -1.8358
11115TIP3    H254761   3.115   3.291  16.939  1.5763 -0.2376  3.0933
11116TIP3   OH254762   0.661   0.690   6.141 -0.1590  0.7366  0.6134
11116TIP3    H154763   0.646   0.665   6.232 -1.0406 -1.6775 -0.1098
11116TIP3    H254764   0.694   0.611   6.099 -1.8026  1.1120 -1.6187
11117TIP3   OH254765   4.378   5.756   4.090  0.8722  0.0080 -0.0340
11117TIP3    H154766   4.378   5.850   4.111 -1.4280  0.4866 -1.7552
11117TIP3    H254767   4.331   5.716   4.163 -0.1742  0.5320 -0.4081
11118TIP3   OH254768   1.850   3.865  16.087  0.3332 -0.1048  0.6594
11118TIP3    H154769   1.939   3.855  16.054 -0.1569  1.7827 -1.5577
11118TIP3    H254770   1.798   3.801  16.038  0.2976 -0.5052  1.2103
11119TIP3   OH254771   1.025   2.754   1.036 -0.4088  0.7658 -0.3587
11119TIP3    H154772   0.956   2.689   1.022  0.3503 -0.0464 -0.4067
11119TIP3    H254773   1.101   2.702   1.061  0.3216  1.6129 -0.8068
11120TIP3   OH254774   3.436   6.627   3.226  0.2265 -0.4158 -0.9512
11120TIP3    H154775   3.416   6.625   3.320  3.0654 -0.5846 -0.2712
11120TIP3    H254776   3.421   6.718   3.201  4.6029  1.1351  1.0733
11121TIP3   OH254777   3.149   2.567   0.421  0.3866  0.1037 -0.2332
11121TIP3    H154778   3.139   2.484   0.374  2.4922  1.1467 -2.7628
11121TIP3    H254779   3.060   2.588   0.451 -0.3326 -2.6622 -0.0770
11122TIP3   OH254780   2.511   3.398   0.632 -0.1312  0.1601  0.2022
11122TIP3    H154781   2.518   3.303   0.624 -1.4425  0.1829 -2.5388
11122TIP3    H254782   2.491   3.413   0.724 -3.3491 -2.5688  0.1814
11123TIP3   OH254783   3.903   1.159  14.920 -0.4814  0.4570 -0.3945
11123TIP3    H154784   3.825   1.128  14.966 -0.5398  0.2464 -0.6266
11123TIP3    H254785   3.976   1.121  14.968 -0.5444  0.1764 -0.5145
11124TIP3   OH254786   2.529   3.926   5.643  0.2608 -0.2350  0.5017
11124TIP3    H154787   2.444   3.899   5.677  0.0404 -0.2671 -0.0527
11124TIP3    H254788   2.549   4.007   5.689  0.0009 -0.3086  0.7475
11125TIP3   OH254789   4.406   0.197  14.257 -0.0627 -0.4395 -0.4112
11125TIP3    H154790   4.313   0.211  14.241 -0.0228  1.2061  0.5719
11125TIP3    H254791   4.448   0.277  14.226  0.5762  0.5286  2.6572
11126TIP3   OH254792   1.177   0.183   0.519  0.2135  0.3275  0.1002
11126TIP3    H154793   1.203   0.193   0.427 -2.1205  0.0692 -0.6641
11126TIP3    H254794   1.190   0.269   0.557  0.2368  0.7299 -0.7822
11127TIP3   OH254795   1.164   3.089  13.728  0.1931 -0.4648 -0.0307
11127TIP3    H154796   1.233   3.084  13.794  2.7042  1.2403 -2.3354
11127TIP3    H254797   1.208   3.065  13.646 -2.7954 -2.5596 -1.1684
11128TIP3   OH254798   1.653   5.984   6.450 -0.3874  0.1546 -0.2588
11128TIP3    H154799   1.716   5.985   6.378  0.9091  0.3721  0.8464
11128TIP3    H254800   1.682   6.054   6.509 -0.9101 -0.5640  0.8903
11129TIP3   OH254801   4.205   4.280   2.054  0.9276 -0.2549 -1.0327
11129TIP3    H154802   4.229   4.300   2.144 -0.2101 -0.2594 -0.7092
11129TIP3    H254803   4.280   4.231   2.019  0.7120 -1.7268  0.4372
11130TIP3   OH254804   4.421   3.596  13.549 -1.0779  0.4662  0.3694
11130TIP3    H154805   4.423   3.511  13.505 -3.3304  0.5046  0.0848
11130TIP3    H254806   4.417   3.575  13.642 -1.0809  0.2635  0.3241
11131TIP3   OH254807   5.486   2.831   0.979  0.5935  0.0326  0.2267
11131TIP3    H154808   5.578   2.807   0.992  0.4045 -1.4114 -0.8573
11131TIP3    H254809   5.439   2.747   0.979 -0.2967  0.4335 -2.4144
11132TIP3   OH254810   3.886   5.314   4.079  0.4552 -0.3797 -0.5568
11132TIP3    H154811   3.958   5.255   4.056 -1.1750 -2.7500 -0.0394
11132TIP3    H254812   3.821   5.257   4.120  0.2225  2.4146  3.4500
11133TIP3   OH254813   0.193   2.243  15.610  0.0070  0.8517 -0.1778
11133TIP3    H154814   0.217   2.203  15.526  0.8604 -0.0747  0.4722
11133TIP3    H254815   0.265   2.303  15.629  1.6991 -1.5370  1.5235
11134TIP3   OH254816   5.495   3.613   0.329 -0.0503 -0.3543  0.0454
11134TIP3    H154817   5.526   3.522   0.327 -1.2027 -0.7608 -0.3414
11134TIP3    H254818   5.420   3.614   0.270 -0.9392  0.5140  1.1378
11135TIP3   OH254819   3.742   2.965   5.986 -0.3614 -0.0029 -0.1370
11135TIP3    H154820   3.648   2.971   5.966 -0.1586 -0.9709 -1.5926
11135TIP3    H254821   3.766   3.052   6.017 -1.4921  0.6228 -0.9363
11136TIP3   OH254822   3.380   1.336   1.050 -0.0376 -0.3480 -0.2061
11136TIP3    H154823   3.416   1.303   1.132  0.1147 -1.6803 -0.7872
11136TIP3    H254824   3.303   1.386   1.076  1.8539  2.1129  1.0104
11137TIP3   OH254825   0.802   5.508   4.545  0.0978 -0.8621 -0.2193
11137TIP3    H154826   0.726   5.528   4.489 -0.7975 -0.8042  0.9693
11137TIP3    H254827   0.786   5.418   4.574  0.6328 -0.9385 -0.1619
11138TIP3   OH254828   6.242   6.231   6.640 -0.3996  0.3698  0.0871
11138TIP3    H154829   6.270   6.278   6.562 -0.8141 -0.8678 -0.8554
11138TIP3    H254830   6.237   6.297   6.709  1.1148  1.2826 -0.6355
11139TIP3   OH254831   4.402   0.791   4.609  0.1368  0.2004 -0.5599
11139TIP3    H154832   4.314   0.786   4.571 -0.4723 -0.9068  0.9210
11139TIP3    H254833   4.427   0.700   4.624  2.1679  0.3804 -2.2385
11140TIP3   OH254834   5.530   1.093   4.958 -0.2564  0.0141  0.1212
11140TIP3    H154835   5.530   1.054   5.045 -1.7512  1.0470  0.6303
11140TIP3    H254836   5.529   1.018   4.898  3.1480 -0.7797  0.8312
11141TIP3   OH254837   3.778   3.689  14.132  0.3597 -0.1505 -0.0510
11141TIP3    H154838   3.713   3.623  14.109 -0.9281 -0.1869  3.1448
11141TIP3    H254839   3.853   3.640  14.164  1.0143 -0.0602 -1.3786
11142TIP3   OH254840   0.204   0.024   0.047 -0.8357  0.2588  0.4540
11142TIP3    H154841   0.141  -0.042   0.076  0.5124 -1.1870  0.2228
11142TIP3    H254842   0.189   0.099   0.105 -1.7806 -0.5996  1.3531
11143TIP3   OH254843   5.635   0.184   5.267 -0.0161  0.1623 -0.3534
11143TIP3    H154844   5.540   0.182   5.268 -0.0370 -1.3800  1.8305
11143TIP3    H254845   5.658   0.269   5.304 -0.5788 -0.1252  0.6848
11144TIP3   OH254846   3.748   1.261   6.647  0.1212  0.1078  0.0510
11144TIP3    H154847   3.720   1.191   6.707  0.4156  0.7509  0.9606
11144TIP3    H254848   3.814   1.220   6.591  0.3385 -0.3259  0.6208
11145TIP3   OH254849   3.706   2.481   4.641 -0.0443 -0.4610  0.2339
11145TIP3    H154850   3.777   2.544   4.649 -2.5529  2.5183  1.1552
11145TIP3    H254851   3.702   2.437   4.726  0.1245  0.0416  0.5064
11146TIP3   OH254852   2.659   6.050   4.722 -0.0358 -0.4315  0.0660
11146TIP3    H154853   2.635   6.006   4.804  0.0887  0.4565  0.5866
11146TIP3    H254854   2.754   6.042   4.718  0.1063  0.7420  0.7290
11147TIP3   OH254855   4.558   4.211  14.765  0.4678  0.0393  0.5473
11147TIP3    H154856   4.544   4.275  14.695 -2.7088 -1.2965 -0.2185
11147TIP3    H254857   4.511   4.249  14.840  0.6168 -0.2876  0.8068
11148TIP3   OH254858   5.071   3.095  11.995 -0.9361  0.4440 -0.4485
11148TIP3    H154859   5.016   3.103  12.073 -1.1659  1.7604 -0.7163
11148TIP3    H254860   5.100   3.185  11.977  0.8354 -0.1385 -0.6617
11149TIP3   OH254861   4.325   0.101   5.186  0.3515 -0.0517 -0.2619
11149TIP3    H154862   4.265   0.176   5.183 -0.7600 -0.7211  2.5738
11149TIP3    H254863   4.394   0.128   5.246  0.8212 -0.6879 -0.5074
11150TIP3   OH254864   6.676   6.594   1.506  0.1645  0.3432 -0.2697
11150TIP3    H154865   6.703   6.510   1.541  1.6117  1.2290  0.8408
11150TIP3    H254866   6.594   6.614   1.552  1.1669  0.7102  1.4089
11151TIP3   OH254867   3.839   4.843  12.625  0.2076 -0.4175 -0.2505
11151TIP3    H154868   3.873   4.900  12.556  1.4125 -1.7859 -0.8148
11151TIP3    H254869   3.889   4.867  12.703  0.1145 -0.1359 -0.2749
11152TIP3   OH254870   2.231   5.054   1.687 -0.6653  0.8261  0.0641
11152TIP3    H154871   2.140   5.055   1.657 -0.4140  2.2837 -0.7560
11152TIP3    H254872   2.258   5.146   1.684  1.4939  0.2240 -1.8108
11153TIP3   OH254873   2.554   0.493   4.716  0.4877  0.0105  0.4125
11153TIP3    H154874   2.491   0.498   4.788  1.4089  0.8995  1.1829
11153TIP3    H254875   2.557   0.400   4.694 -1.8883  0.0473 -0.3919
11154TIP3   OH254876   6.723   6.042  15.693  0.3215 -0.2058  0.3738
11154TIP3    H154877   6.817   6.056  15.681  0.0929  1.6095  0.4033
11154TIP3    H254878   6.698   5.983  15.622  1.8490 -2.5265  1.6477
11155TIP3   OH254879   5.365   1.089  13.654 -0.4357  0.5212  0.4855
11155TIP3    H154880   5.424   1.061  13.584  0.4517  1.2749  0.9183
11155TIP3    H254881   5.329   1.007  13.688 -0.2020  0.0939 -0.2608
11156TIP3   OH254882   6.081   3.707  13.513  0.2978  0.0323 -0.0922
11156TIP3    H154883   6.138   3.646  13.560 -1.3982 -1.7172 -0.1823
11156TIP3    H254884   6.024   3.743  13.581 -0.8327 -0.9702 -0.4900
11157TIP3   OH254885   4.666   5.371   0.960 -0.2087  0.5833 -0.3260
11157TIP3    H154886   4.656   5.423   1.039 -0.0637 -1.9847  1.5077
11157TIP3    H254887   4.759   5.380   0.937 -0.0779  0.7620  0.2501
11158TIP3   OH254888   3.162   0.584  14.116  0.0650  0.1705 -0.1193
11158TIP3    H154889   3.121   0.536  14.044 -0.6994  0.4137  0.1434
11158TIP3    H254890   3.189   0.517  14.178  2.0930 -0.1708 -1.2810
11159TIP3   OH254891   3.498   5.809  15.876 -0.0653  0.4547 -0.6834
11159TIP3    H154892   3.459   5.895  15.856  1.4877  0.9680 -1.7518
11159TIP3    H254893   3.586   5.814  15.839 -0.2183 -1.9252 -1.5398
11160TIP3   OH254894   0.910   5.844   2.634 -0.2572  0.0170 -0.1190
11160TIP3    H154895   0.935   5.845   2.541  3.1743  0.4231  0.6682
11160TIP3    H254896   0.950   5.924   2.670  0.8527 -1.4714  2.1859
11161TIP3   OH254897   2.851   4.082   5.319  0.3748 -0.2864 -0.3442
11161TIP3    H154898   2.870   4.059   5.410 -2.2886 -0.5117  0.2319
11161TIP3    H254899   2.812   4.004   5.281 -0.1405  0.3497 -1.1742
11162TIP3   OH254900   4.247   3.828  13.963 -0.3710  0.3998  0.1762
11162TIP3    H154901   4.331   3.821  13.917 -0.0248  2.4345  0.3952
11162TIP3    H254902   4.271   3.849  14.054 -1.1069  0.1441  0.4377
11163TIP3   OH254903   5.746   6.632  12.207 -0.4086  0.0228  0.4174
11163TIP3    H154904   5.833   6.633  12.167 -1.0304 -1.1199 -1.1006
11163TIP3    H254905   5.756   6.679  12.290  1.7631 -0.5405  0.5317
11164TIP3   OH254906   6.065   1.072   2.299  0.3069  0.5781  0.2330
11164TIP3    H154907   6.052   1.166   2.316 -1.7264  0.1773  1.1909
11164TIP3    H254908   6.012   1.055   2.222  1.0824  0.2975 -0.2437
11165TIP3   OH254909   0.595   1.528   5.067  0.1255  0.1422 -0.0285
11165TIP3    H154910   0.620   1.621   5.063  0.7124 -0.0533 -2.1417
11165TIP3    H254911   0.502   1.527   5.044 -0.2974  0.2886  1.5077
11166TIP3   OH254912   0.182   2.523  12.064 -0.0702 -0.7977 -1.0987
11166TIP3    H154913   0.118   2.572  12.012 -0.0729  0.6777  0.2204
11166TIP3    H254914   0.255   2.507  12.005 -0.9964 -1.1458 -2.1801
11167TIP3   OH254915   6.147   5.669  11.772  0.3094 -0.4614 -0.3889
11167TIP3    H154916   6.159   5.612  11.848  1.4742  1.0114  0.5631
11167TIP3    H254917   6.232   5.711  11.759 -0.7220  1.6944 -0.5401
11168TIP3   OH254918   4.422   2.006   0.737  0.0967 -0.1320 -0.5923
11168TIP3    H154919   4.340   1.970   0.705 -0.4389  0.3712  0.1693
11168TIP3    H254920   4.407   2.021   0.831  1.7058 -1.8737  0.0177
11169TIP3   OH254921   0.165   5.670  13.141  0.4720  0.3992 -0.3821
11169TIP3    H154922   0.253   5.634  13.124  0.0164 -0.7812 -0.3704
11169TIP3    H254923   0.111   5.633  13.071  0.0603  1.4595 -0.6404
11170TIP3   OH254924   3.042   6.025  13.545  0.1937 -0.1520  0.0596
11170TIP3    H154925   2.986   5.981  13.481 -1.1308  1.6951 -0.1437
11170TIP3    H254926   3.121   5.971  13.550 -1.6339 -3.0053  0.5077
11171TIP3   OH254927   0.480   1.766  16.637 -0.3981 -0.2073 -0.4683
11171TIP3    H154928   0.500   1.856  16.608 -1.0471 -0.5141 -1.9729
11171TIP3    H254929   0.565   1.732  16.667  0.2992  0.2417 -1.8201
11172TIP3   OH254930   5.246   1.209  13.322  0.7713 -0.1735 -0.4865
11172TIP3    H154931   5.216   1.293  13.288  3.2969  1.1091  0.2357
11172TIP3    H254932   5.198   1.144  13.270 -2.1258  1.6207 -0.3006
11173TIP3   OH254933   4.857   4.318   3.422 -0.1841 -0.2956 -0.0077
11173TIP3    H154934   4.928   4.254   3.409  1.1279  1.0867  0.0849
11173TIP3    H254935   4.825   4.299   3.510  1.2307  0.1182  0.6306
11174TIP3   OH254936   1.447   3.302   1.036  0.3007  0.2846  0.0659
11174TIP3    H154937   1.420   3.391   1.060  0.3289 -0.2509  2.2927
11174TIP3    H254938   1.542   3.306   1.034  0.3048  0.3052  0.2437
11175TIP3   OH254939   4.297   0.998   5.859 -0.2361  0.3053  0.3691
11175TIP3    H154940   4.293   0.902   5.866 -0.8835  0.1602 -1.4190
11175TIP3    H254941   4.390   1.018   5.854 -0.1089 -0.2910  0.2416
11176TIP3   OH254942   3.381   5.312  16.484  0.4869  0.3097  0.2912
11176TIP3    H154943   3.369   5.366  16.562  1.8997  0.5560  0.3742
11176TIP3    H254944   3.473   5.327  16.459  0.1268  0.0636 -1.2834
11177TIP3   OH254945   4.228   1.713   1.924 -0.3413 -0.4022 -0.1559
11177TIP3    H154946   4.176   1.695   2.003 -0.3253 -2.8579 -0.6101
11177TIP3    H254947   4.190   1.656   1.857  1.4372 -0.5086 -1.1320
11178TIP3   OH254948   1.772   3.213  12.695  0.2010 -0.3639 -0.0601
11178TIP3    H154949   1.763   3.198  12.790  0.8313  0.2145  0.0948
11178TIP3    H254950   1.826   3.292  12.688  0.5203 -0.6504 -0.9090
11179TIP3   OH254951   1.922   3.617  11.816 -0.3595  0.1788 -0.1588
11179TIP3    H154952   1.923   3.563  11.737 -0.4856 -0.2062  0.1016
11179TIP3    H254953   2.011   3.654  11.821 -0.1498 -0.3239 -0.1244
11180TIP3   OH254954   6.507   5.477   4.513 -0.6218 -0.3422  0.2877
11180TIP3    H154955   6.484   5.465   4.605  0.8923  1.2018  0.9478
11180TIP3    H254956   6.566   5.553   4.514 -0.5560 -0.3086 -1.9620
11181TIP3   OH254957   1.239   4.821   1.004 -0.0244 -0.3324 -0.4405
11181TIP3    H154958   1.192   4.744   1.034 -2.6907  0.3675 -2.4462
11181TIP3    H254959   1.290   4.791   0.928  2.5795 -0.9704  1.4126
11182TIP3   OH254960   6.504   1.222   3.363 -0.2252  0.2528 -0.2353
11182TIP3    H154961   6.506   1.172   3.445 -0.4327 -0.9660 -0.9458
11182TIP3    H254962   6.595   1.242   3.344  0.1380 -1.9044 -1.1079
11183TIP3   OH254963   3.913   2.192  17.206 -0.2309  0.5628  0.7635
11183TIP3    H154964   3.827   2.225  17.181 -0.4974 -0.8743 -0.3199
11183TIP3    H254965   3.901   2.098  17.218  1.2265  0.2950  0.3648
11184TIP3   OH254966   2.295   0.047  12.775  0.7001 -0.0074  0.2084
11184TIP3    H154967   2.261  -0.000  12.699 -0.0497 -0.6706  0.9405
11184TIP3    H254968   2.300  -0.019  12.844  2.5176  0.2917  0.4322
11185TIP3   OH254969   5.967   1.115   5.796 -0.4201  0.4499  0.1360
11185TIP3    H154970   5.878   1.119   5.831 -0.1018  1.1785  0.9079
11185TIP3    H254971   6.017   1.069   5.863 -0.1741  0.2360 -0.1935
11186TIP3   OH254972   0.152   6.279   2.518 -0.3189  0.6075 -0.6265
11186TIP3    H154973   0.162   6.371   2.544  0.6336  0.3250  0.0516
11186TIP3    H254974   0.196   6.274   2.433 -0.7874  0.8742 -0.8895
11187TIP3   OH254975   5.787   3.443   0.975  0.0050 -0.9092 -0.3646
11187TIP3    H154976   5.789   3.371   1.038  2.8944 -0.7852 -0.1606
11187TIP3    H254977   5.744   3.515   1.022  1.9983 -0.8382  1.5705
11188TIP3   OH254978   0.815   0.865  17.126  0.2897 -0.5034  0.1783
11188TIP3    H154979   0.765   0.817  17.060  2.2848 -0.0766 -1.7127
11188TIP3    H254980   0.769   0.949  17.134  2.0996  1.0933 -3.6886
11189TIP3   OH254981   4.297   6.065  16.755 -0.3619  0.2311  0.4705
11189TIP3    H154982   4.232   6.006  16.717 -0.4007 -1.1093  2.4943
11189TIP3    H254983   4.269   6.152  16.726 -0.2674 -0.6580 -2.6390
11190TIP3   OH254984   5.206   0.701   4.202  0.6674  0.6331 -0.3224
11190TIP3    H154985   5.261   0.630   4.233  0.8178  1.3880  1.2609
11190TIP3    H254986   5.120   0.683   4.240  0.3307  0.5257 -1.1253
11191TIP3   OH254987   2.040   2.556  12.538  0.2633  0.6429 -0.0173
11191TIP3    H154988   2.112   2.493  12.533  1.5037  1.7620  2.0384
11191TIP3    H254989   1.961   2.502  12.543  1.2840 -0.8252  1.7772
11192TIP3   OH254990   6.059   0.872   1.276 -0.3204  0.0670 -0.3436
11192TIP3    H154991   6.019   0.830   1.200 -0.1651  0.3176 -0.5663
11192TIP3    H254992   6.088   0.958   1.244 -1.3706  0.6781  0.3142
11193TIP3   OH254993   1.684   4.744  12.901 -0.0156  0.5112  0.2213
11193TIP3    H154994   1.634   4.687  12.842  0.2344  1.2983 -0.7785
11193TIP3    H254995   1.761   4.692  12.924 -1.3856 -0.8333  2.0197
11194TIP3   OH254996   3.449   3.086  16.078  0.0389  0.0159  0.4036
11194TIP3    H154997   3.512   3.050  16.016  1.6867  1.4711  1.1380
11194TIP3    H254998   3.502   3.119  16.150 -1.4941  1.9450  0.7490
11195TIP3   OH254999   1.110   0.241   5.702 -0.2554  0.4948 -0.1786
11195TIP3    H155000   1.087   0.298   5.628  1.2518  1.6786  0.2078
11195TIP3    H255001   1.201   0.263   5.721  0.4630 -2.2008 -0.0956
11196TIP3   OH255002   3.549   1.664   5.528  0.1808  0.6291  0.0002
11196TIP3    H155003   3.466   1.710   5.513 -0.7723 -1.0256 -0.0535
11196TIP3    H255004   3.532   1.608   5.604  0.6846 -0.9869 -1.0312
11197TIP3   OH255005   6.458   4.397   2.866 -0.2415 -0.4898 -0.4371
11197TIP3    H155006   6.407   4.464   2.911 -1.0523 -1.8832  0.8318
11197TIP3    H255007   6.547   4.431   2.864 -0.8118  1.0491 -0.7502
11198TIP3   OH255008   2.194   3.118  15.691  0.6272 -0.6569 -0.0723
11198TIP3    H155009   2.154   3.032  15.677  0.1550 -0.3002 -1.0187
11198TIP3    H255010   2.266   3.122  15.629  2.0584 -1.2091  1.4766
11199TIP3   OH255011   2.775   6.517  16.825 -0.4014 -0.0780  0.2738
11199TIP3    H155012   2.702   6.455  16.824 -0.6708  0.2413 -0.7363
11199TIP3    H255013   2.741   6.592  16.873 -1.1745  0.5522 -1.1980
11200TIP3   OH255014   5.859   6.105   4.503 -0.5135 -0.3469  0.0856
11200TIP3    H155015   5.882   6.012   4.507  0.3179 -0.1307  0.6823
11200TIP3    H255016   5.773   6.107   4.461 -1.0461 -1.4687  1.0653
11201TIP3   OH255017   0.344   3.224   0.340  0.2148 -0.2411 -0.5474
11201TIP3    H155018   0.348   3.202   0.247  0.6732 -0.7087 -0.4196
11201TIP3    H255019   0.345   3.140   0.385  0.3658 -0.0051 -0.1028
11202TIP3   OH255020   1.117   1.625  14.163  0.0067 -0.1529  0.4395
11202TIP3    H155021   1.052   1.648  14.229 -1.4459  0.5649 -1.1495
11202TIP3    H255022   1.135   1.532  14.178 -0.8816 -0.1939  1.3359
11203TIP3   OH255023   0.520   5.447   4.466 -0.0290 -0.0258  0.6437
11203TIP3    H155024   0.505   5.464   4.372  0.7698 -2.6093 -0.0343
11203TIP3    H255025   0.476   5.519   4.510 -0.8349  1.0406 -1.7024
11204TIP3   OH255026   3.574   2.044   3.959 -0.6038  0.4066 -0.3020
11204TIP3    H155027   3.637   2.116   3.962  1.5731 -1.3809 -0.0205
11204TIP3    H255028   3.549   2.030   4.050 -1.7005  1.3025 -0.4428
11205TIP3   OH255029   5.358   1.526  12.415 -0.0822 -0.4596  0.0888
11205TIP3    H155030   5.317   1.465  12.353  0.9881 -0.9922 -0.1157
11205TIP3    H255031   5.310   1.608  12.403 -0.9775 -1.0116 -0.2546
11206TIP3   OH255032   6.186   2.692  11.311 -0.3063 -0.2100 -0.4922
11206TIP3    H155033   6.109   2.640  11.333  0.2859 -2.0874 -2.5426
11206TIP3    H255034   6.212   2.662  11.224  2.9465  0.0942  0.2443
11207TIP3   OH255035   1.642   5.511   3.591  0.4607  0.0475  0.0061
11207TIP3    H155036   1.573   5.570   3.560  0.8650  0.5183 -0.0146
11207TIP3    H255037   1.710   5.570   3.624 -0.2621 -0.3993  2.5388
11208TIP3   OH255038   5.567   3.445   3.397  0.0168  0.6516  0.7073
11208TIP3    H155039   5.524   3.470   3.315  0.8050  1.9430  0.6655
11208TIP3    H255040   5.544   3.353   3.408  0.6642  0.1717 -1.4604
11209TIP3   OH255041   4.525   2.416   6.559  0.1030 -0.6537 -0.1614
11209TIP3    H155042   4.573   2.494   6.588 -2.1462  0.6019  0.4358
11209TIP3    H255043   4.491   2.378   6.640 -1.9584 -0.0415 -0.6687
11210TIP3   OH255044   3.251   6.567  17.081 -0.5459 -0.2948  0.2780
11210TIP3    H155045   3.294   6.595  17.000 -0.7952 -0.8511 -0.0561
11210TIP3    H255046   3.166   6.610  17.079 -0.3642  0.0753  0.4836
11211TIP3   OH255047   4.178   3.545  13.798  0.0035  0.8942 -0.2408
11211TIP3    H155048   4.139   3.466  13.761 -0.3183  0.4051  1.0760
11211TIP3    H255049   4.134   3.617  13.754 -0.4338  0.3405 -0.7210
11212TIP3   OH255050   4.884   6.339   1.063  0.0125 -0.1876  0.3092
11212TIP3    H155051   4.927   6.340   0.978 -1.5637 -0.2715 -0.5241
11212TIP3    H255052   4.878   6.432   1.088  0.0516 -0.1276  0.0962
11213TIP3   OH255053   3.209   3.562  16.849  0.3775 -0.0970  0.2885
11213TIP3    H155054   3.225   3.649  16.813  0.0778 -0.2812 -0.3142
11213TIP3    H255055   3.290   3.514  16.835  0.1510 -0.2742 -0.4859
11214TIP3   OH255056   3.703   0.883  11.904 -0.9017 -0.0912 -0.1357
11214TIP3    H155057   3.739   0.971  11.893 -0.2905 -0.5813 -2.6640
11214TIP3    H255058   3.700   0.870  11.998  0.5008  2.0199  0.2675
11215TIP3   OH255059   4.670   1.994  17.087 -0.0924 -0.0876 -0.1443
11215TIP3    H155060   4.703   2.069  17.037 -1.4545 -0.8261 -2.2702
11215TIP3    H255061   4.741   1.975  17.149  1.9509  0.5659 -2.1285
11216TIP3   OH255062   4.687   5.053   5.984  0.0786 -0.6813  0.0122
11216TIP3    H155063   4.630   4.977   5.972 -1.0436  0.3658 -1.5783
11216TIP3    H255064   4.642   5.107   6.049  0.1482 -0.6558  0.0398
11217TIP3   OH255065   1.617   1.490   6.036 -0.2474  0.3842 -0.1319
11217TIP3    H155066   1.522   1.490   6.038 -0.2579 -0.8103  0.3620
11217TIP3    H255067   1.642   1.580   6.056 -1.2676  0.5371  0.5174
11218TIP3   OH255068   5.372   1.104   0.316  0.1560  0.0146 -1.0996
11218TIP3    H155069   5.388   1.174   0.253  0.3284 -0.1255 -1.2138
11218TIP3    H255070   5.349   1.029   0.262  0.3292 -0.1128 -0.9971
11219TIP3   OH255071   5.856   0.022  16.372  0.4457  0.0955 -0.4474
11219TIP3    H155072   5.915  -0.045  16.405 -0.3662  0.1632  1.2542
11219TIP3    H255073   5.793  -0.026  16.318  0.5911 -0.3454 -0.2301
11220TIP3   OH255074   4.666   4.637   3.600  0.4755  0.8580 -0.1999
11220TIP3    H155075   4.578   4.606   3.580  0.8998  1.0382 -2.6237
11220TIP3    H255076   4.688   4.697   3.529  1.7989  2.4339  1.4445
11221TIP3   OH255077   4.971   2.293  11.013  0.2409  0.0762 -0.0813
11221TIP3    H155078   4.921   2.314  11.092  0.0538 -1.0071  0.1033
11221TIP3    H255079   4.991   2.378  10.974 -2.2283  0.5406 -0.4759
11222TIP3   OH255080   2.793   0.233  15.053  0.2954 -0.3360  0.3314
11222TIP3    H155081   2.755   0.176  15.120 -1.0118 -0.8837 -0.8351
11222TIP3    H255082   2.720   0.253  14.995  1.3148  0.4617 -0.6999
11223TIP3   OH255083   1.038   3.141  13.142  0.3009 -0.1941 -0.5410
11223TIP3    H155084   1.004   3.227  13.116 -0.3786  0.2076  1.4519
11223TIP3    H255085   0.965   3.081  13.129  0.3197 -0.2052 -0.5958
11224TIP3   OH255086   1.864   0.430   6.891 -0.0425 -0.1999 -0.2656
11224TIP3    H155087   1.843   0.501   6.951  0.2813 -0.4098  0.0983
11224TIP3    H255088   1.782   0.412   6.845 -0.3020 -0.0729  0.1467
11225TIP3   OH255089   4.051   1.894   5.329 -0.1977 -0.0007 -0.3407
11225TIP3    H155090   3.967   1.939   5.344 -0.0943  0.6038 -1.4822
11225TIP3    H255091   4.112   1.965   5.309  0.5336 -0.4694  0.2029
11226TIP3   OH255092   6.006   0.019   3.670 -0.2714  0.8066 -0.2997
11226TIP3    H155093   6.069   0.052   3.606  0.8271 -1.2519 -0.3720
11226TIP3    H255094   6.050  -0.056   3.710 -2.3282 -0.1441  0.3002
11227TIP3   OH255095   3.509   4.386  15.332  0.2452  0.3611  0.5181
11227TIP3    H155096   3.580   4.393  15.396 -1.0338  1.7533  1.8593
11227TIP3    H255097   3.493   4.292  15.325  1.6263  0.0694  0.8230
11228TIP3   OH255098   2.531   5.066   1.982 -0.2798 -0.6490  1.1035
11228TIP3    H155099   2.557   4.977   1.960  2.3754  0.7210 -2.1071
11228TIP3    H255100   2.592   5.092   2.052  0.9665 -0.4355 -0.0352
11229TIP3   OH255101   1.228   1.749   1.793 -0.1994  0.6251  0.3381
11229TIP3    H155102   1.272   1.698   1.860  0.0470  0.3814 -0.0026
11229TIP3    H255103   1.192   1.683   1.733  0.5537  0.8508 -0.3781
11230TIP3   OH255104   6.123   5.448   4.439  0.8524  0.0136 -0.3208
11230TIP3    H155105   6.209   5.408   4.421  0.3378 -1.9826  1.2940
11230TIP3    H255106   6.079   5.448   4.354  2.3706  0.9274 -1.1474
11231TIP3   OH255107   1.977   2.211   4.452  0.1225  0.0008  0.1416
11231TIP3    H155108   1.912   2.257   4.506 -0.2630  0.1419 -0.4404
11231TIP3    H255109   1.980   2.123   4.490 -0.5042 -0.0447  0.1030
11232TIP3   OH255110   6.014   2.630  15.194  0.1077 -0.2794  0.3213
11232TIP3    H155111   6.012   2.623  15.098 -0.7092  0.2435  0.2896
11232TIP3    H255112   5.974   2.715  15.212  0.5288 -0.2481  1.1187
11233TIP3   OH255113   0.261   0.324  12.627 -0.9338  0.2713  0.0331
11233TIP3    H155114   0.305   0.245  12.658 -0.2695  1.5646  2.6633
11233TIP3    H255115   0.187   0.292  12.575 -0.4443 -2.0647  0.6791
11234TIP3   OH255116   5.606   3.389  15.597 -0.0927 -0.3580 -0.3079
11234TIP3    H155117   5.622   3.480  15.572  0.1771 -0.4297 -0.4021
11234TIP3    H255118   5.568   3.395  15.685  1.0730 -0.1996  0.2144
11235TIP3   OH255119   1.561   5.160  13.738 -0.1592 -0.0839  0.0970
11235TIP3    H155120   1.631   5.221  13.762  1.5398 -1.4553 -1.1682
11235TIP3    H255121   1.487   5.187  13.792  0.7880  2.5203  0.2435
11236TIP3   OH255122   1.710   3.076  11.790  0.0933 -0.0611  0.3431
11236TIP3    H155123   1.764   3.155  11.790 -1.3644  0.9857 -0.6704
11236TIP3    H255124   1.710   3.046  11.699  0.6179 -1.2551  0.7124
11237TIP3   OH255125   3.768   6.172   4.516 -0.0953  0.6345 -0.3135
11237TIP3    H155126   3.732   6.140   4.599 -1.7216  1.3636 -0.6905
11237TIP3    H255127   3.860   6.190   4.535  1.0667 -4.1217 -0.0452
11238TIP3   OH255128   1.827   2.495   5.683 -1.1599  0.1056  0.8314
11238TIP3    H155129   1.743   2.540   5.673 -0.8059  0.4207 -1.3416
11238TIP3    H255130   1.809   2.404   5.658 -0.5247  0.5878 -1.6007
11239TIP3   OH255131   3.217   3.016  14.256 -0.3454 -0.5867  0.2130
11239TIP3    H155132   3.210   2.960  14.179 -0.0419 -0.5455  0.1533
11239TIP3    H255133   3.239   3.103  14.222  1.2843 -0.8833  0.4169
11240TIP3   OH255134   6.330   2.367   5.883  0.9570 -0.3066  0.4924
11240TIP3    H155135   6.376   2.451   5.877 -1.4543  1.0342 -0.5519
11240TIP3    H255136   6.290   2.367   5.970 -0.0768  0.2283  0.0290
11241TIP3   OH255137   2.138   3.040  12.872 -0.5550  0.8774  0.1822
11241TIP3    H155138   2.230   3.062  12.888 -0.6390  0.3417  1.4634
11241TIP3    H255139   2.103   3.118  12.828  0.3787  1.2870  0.1328
11242TIP3   OH255140   1.663   0.424   4.703 -0.2704 -0.0620  0.0246
11242TIP3    H155141   1.655   0.381   4.788  0.2419  1.5608  0.9479
11242TIP3    H255142   1.619   0.509   4.714  0.2452  0.3905 -1.1610
11243TIP3   OH255143   6.598   1.678   4.638  0.2840  0.1758 -0.1223
11243TIP3    H155144   6.648   1.756   4.615  1.5065 -0.6448 -0.3678
11243TIP3    H255145   6.514   1.711   4.668  1.0591  1.6344  0.5516
11244TIP3   OH255146   3.533   3.731  16.020  0.1938 -0.1054  0.0303
11244TIP3    H155147   3.627   3.721  16.008  0.4406  0.8143  1.0127
11244TIP3    H255148   3.498   3.642  16.021  1.3719 -0.5929  1.9651
11245TIP3   OH255149   0.535   0.548   4.085 -0.4704  0.1552 -0.1284
11245TIP3    H155150   0.512   0.610   4.015  1.5081  1.4231  0.2825
11245TIP3    H255151   0.532   0.462   4.042 -3.1660  0.4642 -0.7380
11246TIP3   OH255152   4.140   2.834   1.291  0.6147  0.7049  0.0618
11246TIP3    H155153   4.099   2.751   1.316 -1.8859  1.5251 -0.9497
11246TIP3    H255154   4.131   2.889   1.369 -1.1334  1.1535 -0.4121
11247TIP3   OH255155   6.642   3.530  13.570 -0.1472 -0.5547  0.1832
11247TIP3    H155156   6.658   3.621  13.595 -1.5017  0.3040 -1.8068
11247TIP3    H255157   6.711   3.510  13.506  0.5970 -1.2062  1.1686
11248TIP3   OH255158   2.018   5.851   1.660  0.2704  0.3593 -0.3233
11248TIP3    H155159   1.949   5.883   1.719 -1.3227 -2.1621 -0.6851
11248TIP3    H255160   2.100   5.871   1.705 -0.7788  1.3098  1.2419
11249TIP3   OH255161   3.149   2.754   2.150 -0.0968  0.2954 -0.1427
11249TIP3    H155162   3.129   2.842   2.181  0.9885  0.1877  0.9499
11249TIP3    H255163   3.226   2.765   2.093 -0.3843  0.1338 -0.5682
11250TIP3   OH255164   1.110   3.043  15.891  0.5121 -0.8946  0.4524
11250TIP3    H155165   1.188   3.002  15.853  1.0470  0.2851  0.2272
11250TIP3    H255166   1.145   3.102  15.958  0.0607  1.5087 -1.2929
11251TIP3   OH255167   4.928   5.962   4.032  0.5861 -0.1691 -0.4557
11251TIP3    H155168   4.964   5.992   4.116 -0.0331 -0.8730  0.0819
11251TIP3    H255169   4.834   5.953   4.048  0.6094 -1.3711 -0.8895
11252TIP3   OH255170   4.093   3.627  14.830 -0.2575  0.6878  0.5992
11252TIP3    H155171   4.179   3.614  14.870 -0.8613 -2.4234  1.0897
11252TIP3    H255172   4.060   3.539  14.814 -1.5270  1.7006 -3.7070
11253TIP3   OH255173   6.235   5.478   0.878 -0.0108 -0.2057  0.0866
11253TIP3    H155174   6.205   5.553   0.826 -2.8320  0.1068  1.9723
11253TIP3    H255175   6.162   5.416   0.875  1.5069 -2.0897  0.1543
11254TIP3   OH255176   1.851   5.978  17.063 -0.3803  0.1261 -0.3796
11254TIP3    H155177   1.839   5.935  16.978 -1.7112 -1.5437  0.5800
11254TIP3    H255178   1.765   6.016  17.082 -0.4247 -0.4609  0.6828
11255TIP3   OH255179   6.508   2.267  13.721  0.2992  0.3360 -0.6078
11255TIP3    H155180   6.518   2.355  13.685 -0.4139 -0.3524 -2.6760
11255TIP3    H255181   6.419   2.265  13.756  0.2848  0.4323 -0.6389
11256TIP3   OH255182   2.120   6.468   2.556  0.1177 -0.1521  0.5168
11256TIP3    H155183   2.052   6.454   2.490  1.4356 -0.1380 -0.9114
11256TIP3    H255184   2.153   6.380   2.576 -0.2271 -0.1498  1.1223
11257TIP3   OH255185   4.047   4.728   5.306  0.7966 -0.4169  0.0602
11257TIP3    H155186   4.094   4.738   5.388  0.2723  1.0211  0.2106
11257TIP3    H255187   4.063   4.809   5.258 -0.7768 -0.2505 -0.2562
11258TIP3   OH255188   6.739   5.981  14.983  0.4623 -0.5858  0.2957
11258TIP3    H155189   6.676   6.012  15.048 -0.8823 -0.6952 -0.9045
11258TIP3    H255190   6.694   5.992  14.900  3.6867  3.8708 -1.2385
11259TIP3   OH255191   3.386   5.338   0.014 -0.7453  0.0545 -0.3842
11259TIP3    H155192   3.298   5.374   0.005 -0.3211  1.0789 -0.6013
11259TIP3    H255193   3.420   5.378   0.094  0.2664  1.3156 -1.4063
11260TIP3   OH255194   6.315   1.853   0.166 -0.7004  0.0716 -0.6289
11260TIP3    H155195   6.367   1.859   0.246  1.4208  2.0423 -2.0349
11260TIP3    H255196   6.368   1.799   0.107 -1.0524  0.6898 -1.5255
11261TIP3   OH255197   2.266   5.436   5.930  0.1574 -0.5034 -0.1015
11261TIP3    H155198   2.209   5.381   5.983 -0.9176  1.6180  1.0853
11261TIP3    H255199   2.327   5.476   5.992 -0.5563  1.3564 -0.5357
11262TIP3   OH255200   0.835   1.423  16.060 -0.0925 -0.7172  0.0097
11262TIP3    H155201   0.898   1.369  16.106 -0.8384 -1.1677  0.5296
11262TIP3    H255202   0.827   1.383  15.973  0.2521 -0.7192 -0.0214
11263TIP3   OH255203   1.419   6.433   5.711  0.1490 -0.5422 -0.0462
11263TIP3    H155204   1.435   6.516   5.756  0.1069  0.1222 -1.2010
11263TIP3    H255205   1.473   6.438   5.632 -2.5525  0.0481 -2.0369
11264TIP3   OH255206   0.139   2.440   0.885  0.0033 -0.0963  0.0399
11264TIP3    H155207   0.191   2.470   0.810  0.9207  1.4410  1.2308
11264TIP3    H255208   0.194   2.376   0.929 -1.0384 -1.9598 -1.2242
11265TIP3   OH255209   4.420   2.815   1.283  0.6740  0.3722 -0.1303
11265TIP3    H155210   4.337   2.848   1.319  0.7530  0.0472  0.3644
11265TIP3    H255211   4.476   2.892   1.276 -0.0544  0.7920 -1.5674
11266TIP3   OH255212   5.246   0.355  13.036 -0.1408 -0.1197  0.4290
11266TIP3    H155213   5.200   0.386  12.958  0.4648 -1.1532 -0.3547
11266TIP3    H255214   5.177   0.344  13.101 -0.6265  0.9625  0.1294
11267TIP3   OH255215   4.885   5.778   2.715 -0.7273  0.2564  0.3575
11267TIP3    H155216   4.972   5.753   2.683  0.7310  3.2685  1.5448
11267TIP3    H255217   4.849   5.833   2.646 -0.5323  1.1599  0.9654
11268TIP3   OH255218   2.688   2.213  12.198 -0.3624  0.5725  0.0622
11268TIP3    H155219   2.665   2.136  12.248  0.4882 -0.2809 -0.8017
11268TIP3    H255220   2.716   2.277  12.263  0.5570 -0.4471  0.6952
11269TIP3   OH255221   2.040   3.767  17.102 -0.1186  0.0310  0.5328
11269TIP3    H155222   1.960   3.753  17.153 -0.6400 -0.7318 -0.4367
11269TIP3    H255223   2.099   3.813  17.161 -1.0794  0.1262  1.4545
11270TIP3   OH255224   5.072   2.894  15.395 -0.4795 -0.0875  0.0731
11270TIP3    H155225   5.029   2.902  15.480  0.2220 -1.5156  0.5999
11270TIP3    H255226   5.081   2.985  15.364 -1.3365  0.4101  1.2062
11271TIP3   OH255227   6.336   6.327  15.390  0.2027 -0.2266 -0.3686
11271TIP3    H155228   6.392   6.296  15.461  0.3867 -0.2402 -0.5187
11271TIP3    H255229   6.341   6.258  15.324  0.3054 -0.0563 -0.5401
11272TIP3   OH255230   1.928   3.075   0.060  0.0211 -0.4369  0.4365
11272TIP3    H155231   1.969   3.142   0.005 -1.6787 -1.4688 -2.3199
11272TIP3    H255232   2.001   3.023   0.093  1.1484 -0.1603 -1.4698
11273TIP3   OH255233   1.159   4.952   4.580  0.3710  0.5203 -0.1996
11273TIP3    H155234   1.201   4.969   4.664  0.4217 -1.4649  0.2482
11273TIP3    H255235   1.229   4.963   4.515  0.3574  1.9610  0.0174
11274TIP3   OH255236   3.869   6.468  14.696  0.0353  0.1187 -0.3078
11274TIP3    H155237   3.892   6.505  14.611 -0.0041  0.5248 -0.1449
11274TIP3    H255238   3.777   6.443  14.687 -0.1598  0.7649 -0.1825
11275TIP3   OH255239   3.673   1.813  12.261  0.0400  0.0842 -0.2194
11275TIP3    H155240   3.630   1.744  12.211 -0.7185  0.5013 -0.1582
11275TIP3    H255241   3.713   1.870  12.195 -1.6014  1.0557 -0.4231
11276TIP3   OH255242   1.664   6.056  14.421  0.6857  0.2372 -0.3351
11276TIP3    H155243   1.630   5.987  14.478  1.3665  0.0347 -0.1680
11276TIP3    H255244   1.613   6.134  14.444 -1.2720 -0.5508 -1.6785
11277TIP3   OH255245   3.248   2.575   2.921  0.0677 -0.0801  0.0946
11277TIP3    H155246   3.278   2.650   2.973 -1.8061 -0.5057  1.9323
11277TIP3    H255247   3.328   2.538   2.884  1.1863  1.9220  0.3866
11278TIP3   OH255248   3.961   0.018   4.709 -0.0612 -0.2595  0.3036
11278TIP3    H155249   4.018   0.091   4.684  0.8564 -1.3859 -1.0871
11278TIP3    H255250   3.894   0.058   4.764  0.9769  1.4492  0.4254
11279TIP3   OH255251   2.847   0.337   4.856 -0.3359  0.1475  0.0818
11279TIP3    H155252   2.906   0.384   4.915  0.1688 -1.0340  0.5473
11279TIP3    H255253   2.856   0.382   4.772  2.1943 -0.7199 -0.1991
11280TIP3   OH255254   4.696   2.639  13.300 -0.3686  0.3929 -0.2510
11280TIP3    H155255   4.620   2.588  13.273 -0.8432  0.6308  0.5659
11280TIP3    H255256   4.689   2.642  13.396  0.0942  1.3024 -0.2370
11281TIP3   OH255257   6.734   2.354  12.567  0.3528  0.0150  0.2077
11281TIP3    H155258   6.708   2.337  12.476  2.3595  1.3658 -0.6909
11281TIP3    H255259   6.731   2.269  12.609  0.6307 -0.8734 -1.4875
11282TIP3   OH255260   5.854   5.414  11.120  0.1788 -0.8194 -0.3297
11282TIP3    H155261   5.788   5.461  11.068 -0.6961 -1.2918  0.3238
11282TIP3    H255262   5.922   5.391  11.057  0.5066  1.0593 -0.7409
11283TIP3   OH255263   6.245   2.335   4.243  0.2900 -0.8794 -0.1822
11283TIP3    H155264   6.240   2.394   4.318  0.3321  0.1585 -0.9723
11283TIP3    H255265   6.330   2.353   4.204  1.1490 -2.8610  0.6425
11284TIP3   OH255266   6.539   5.792  13.506  0.6507  0.3183 -0.2771
11284TIP3    H155267   6.594   5.758  13.435  0.2109 -0.8110 -0.0967
11284TIP3    H255268   6.539   5.722  13.572 -1.1135  0.2339 -0.3354
11285TIP3   OH255269   4.493   2.448   5.452 -0.7510 -0.0206  0.0680
11285TIP3    H155270   4.502   2.359   5.418 -0.6479 -0.4339  1.1373
11285TIP3    H255271   4.407   2.477   5.422 -0.6601 -0.3695 -0.5386
11286TIP3   OH255272   2.108   1.548   3.285  0.5791 -0.4103  0.9794
11286TIP3    H155273   2.127   1.631   3.328  0.8476 -0.0517  0.1780
11286TIP3    H255274   2.150   1.554   3.200  1.2324 -1.6566  1.1755
11287TIP3   OH255275   3.283   3.972   5.296  0.2337  0.0542  1.2960
11287TIP3    H155276   3.290   3.937   5.385 -0.8205  1.1714  1.8462
11287TIP3    H255277   3.250   3.898   5.245  0.9561 -0.6356  1.7966
11288TIP3   OH255278   6.430   2.824   2.169  0.1241  0.3028  0.7364
11288TIP3    H155279   6.521   2.845   2.189  0.5568 -0.2447 -0.5492
11288TIP3    H255280   6.378   2.887   2.220  1.0880 -1.0936  3.6652
11289TIP3   OH255281   5.525   2.555   2.560 -0.0664 -0.0383  0.7483
11289TIP3    H155282   5.478   2.520   2.484  0.1361  0.3366  0.4468
11289TIP3    H255283   5.474   2.633   2.585  0.3276  0.3117  0.4830
11290TIP3   OH255284   6.088   4.710  15.897 -0.3046 -0.3750 -0.0530
11290TIP3    H155285   6.128   4.623  15.906  1.6919  0.2080 -2.2538
11290TIP3    H255286   6.160   4.771  15.912 -1.8942  1.0200  2.4921
11291TIP3   OH255287   5.887   1.318   4.301 -0.3061 -0.5682 -0.4927
11291TIP3    H155288   5.803   1.284   4.271 -0.7137 -0.5500  0.5575
11291TIP3    H255289   5.945   1.243   4.304 -0.7031 -0.8632  0.1301
11292TIP3   OH255290   5.130   5.792  11.697 -0.0331  0.3811 -0.6380
11292TIP3    H155291   5.159   5.790  11.788  0.1099 -0.6285 -0.7004
11292TIP3    H255292   5.179   5.722  11.654  1.4687  2.1479 -1.9841
11293TIP3   OH255293   1.745   2.301   4.582  0.0764  0.2775  0.1024
11293TIP3    H155294   1.743   2.205   4.587 -0.3547  0.3366  1.4504
11293TIP3    H255295   1.674   2.323   4.521  1.9287 -0.3305 -2.4367
11294TIP3   OH255296   0.417   2.549  14.797  0.1504 -0.0871 -0.4460
11294TIP3    H155297   0.512   2.541  14.805  0.3689  2.9643  1.4542
11294TIP3    H255298   0.402   2.571  14.705  1.3392  0.0117 -0.6201
11295TIP3   OH255299   5.373   0.449   2.776 -0.1574  0.1323 -0.0869
11295TIP3    H155300   5.340   0.360   2.775  1.4653 -0.5329  1.2530
11295TIP3    H255301   5.336   0.488   2.856 -1.1247  0.7959 -0.8324
11296TIP3   OH255302   2.316   6.219   2.211  0.4397  0.1389  0.4798
11296TIP3    H155303   2.294   6.271   2.134 -2.2511 -0.2363  0.9043
11296TIP3    H255304   2.349   6.283   2.274  1.1411  0.6736 -0.4040
11297TIP3   OH255305   4.793   0.848   1.193  0.4511 -0.7198  0.1100
11297TIP3    H155306   4.882   0.857   1.160 -0.0320  1.5338 -0.7757
11297TIP3    H255307   4.742   0.910   1.141 -1.2696 -0.5437  1.8946
11298TIP3   OH255308   2.750   4.839   4.347 -0.3994  0.5988  0.3563
11298TIP3    H155309   2.718   4.897   4.416 -0.8620  2.0540 -1.0150
11298TIP3    H255310   2.729   4.885   4.265  1.1826 -0.5059 -0.7359
11299TIP3   OH255311   3.716   2.846   5.539 -0.5633  0.4351 -0.6103
11299TIP3    H155312   3.806   2.826   5.563 -0.9587 -0.5198  0.1266
11299TIP3    H255313   3.672   2.865   5.621 -1.4275 -0.7919 -0.7560
11300TIP3   OH255314   2.035   1.268   5.858 -0.1069 -0.5757 -0.1270
11300TIP3    H155315   1.959   1.301   5.906 -0.4759 -2.1571  0.4427
11300TIP3    H255316   2.094   1.235   5.926 -0.3129 -2.1788 -0.6731
11301TIP3   OH255317   3.323   4.495  13.769 -0.5412 -1.0398  0.6112
11301TIP3    H155318   3.266   4.567  13.742 -0.5888 -1.0134  0.7809
11301TIP3    H255319   3.325   4.501  13.865 -0.6517 -1.3467  0.6323
11302TIP3   OH255320   0.784   0.502  16.074  0.0450  0.1031 -0.3220
11302TIP3    H155321   0.695   0.468  16.081  0.8265 -1.9035  0.8799
11302TIP3    H255322   0.826   0.445  16.009  0.6798  0.4708 -0.2412
11303TIP3   OH255323   5.090   1.810   0.407  0.0749 -0.8830  0.2800
11303TIP3    H155324   5.134   1.814   0.322 -0.4896  1.0460  0.0118
11303TIP3    H255325   5.043   1.893   0.412  1.9624  0.1422  3.4811
11304TIP3   OH255326   0.626   6.311   2.584 -0.3124 -0.2228 -0.2780
11304TIP3    H155327   0.581   6.252   2.645  0.3899 -0.5243 -0.0434
11304TIP3    H255328   0.644   6.257   2.507  0.6900 -0.4427  0.0948
11305TIP3   OH255329   0.182   3.437   5.895 -0.1156  0.4858 -0.1237
11305TIP3    H155330   0.238   3.464   5.967 -1.8639  0.2628  1.4153
11305TIP3    H255331   0.177   3.342   5.903 -0.7749  0.5124 -0.1627
11306TIP3   OH255332   5.067   3.861   2.963 -0.2010  0.0794  0.0422
11306TIP3    H155333   5.038   3.945   2.998 -0.2400  0.5350 -1.0347
11306TIP3    H255334   5.146   3.840   3.013 -1.5236 -0.4864  2.0386
11307TIP3   OH255335   5.375   0.801   2.723  0.2944 -0.1642 -0.0456
11307TIP3    H155336   5.294   0.852   2.716  0.7879  0.6127 -0.2646
11307TIP3    H255337   5.368   0.735   2.654 -0.3113 -0.3418  0.1799
11308TIP3   OH255338   4.950   5.388  11.795  0.7069  0.4229 -0.0404
11308TIP3    H155339   4.932   5.380  11.702 -0.8803  0.2216  0.2640
11308TIP3    H255340   4.902   5.466  11.823  0.0204 -0.3079  0.8715
11309TIP3   OH255341   2.870   4.192   4.155  0.5034 -0.3119 -0.0947
11309TIP3    H155342   2.878   4.123   4.089 -0.3352 -0.3076 -0.2211
11309TIP3    H255343   2.959   4.205   4.188  0.6876 -1.3967 -0.1260
11310TIP3   OH255344   6.661   0.944   1.440 -0.5356  0.5465  0.0637
11310TIP3    H155345   6.744   0.913   1.478  0.0106  1.9396  0.0509
11310TIP3    H255346   6.607   0.865   1.434  0.3274 -0.1689  1.2592
11311TIP3   OH255347   1.352   0.877  16.827  0.3027 -0.2486  0.1642
11311TIP3    H155348   1.365   0.939  16.899 -0.7299  0.7266 -0.4556
11311TIP3    H255349   1.272   0.829  16.850  2.2597 -3.0674  1.7692
11312TIP3   OH255350   1.839   1.454   6.534 -0.0700 -0.0559  0.1765
11312TIP3    H155351   1.896   1.464   6.610 -1.5098 -1.3821  1.5141
11312TIP3    H255352   1.872   1.376   6.489  0.5575  0.5174 -0.3768
11313TIP3   OH255353   0.222   5.748  12.412 -0.4941 -0.2548 -0.0934
11313TIP3    H155354   0.197   5.830  12.454 -3.8329  0.1928 -2.5967
11313TIP3    H255355   0.259   5.774  12.328 -1.4990 -1.2505 -0.8793
11314TIP3   OH255356   6.137   4.289   5.379  0.7864 -0.5865 -0.1815
11314TIP3    H155357   6.210   4.272   5.438  0.3582  0.7376  0.7709
11314TIP3    H255358   6.150   4.380   5.351 -2.8043  1.3740  3.5375
11315TIP3   OH255359   2.769   2.441  15.930  0.9280  0.1666  0.0926
11315TIP3    H155360   2.753   2.534  15.946 -0.2211 -0.5506  4.5157
11315TIP3    H255361   2.685   2.407  15.902  1.0557  0.2791 -0.4281
11316TIP3   OH255362   4.636   2.360   5.916  0.1525 -0.4143  0.1385
11316TIP3    H155363   4.594   2.292   5.968  1.1348 -0.5302  0.8030
11316TIP3    H255364   4.729   2.353   5.938  0.3227  0.8539 -0.1179
11317TIP3   OH255365   3.961   3.003  14.599  0.2360  0.7536  0.4717
11317TIP3    H155366   3.975   3.097  14.584  2.7839  0.9768  3.2199
11317TIP3    H255367   3.918   2.999  14.685  0.0933 -0.5769  0.3557
11318TIP3   OH255368   3.777   5.446   2.417  0.2250 -0.6477 -0.4980
11318TIP3    H155369   3.699   5.394   2.397 -0.3528  0.5671 -1.5958
11318TIP3    H255370   3.743   5.531   2.443  1.1562 -0.7330  1.0915
11319TIP3   OH255371   0.849   3.478   1.651  0.3448 -0.1144  0.4212
11319TIP3    H155372   0.918   3.516   1.705 -0.2800  0.2135  1.0179
11319TIP3    H255373   0.882   3.392   1.627  1.0368  0.1122  0.5367
11320TIP3   OH255374   1.962   1.573  16.103  0.4529  0.0159 -0.0282
11320TIP3    H155375   1.926   1.543  16.020  0.0795  2.2123 -0.7172
11320TIP3    H255376   1.886   1.586  16.159  0.7295 -1.8675  0.8602
11321TIP3   OH255377   4.781   4.415  16.709  0.1417  0.2166 -0.2436
11321TIP3    H155378   4.770   4.426  16.804  3.1071 -2.0314  0.4807
11321TIP3    H255379   4.860   4.464  16.688  1.7248 -2.3528 -0.7280
11322TIP3   OH255380   4.807   2.184   4.100  0.3184 -0.1355 -0.1241
11322TIP3    H155381   4.893   2.215   4.129  0.0869  1.4025 -0.9881
11322TIP3    H255382   4.790   2.231   4.018 -0.3118 -2.2093 -1.2362
11323TIP3   OH255383   5.138   5.608  14.122 -0.0143  0.3347 -0.0022
11323TIP3    H155384   5.061   5.661  14.106 -0.2614  0.4154  1.3560
11323TIP3    H255385   5.208   5.671  14.137  0.6125  0.2850 -2.2559
11324TIP3   OH255386   5.112   0.902   3.514 -0.1232  0.3451  0.3668
11324TIP3    H155387   5.056   0.888   3.591 -0.4234 -0.3585  0.0319
11324TIP3    H255388   5.063   0.963   3.460 -0.5419 -0.2103  0.1104
11325TIP3   OH255389   0.173   2.446   4.124 -0.4254 -0.3646  0.5385
11325TIP3    H155390   0.198   2.535   4.150  1.4634 -0.6725 -0.1307
11325TIP3    H255391   0.087   2.457   4.082  0.1062  1.2676 -0.2147
11326TIP3   OH255392   2.626   5.314  11.690 -0.5520 -0.2480  0.0293
11326TIP3    H155393   2.594   5.401  11.665  2.3187  1.2054  0.9311
11326TIP3    H255394   2.667   5.280  11.611  0.8575  0.5433  0.3815
11327TIP3   OH255395   1.712   3.186   4.565  1.0013 -0.3790  0.0534
11327TIP3    H155396   1.739   3.101   4.530  0.9549 -1.3614  2.2215
11327TIP3    H255397   1.630   3.206   4.520  0.2636 -2.2070  0.5055
11328TIP3   OH255398   3.108   6.164   1.980  0.4320  0.6393 -0.1036
11328TIP3    H155399   3.081   6.108   2.053  0.0223 -0.9896 -1.4676
11328TIP3    H255400   3.122   6.250   2.021  1.5061 -0.5030  2.1284
11329TIP3   OH255401   1.402   4.562  13.558  0.1311 -0.1015  0.1163
11329TIP3    H155402   1.362   4.481  13.527 -1.1900 -0.2931  2.1201
11329TIP3    H255403   1.459   4.534  13.629 -0.2675  0.6960  0.7656
11330TIP3   OH255404   0.031   6.392  17.289  0.3860  0.2113  0.3555
11330TIP3    H155405   0.003   6.362  17.203 -1.4268  3.2853 -0.2826
11330TIP3    H255406   0.114   6.347  17.304 -0.6600 -2.6654 -1.6215
11331TIP3   OH255407   5.621   5.566  13.421  0.1887  0.0888 -0.1874
11331TIP3    H155408   5.715   5.588  13.417 -0.1713  1.5520 -2.5759
11331TIP3    H255409   5.616   5.477  13.386  0.7499 -0.3291  0.7533
11332TIP3   OH255410   6.314   0.409   6.374 -0.2204  0.1634  0.0013
11332TIP3    H155411   6.351   0.410   6.286 -1.2757 -0.1618 -0.4527
11332TIP3    H255412   6.221   0.428   6.362  0.2217  4.2400  1.4129
11333TIP3   OH255413   5.792   6.713  14.884  0.0213 -0.3936  0.2858
11333TIP3    H155414   5.828   6.759  14.807  1.5142 -0.8073  0.7080
11333TIP3    H255415   5.715   6.667  14.851  0.4808 -0.3359 -0.9008
11334TIP3   OH255416   6.422   5.672  12.629 -0.7792 -0.0007 -0.5913
11334TIP3    H155417   6.496   5.618  12.658 -0.6716  0.8045  0.7181
11334TIP3    H255418   6.458   5.760  12.618 -1.8761  0.9288  2.1930
11335TIP3   OH255419   1.706   2.637  12.602  0.1776 -0.0818 -0.4826
11335TIP3    H155420   1.787   2.589  12.622  0.4065  0.4687 -0.0482
11335TIP3    H255421   1.636   2.580  12.634  0.3893 -0.5119 -0.7585
11336TIP3   OH255422   3.252   1.241  11.458 -0.3809  0.2660  0.6628
11336TIP3    H155423   3.341   1.276  11.465 -0.8225  2.0890 -1.6144
11336TIP3    H255424   3.264   1.147  11.446  1.3619  0.6352 -0.9172
11337TIP3   OH255425   3.847   6.698   4.476  0.4229 -0.8778  0.1911
11337TIP3    H155426   3.921   6.710   4.535  0.0363  1.0037  0.3635
11337TIP3    H255427   3.773   6.735   4.523 -0.5242 -2.2082 -0.2212
11338TIP3   OH255428   6.469   0.841  14.931 -0.2103  0.3392  0.6389
11338TIP3    H155429   6.488   0.900  15.004 -1.0074  2.2018 -0.5838
11338TIP3    H255430   6.550   0.839  14.880  0.1159 -0.3945  1.1708
11339TIP3   OH255431   4.013   5.291   4.369  0.0422 -0.1501 -0.0095
11339TIP3    H155432   4.031   5.247   4.453  0.4833 -2.1269 -1.0834
11339TIP3    H255433   3.933   5.250   4.337  0.7404 -0.5892 -1.2797
11340TIP3   OH255434   1.755   4.678   3.968 -0.0848  0.2713  0.5016
11340TIP3    H155435   1.716   4.741   3.908 -2.0252 -3.3482 -2.4526
11340TIP3    H255436   1.682   4.624   3.997  1.5594 -1.1720  2.2421
11341TIP3   OH255437   0.626   4.496   0.001 -0.4868  0.4419 -1.0506
11341TIP3    H155438   0.544   4.521   0.043  0.5699 -1.6321  2.7109
11341TIP3    H255439   0.616   4.402  -0.017  1.2831 -0.0591  0.3129
11342TIP3   OH255440   5.296   2.710   5.355  0.1696  0.4992 -0.3831
11342TIP3    H155441   5.279   2.730   5.447 -0.4710 -1.2357 -0.0904
11342TIP3    H255442   5.250   2.628   5.339  3.0468 -1.0557 -1.3262
11343TIP3   OH255443   6.076   3.704  17.090  0.5757 -0.9627  0.6981
11343TIP3    H155444   6.114   3.645  17.026 -0.1185 -1.6281  0.8801
11343TIP3    H255445   6.150   3.752  17.126  1.0826 -1.3010  0.1222
11344TIP3   OH255446   6.271   3.917  16.381 -0.1388 -0.3174  1.0780
11344TIP3    H155447   6.227   3.924  16.297  1.2887  0.3511  0.3410
11344TIP3    H255448   6.222   3.975  16.439 -0.7152 -0.2431  0.5264
11345TIP3   OH255449   2.574   1.010  12.808 -0.2304 -0.2096 -0.1606
11345TIP3    H155450   2.572   1.048  12.720 -1.5351  1.4318  0.5370
11345TIP3    H255451   2.487   1.025  12.843  0.2710 -0.8214  1.4506
11346TIP3   OH255452   4.722   6.606  15.282  0.1148  0.9281  0.3968
11346TIP3    H155453   4.776   6.676  15.245 -0.3131  0.9811 -0.1483
11346TIP3    H255454   4.736   6.531  15.225  2.2829 -0.1607  2.2317
11347TIP3   OH255455   4.417   3.743  17.015 -0.4473 -0.2591 -0.5049
11347TIP3    H155456   4.335   3.754  17.064  0.4088  0.9544  0.7500
11347TIP3    H255457   4.402   3.789  16.932 -1.6629 -1.7069 -1.1355
11348TIP3   OH255458   6.426   0.471  16.956  0.1782  0.1782  0.0491
11348TIP3    H155459   6.368   0.541  16.989 -0.8923 -0.4981 -0.3369
11348TIP3    H255460   6.512   0.512  16.952 -0.5890  1.7907 -1.0951
11349TIP3   OH255461   5.675   3.018   2.788  0.1060 -0.3355 -0.0346
11349TIP3    H155462   5.698   2.943   2.843 -0.0323 -0.9038 -0.7350
11349TIP3    H255463   5.581   3.009   2.773 -0.0133  0.2857  0.3235
11350TIP3   OH255464   5.890   5.839  14.835  0.1694  0.0942  0.6129
11350TIP3    H155465   5.974   5.868  14.872  0.1678 -0.0302  0.7191
11350TIP3    H255466   5.847   5.795  14.909  0.9857 -1.8852  0.0057
11351TIP3   OH255467   0.206   4.976  12.177  0.1558  0.4400 -0.0089
11351TIP3    H155468   0.241   4.938  12.096  0.9283  1.4431 -0.1636
11351TIP3    H255469   0.116   5.002  12.155  0.3314  0.6217 -0.5255
11352TIP3   OH255470   5.215   5.532  13.824  0.3552 -0.7690  0.4146
11352TIP3    H155471   5.197   5.541  13.917 -1.6937 -0.6059  0.0410
11352TIP3    H255472   5.139   5.570  13.781 -0.0788 -3.3681 -1.3211
11353TIP3   OH255473   3.138   5.904   4.545 -0.1699 -0.8310 -0.2896
11353TIP3    H155474   3.220   5.886   4.592  1.1386 -0.8729 -2.4103
11353TIP3    H255475   3.161   5.973   4.483 -1.7384 -0.8561 -0.9364
11354TIP3   OH255476   0.425   1.342   2.831  0.3201  0.7073  0.0595
11354TIP3    H155477   0.354   1.283   2.806  0.7202 -0.4172  1.4883
11354TIP3    H255478   0.390   1.429   2.815 -0.4469  0.1303 -1.6661
11355TIP3   OH255479   2.148   1.753   6.280 -0.2462 -0.1444 -0.3204
11355TIP3    H155480   2.201   1.741   6.360 -0.5810  0.3312 -0.0224
11355TIP3    H255481   2.068   1.796   6.311  0.1060  1.0985 -1.0705
11356TIP3   OH255482   2.820   2.025   3.664 -0.1010 -0.1745 -0.2648
11356TIP3    H155483   2.779   1.969   3.730  2.0087 -1.4242  0.0866
11356TIP3    H255484   2.796   2.114   3.690  0.4045 -0.6490  2.0751
11357TIP3   OH255485   2.250   0.827  11.045  0.1572 -0.1206  0.0700
11357TIP3    H155486   2.306   0.824  10.967 -0.1387  0.9130 -0.2031
11357TIP3    H255487   2.285   0.898  11.098 -0.2129 -0.2006  0.4310
11358TIP3   OH255488   1.130   5.770  13.200  0.0065  0.2432  0.0901
11358TIP3    H155489   1.183   5.744  13.275  1.7214  3.0893  0.0126
11358TIP3    H255490   1.182   5.746  13.124  0.8324  2.1532 -0.0044
11359TIP3   OH255491   5.185   1.891  16.008 -0.5707 -0.7202  0.1883
11359TIP3    H155492   5.175   1.823  15.940  0.1747 -2.3544  1.6333
11359TIP3    H255493   5.114   1.874  16.069 -0.3336 -0.2405  0.6010
11360TIP3   OH255494   1.177   0.103   0.022 -0.3643 -0.6454 -0.2285
11360TIP3    H155495   1.199   0.196   0.018 -1.0492 -0.4835 -0.4226
11360TIP3    H255496   1.238   0.061  -0.039 -1.0272 -0.1217 -1.2748
11361TIP3   OH255497   3.414   3.916  12.269 -0.3533 -0.7013 -0.1777
11361TIP3    H155498   3.474   3.989  12.280 -1.1640  0.2049 -1.5116
11361TIP3    H255499   3.465   3.848  12.226  0.4191 -0.9647  1.1087
11362TIP3   OH255500   1.643   1.484   4.543 -0.6130 -0.4306  0.6947
11362TIP3    H155501   1.560   1.519   4.573 -0.7979 -0.8888  0.7174
11362TIP3    H255502   1.707   1.551   4.568 -0.9588 -0.1174  0.7520
11363TIP3   OH255503   2.972   5.962   1.363  0.0405  0.1635 -0.3600
11363TIP3    H155504   2.992   6.055   1.349  0.6494 -0.0017 -0.6280
11363TIP3    H255505   3.057   5.918   1.359 -0.2466 -0.4122 -0.2686
11364TIP3   OH255506   2.059   2.771   5.340  0.2604 -0.2931  0.2258
11364TIP3    H155507   2.137   2.748   5.391  0.7859  0.8044 -0.0384
11364TIP3    H255508   2.019   2.687   5.317  0.2180 -0.8308  2.0923
11365TIP3   OH255509   3.545   2.068   4.599  0.3624 -0.0190 -0.3215
11365TIP3    H155510   3.562   2.132   4.669  3.5733  0.1708 -1.0967
11365TIP3    H255511   3.546   2.120   4.519 -1.1359 -0.5350 -0.6999
11366TIP3   OH255512   5.975   1.229   0.554 -0.0942 -0.1482  0.0763
11366TIP3    H155513   6.058   1.229   0.506  0.3503  2.6043  0.6469
11366TIP3    H255514   5.908   1.212   0.487  0.8080 -1.0344 -0.6349
11367TIP3   OH255515   3.846   2.176   3.049  0.7309 -0.4259  0.1774
11367TIP3    H155516   3.823   2.102   3.106 -2.2997 -0.8617 -1.4132
11367TIP3    H255517   3.916   2.141   2.993  0.3713 -1.5956  0.4250
11368TIP3   OH255518   1.507   5.354  11.606  0.3452  0.1314  0.0334
11368TIP3    H155519   1.472   5.349  11.695  1.8415 -1.1837  0.6053
11368TIP3    H255520   1.576   5.420  11.611 -1.6406  2.4010 -0.9829
11369TIP3   OH255521   0.473   1.248   5.262  0.2115  0.0315 -0.1859
11369TIP3    H155522   0.540   1.206   5.317  0.3651  1.4364  0.7499
11369TIP3    H255523   0.499   1.227   5.173  1.9017  0.5023  0.1526
11370TIP3   OH255524   1.217   4.748  11.577 -0.4457 -0.3165  0.7187
11370TIP3    H155525   1.212   4.653  11.577  0.5546 -0.3962 -0.4933
11370TIP3    H255526   1.311   4.767  11.575 -0.6255  0.7050  1.3377
11371TIP3   OH255527   2.076   1.225  13.850 -0.2226 -0.0596 -0.8441
11371TIP3    H155528   2.129   1.300  13.875 -1.9885  0.7479  0.6796
11371TIP3    H255529   2.023   1.257  13.777 -1.3202  0.3474  0.1184
11372TIP3   OH255530   0.993   5.189   4.988  0.2085  0.2667 -0.0896
11372TIP3    H155531   1.000   5.274   4.943  0.0942  0.5989  0.5166
11372TIP3    H255532   0.909   5.194   5.033  0.3510 -0.0507  0.2056
11373TIP3   OH255533   0.710   3.781  12.195 -0.6143 -0.3658 -0.1759
11373TIP3    H155534   0.780   3.735  12.241 -1.2113 -0.2952  0.8382
11373TIP3    H255535   0.750   3.809  12.113  0.1434 -1.5026 -0.2146
11374TIP3   OH255536   3.282   4.230   3.057  0.1800  0.1030 -0.3954
11374TIP3    H155537   3.241   4.155   3.012 -0.5165  0.4100 -0.2867
11374TIP3    H255538   3.321   4.192   3.136 -1.8265  0.1201  0.6640
11375TIP3   OH255539   1.954   5.454  13.333 -0.0008  0.1585 -0.6727
11375TIP3    H155540   2.002   5.373  13.315 -0.5320 -0.2965 -0.1014
11375TIP3    H255541   1.967   5.468  13.427 -2.1383 -0.7573 -0.1974
11376TIP3   OH255542   6.613   2.476  12.294  0.5100 -0.6568  0.4411
11376TIP3    H155543   6.604   2.567  12.321  2.4255 -0.2777 -0.0511
11376TIP3    H255544   6.570   2.471  12.209  1.0566 -0.0193  0.1209
11377TIP3   OH255545   1.089   5.463   1.706  0.1665  0.0530  0.9857
11377TIP3    H155546   1.025   5.443   1.637  0.6650  0.7653  0.2919
11377TIP3    H255547   1.089   5.386   1.762 -0.1461 -0.6106  0.1055
11378TIP3   OH255548   3.374   3.922  16.119 -0.6363  0.3801 -0.4726
11378TIP3    H155549   3.431   3.851  16.091 -0.2806  0.7172 -0.6233
11378TIP3    H255550   3.302   3.879  16.165 -1.0779 -0.1731 -1.6332
11379TIP3   OH255551   2.896   4.791  13.991 -0.1835  0.2919  0.1594
11379TIP3    H155552   2.964   4.799  13.924  0.2569  1.9249  0.7630
11379TIP3    H255553   2.844   4.715  13.964  1.8479 -0.9852 -0.3444
11380TIP3   OH255554   4.745   6.158   3.088 -0.0210 -0.1178  0.1969
11380TIP3    H155555   4.797   6.078   3.095  1.4006  0.7970  0.6915
11380TIP3    H255556   4.731   6.170   2.995  0.1649 -0.7070  0.0909
11381TIP3   OH255557   5.467   4.414   1.529 -0.1769 -0.8548 -0.0160
11381TIP3    H155558   5.378   4.449   1.536 -0.1573 -0.7279 -0.3747
11381TIP3    H255559   5.516   4.483   1.484  0.2669 -0.6325  0.7763
11382TIP3   OH255560   0.412   5.228  15.866  0.3145  0.0668 -0.0431
11382TIP3    H155561   0.374   5.157  15.814 -1.4283  0.9335 -0.0080
11382TIP3    H255562   0.426   5.299  15.803  0.4654  0.2857  0.2357
11383TIP3   OH255563   6.102   1.550   5.022 -0.4255  0.0251 -0.3384
11383TIP3    H155564   6.154   1.484   5.068 -1.1512 -0.7300 -0.5779
11383TIP3    H255565   6.088   1.619   5.087  1.5641  0.6487 -0.5200
11384TIP3   OH255566   5.277   0.217   4.797 -0.0505 -0.1791 -0.0723
11384TIP3    H155567   5.321   0.140   4.833  1.1813  1.1658  1.5033
11384TIP3    H255568   5.320   0.232   4.713  1.0221 -0.1705  0.4529
11385TIP3   OH255569   5.126   3.137  11.656 -0.2350  0.0624  0.6634
11385TIP3    H155570   5.108   3.043  11.658  0.6868 -0.1876  3.7166
11385TIP3    H255571   5.172   3.152  11.574 -0.9134 -2.0458 -0.1555
11386TIP3   OH255572   2.458   2.124   0.733  0.4321  0.0654  0.2366
11386TIP3    H155573   2.482   2.061   0.665 -0.2619  0.4194 -0.3627
11386TIP3    H255574   2.368   2.101   0.756  1.1488 -1.0172  2.1721
11387TIP3   OH255575   1.617   2.569  16.004 -0.0375 -0.1555 -0.1676
11387TIP3    H155576   1.565   2.649  16.007  0.1568 -0.0097 -0.6946
11387TIP3    H255577   1.652   2.566  15.915 -1.0617 -1.4669 -0.5600
11388TIP3   OH255578   2.931   6.294   6.176 -0.3894  0.3702  0.4209
11388TIP3    H155579   2.853   6.276   6.123  0.7217  1.2319 -1.6582
11388TIP3    H255580   2.931   6.389   6.186  1.4235  0.6507 -1.4658
11389TIP3   OH255581   5.438   3.247   0.501  0.2020 -0.0291 -0.2433
11389TIP3    H155582   5.381   3.322   0.485  1.5484  1.2752  0.7715
11389TIP3    H255583   5.523   3.274   0.466  0.6911 -1.1262  0.0513
11390TIP3   OH255584   2.224   4.144  16.722  0.0594  0.5629 -0.3313
11390TIP3    H155585   2.255   4.078  16.661 -1.3047  1.3179 -1.9277
11390TIP3    H255586   2.301   4.167  16.774  1.0938 -0.6094 -1.2796
11391TIP3   OH255587   4.275   1.398   4.023 -0.7516  0.1367 -0.2159
11391TIP3    H155588   4.325   1.355   3.953 -0.7301  1.9172 -1.3534
11391TIP3    H255589   4.326   1.476   4.043  0.0910 -1.0749  2.9700
11392TIP3   OH255590   3.985   3.355  14.759 -0.3115  0.3570  0.0311
11392TIP3    H155591   3.896   3.323  14.776 -0.0095 -0.0333  0.9301
11392TIP3    H255592   4.041   3.279  14.773  0.2492  0.8326  0.4491
11393TIP3   OH255593   4.671   4.930  15.510 -0.6131  0.2759  0.5248
11393TIP3    H155594   4.737   4.870  15.477  0.4128  0.6825  1.7444
11393TIP3    H255595   4.590   4.879  15.511 -0.0998 -0.5652  0.0032
11394TIP3   OH255596   2.065   1.550  12.427 -0.1253  0.7324 -0.2709
11394TIP3    H155597   2.136   1.589  12.477  0.0546  1.8720 -1.3706
11394TIP3    H255598   2.109   1.490  12.366 -0.1758  0.8309 -0.4042
11395TIP3   OH255599   2.907   6.126  15.225 -0.2027 -0.0119 -0.0915
11395TIP3    H155600   2.936   6.109  15.136 -0.6710 -0.7123 -0.1161
11395TIP3    H255601   2.860   6.047  15.251 -0.0149  0.1623  0.8024
11396TIP3   OH255602   1.694   0.350   5.520 -0.3462  0.2219 -0.4522
11396TIP3    H155603   1.720   0.322   5.433 -2.4023 -0.6719 -0.8315
11396TIP3    H255604   1.641   0.429   5.506  1.9315  2.0134  0.2984
11397TIP3   OH255605   1.369   6.064  13.698 -0.6597 -0.3078  0.0280
11397TIP3    H155606   1.352   6.018  13.780 -0.9477 -0.6332 -0.2103
11397TIP3    H255607   1.419   6.003  13.645  0.0858  0.1423  0.2011
11398TIP3   OH255608   3.163   0.814   5.158 -0.2885 -0.4463 -0.3238
11398TIP3    H155609   3.219   0.818   5.081 -0.4758  1.8886 -0.4081
11398TIP3    H255610   3.096   0.881   5.143 -2.4385 -2.3169  0.3303
11399TIP3   OH255611   5.729   2.871  12.631 -0.8244  0.2868  0.0094
11399TIP3    H155612   5.643   2.852  12.668 -0.3368  0.4239  1.2676
11399TIP3    H255613   5.763   2.943  12.684  0.2209 -0.0143 -0.2266
11400TIP3   OH255614   6.281   4.375  12.056  0.3095 -0.1598 -0.4769
11400TIP3    H155615   6.197   4.398  12.095  0.4329 -0.4979  0.0042
11400TIP3    H255616   6.264   4.371  11.962  0.5799  3.2310 -0.7983
11401TIP3   OH255617   6.296   0.697   6.295  0.0940  0.1860 -0.1044
11401TIP3    H155618   6.225   0.633   6.298  0.5938 -0.4101 -0.6437
11401TIP3    H255619   6.264   0.771   6.346  0.0544 -1.0539  1.7722
11402TIP3   OH255620   1.244   6.578   3.493 -0.3382  0.0872  0.2979
11402TIP3    H155621   1.326   6.577   3.542 -1.5304  2.4420  2.6346
11402TIP3    H255622   1.253   6.652   3.433 -0.7302  0.4190  0.6341
11403TIP3   OH255623   1.773   4.128   5.499  0.0630  0.5411  0.0647
11403TIP3    H155624   1.851   4.152   5.549 -1.1852  0.4566  2.2152
11403TIP3    H255625   1.769   4.191   5.428  1.5695  1.1257  0.4551
11404TIP3   OH255626   3.212   1.061  12.517 -0.4977  0.8542 -0.1297
11404TIP3    H155627   3.172   0.980  12.547  0.7987 -0.1793 -1.0685
11404TIP3    H255628   3.296   1.066  12.563  0.2301  0.7079 -1.3933
11405TIP3   OH255629   3.774   1.394  11.445  0.7636  0.8690  0.3087
11405TIP3    H155630   3.782   1.452  11.521  1.1831  0.9531  0.2026
11405TIP3    H255631   3.864   1.380  11.416  0.7520 -0.6236  0.9166
11406TIP3   OH255632   5.760   4.215   0.714  0.8873  0.1064 -0.2300
11406TIP3    H155633   5.838   4.225   0.660  0.1285 -0.9162 -1.5688
11406TIP3    H255634   5.786   4.157   0.785  1.2527 -0.5236 -0.8749
11407TIP3   OH255635   4.416   6.398   4.957  0.4363  0.7563 -0.0581
11407TIP3    H155636   4.376   6.485   4.962  0.2014  0.6730 -0.5311
11407TIP3    H255637   4.424   6.379   4.864 -1.0990 -0.4573  0.0247
11408TIP3   OH255638   6.531   5.599  13.734  0.2957 -0.5956  0.4511
11408TIP3    H155639   6.569   5.685  13.753 -1.3673  0.6698 -1.5492
11408TIP3    H255640   6.492   5.572  13.817  1.2332  0.3498  1.2402
11409TIP3   OH255641   1.412   1.064  11.286 -0.0403  0.0328  0.6061
11409TIP3    H155642   1.497   1.068  11.330 -0.2740  0.0120  1.0631
11409TIP3    H255643   1.355   1.120  11.338 -0.9093 -1.7150  1.6568
11410TIP3   OH255644   2.201   3.378  16.670 -0.2704 -0.2785 -0.0112
11410TIP3    H155645   2.213   3.283  16.671  2.0871 -0.0579  0.3205
11410TIP3    H255646   2.275   3.411  16.619  0.7560  1.5277  2.4094
11411TIP3   OH255647   0.208   6.352   5.315  0.5358 -0.0409  0.3493
11411TIP3    H155648   0.132   6.363   5.258  0.4161 -1.1655  0.2554
11411TIP3    H255649   0.191   6.410   5.389 -1.5916 -1.9022  1.4767
11412TIP3   OH255650   4.641   0.456   1.849 -0.0752 -0.0229  0.3597
11412TIP3    H155651   4.694   0.419   1.919  1.6539 -0.9630 -1.3715
11412TIP3    H255652   4.558   0.410   1.855  0.2935 -0.5908  1.3485
11413TIP3   OH255653   6.432   4.245   4.167 -0.6892  0.2332 -0.4440
11413TIP3    H155654   6.465   4.322   4.120  0.5555 -0.4577 -0.7638
11413TIP3    H255655   6.405   4.185   4.098  1.9446 -1.1370 -0.4238
11414TIP3   OH255656   5.875   5.587   1.273  0.2684  0.6929 -0.0833
11414TIP3    H155657   5.879   5.492   1.262 -0.9274  0.3736  1.7142
11414TIP3    H255658   5.852   5.600   1.366 -3.8482  2.5474 -1.1010
11415TIP3   OH255659   1.935   5.647  11.803 -0.0818 -0.1802  0.7782
11415TIP3    H155660   2.022   5.622  11.770 -0.8105 -0.4819 -0.9997
11415TIP3    H255661   1.887   5.564  11.806 -1.3384  0.3819 -1.5427
11416TIP3   OH255662   0.170   3.851  12.496  0.5796  0.3035  0.1843
11416TIP3    H155663   0.177   3.769  12.546 -0.3631 -0.5626 -1.0482
11416TIP3    H255664   0.232   3.839  12.423  0.7953  0.9019  0.2655
11417TIP3   OH255665   2.906   0.144  15.786  0.2692  0.3018  0.5625
11417TIP3    H155666   2.879   0.058  15.756  1.5747 -0.2498  0.9068
11417TIP3    H255667   2.969   0.127  15.856 -0.7293  1.5339  1.8383
11418TIP3   OH255668   4.618   1.462  15.893  0.0658 -0.1260 -0.5109
11418TIP3    H155669   4.622   1.439  15.986 -2.2250 -0.3666 -0.3988
11418TIP3    H255670   4.596   1.555  15.893  3.3329  0.7405 -0.9050
11419TIP3   OH255671   4.264   0.545  15.788 -0.4955  0.2811 -0.0351
11419TIP3    H155672   4.200   0.554  15.718 -0.8831 -2.5068 -0.1671
11419TIP3    H255673   4.285   0.452  15.789  2.3233  0.8223  1.1199
11420TIP3   OH255674   1.298   2.549   3.947 -0.2338  0.2965 -0.3697
11420TIP3    H155675   1.272   2.465   3.986  1.5552 -1.2753 -2.2685
11420TIP3    H255676   1.217   2.598   3.938 -1.8006 -2.3076 -1.5415
11421TIP3   OH255677   0.445   6.245   4.217 -0.6408 -0.2490 -0.1283
11421TIP3    H155678   0.368   6.207   4.174 -0.9436 -0.8974  0.9416
11421TIP3    H255679   0.506   6.171   4.226 -0.2529  0.0629 -0.1729
11422TIP3   OH255680   2.208   1.925   4.463 -0.6599 -0.1318 -0.4625
11422TIP3    H155681   2.239   2.016   4.471  1.5800 -0.6574 -2.1500
11422TIP3    H255682   2.113   1.933   4.457 -0.5390  2.1001 -0.3670
11423TIP3   OH255683   2.347   0.651   4.392  0.0660  0.4193  0.0369
11423TIP3    H155684   2.396   0.654   4.474  1.6639 -0.7493 -0.8204
11423TIP3    H255685   2.413   0.652   4.324 -1.2378  1.5771 -1.2880
11424TIP3   OH255686   4.975   1.014  13.501 -0.2704 -0.1320  0.5004
11424TIP3    H155687   5.053   0.970  13.467 -0.7605 -1.9172  1.5959
11424TIP3    H255688   4.966   0.982  13.590 -0.4925  2.4828  1.5197
11425TIP3   OH255689   0.293   1.493  13.344 -0.3237 -0.3298  0.1338
11425TIP3    H155690   0.269   1.497  13.437  0.6462  0.6768  0.3625
11425TIP3    H255691   0.234   1.554  13.301 -0.7332 -0.7498  0.1027
11426TIP3   OH255692   1.733   1.670  13.853 -0.2806  0.0546 -0.0103
11426TIP3    H155693   1.756   1.763  13.859  1.3463 -0.2518 -0.8080
11426TIP3    H255694   1.676   1.654  13.928  2.0882  0.9799  2.1389
11427TIP3   OH255695   5.177   1.353  15.530  0.2166 -0.1201  0.3150
11427TIP3    H155696   5.127   1.309  15.461  0.7581  0.2333 -0.3147
11427TIP3    H255697   5.256   1.301  15.539  0.8094  0.6489 -0.3545
11428TIP3   OH255698   1.973   1.022  11.641  0.1828 -0.1063  0.0112
11428TIP3    H155699   1.889   1.025  11.687  1.2513 -2.3467  2.4083
11428TIP3    H255700   2.028   1.085  11.688  0.5334 -0.4601  0.0818
11429TIP3   OH255701   0.210   6.526   0.356  0.2585  0.1043 -0.1609
11429TIP3    H155702   0.253   6.611   0.367  0.2654  0.2826 -1.4266
11429TIP3    H255703   0.188   6.498   0.445  2.6745  0.1445  0.4951
11430TIP3   OH255704   4.847   4.011   6.076  0.4397 -0.3269 -0.3720
11430TIP3    H155705   4.813   4.084   6.025 -0.9707 -0.3451  0.4826
11430TIP3    H255706   4.822   3.933   6.027  0.2857 -0.3012 -0.3338
11431TIP3   OH255707   2.105   3.782  15.479 -0.2841  0.2723 -0.8510
11431TIP3    H155708   2.133   3.861  15.525  0.1255 -0.7835  0.7937
11431TIP3    H255709   2.019   3.804  15.443 -1.0785  0.8457  1.3008
11432TIP3   OH255710   2.344   1.691  11.823  0.0833  0.1715  0.0733
11432TIP3    H155711   2.310   1.761  11.879  0.1287  1.1277 -1.0436
11432TIP3    H255712   2.438   1.687  11.843  0.1829  0.8155 -0.2434
11433TIP3   OH255713   0.486   1.204  16.263 -0.5845  0.1996 -0.0955
11433TIP3    H155714   0.556   1.266  16.283  0.2081 -0.7491  0.1188
11433TIP3    H255715   0.514   1.121  16.302 -1.9337 -0.1487  0.2013
11434TIP3   OH255716   4.112   5.245  11.853  0.4215 -0.2417  0.0122
11434TIP3    H155717   4.132   5.193  11.775  0.4517  0.5749 -0.5352
11434TIP3    H255718   4.018   5.233  11.867  0.6846 -1.6587  0.8065
11435TIP3   OH255719   1.943   3.977   3.422  0.1859  0.0005 -0.2731
11435TIP3    H155720   2.033   3.946   3.411  1.8810  3.6442  1.6434
11435TIP3    H255721   1.926   4.031   3.345 -0.2301 -0.3361 -0.4248
11436TIP3   OH255722   4.437   2.524  15.762  0.3440  0.1116  0.2333
11436TIP3    H155723   4.468   2.463  15.695  0.5422 -0.8451  1.1581
11436TIP3    H255724   4.351   2.552  15.731 -1.1802 -3.0264  1.1665
11437TIP3   OH255725   4.813   6.137  11.492 -0.2518 -0.2015 -0.5807
11437TIP3    H155726   4.786   6.201  11.558 -0.2791 -1.5351  0.7309
11437TIP3    H255727   4.908   6.148  11.485 -0.1878 -0.3788  0.0191
11438TIP3   OH255728   5.648   0.196   0.424 -0.3802 -0.0229  0.1205
11438TIP3    H155729   5.729   0.246   0.411  1.7099 -3.1744 -0.1534
11438TIP3    H255730   5.596   0.214   0.345  0.8667  0.7050 -0.5773
11439TIP3   OH255731   6.459   4.134   5.196  0.0420  0.1415  0.4357
11439TIP3    H155732   6.403   4.066   5.233  1.8913 -0.7643  1.7033
11439TIP3    H255733   6.517   4.089   5.136 -0.9956  1.1829 -1.4321
11440TIP3   OH255734   5.561   1.489   3.180 -0.3974  0.0382  0.1588
11440TIP3    H155735   5.545   1.406   3.225  1.1130  0.3989  1.4484
11440TIP3    H255736   5.557   1.555   3.250 -2.5382  1.2309 -0.9685
11441TIP3   OH255737   2.569   1.585   0.212 -0.3865  0.0667 -0.2785
11441TIP3    H155738   2.585   1.675   0.241  1.0283 -0.4697  0.6981
11441TIP3    H255739   2.487   1.560   0.253 -0.2495  0.5515  0.2972
11442TIP3   OH255740   5.810   4.651  15.515  0.3213  0.7039 -0.3233
11442TIP3    H155741   5.891   4.607  15.540  0.8059 -0.1018 -3.0217
11442TIP3    H255742   5.748   4.626  15.584  1.2895 -2.0634 -0.3313
11443TIP3   OH255743   2.748   3.191  15.412 -0.6116 -0.4885  0.1101
11443TIP3    H155744   2.793   3.246  15.477 -0.8803  0.7506 -0.7084
11443TIP3    H255745   2.758   3.102  15.445  0.0421  0.0206  1.3781
11444TIP3   OH255746   3.336   5.662  12.136  0.1062  0.4412 -0.2016
11444TIP3    H155747   3.294   5.673  12.221 -1.7294  0.0410 -1.0010
11444TIP3    H255748   3.368   5.750  12.114 -0.0068  0.6915  0.5972
11445TIP3   OH255749   1.966   4.997  14.452 -0.3482 -0.8798  0.1764
11445TIP3    H155750   1.901   5.063  14.430 -0.9841 -0.9104  1.8358
11445TIP3    H255751   2.037   5.012  14.389 -0.2413  1.7198  0.7944
11446TIP3   OH255752   0.350   1.674   4.119 -0.1585  0.2119  0.2578
11446TIP3    H155753   0.281   1.636   4.173  0.9473 -1.1551  0.7682
11446TIP3    H255754   0.384   1.747   4.172  0.0052 -0.2627  0.8228
11447TIP3   OH255755   0.394   5.932   4.912 -0.0492  0.2865  0.0576
11447TIP3    H155756   0.467   5.901   4.966 -0.6251  0.0514  0.7236
11447TIP3    H255757   0.398   6.028   4.920 -0.8797  0.2272  1.5778
11448TIP3   OH255758   3.600   6.565  10.956  0.6435 -0.0513  0.4712
11448TIP3    H155759   3.560   6.652  10.956  0.1104 -0.2903  0.1824
11448TIP3    H255760   3.684   6.577  11.000  1.1336  0.8733 -0.6526
11449TIP3   OH255761   5.822   2.920  15.873 -0.2695 -0.2942 -0.4714
11449TIP3    H155762   5.753   2.985  15.883 -0.1120 -0.2906  0.7351
11449TIP3    H255763   5.834   2.912  15.778 -0.4856  1.2099 -0.6519
11450TIP3   OH255764   4.563   1.455   5.895 -0.5512 -0.1070 -0.0622
11450TIP3    H155765   4.595   1.386   5.953 -0.5053 -1.6895 -1.8580
11450TIP3    H255766   4.507   1.509   5.951  1.0023 -0.3937  1.8774
11451TIP3   OH255767   6.498   2.571  14.337 -0.1403  0.4999  0.0135
11451TIP3    H155768   6.436   2.563  14.264 -0.0158 -1.1172  0.0317
11451TIP3    H255769   6.448   2.545  14.414  0.2809  0.1743  0.1825
11452TIP3   OH255770   0.456   5.861   3.900 -0.0198 -0.3073  0.6149
11452TIP3    H155771   0.383   5.872   3.961  0.4056 -1.0837  1.2772
11452TIP3    H255772   0.421   5.807   3.829 -1.2021  2.4188 -1.0703
11453TIP3   OH255773   6.495   2.877   0.430  0.3300  0.2676  0.6162
11453TIP3    H155774   6.433   2.816   0.471 -1.3827  1.6656  0.2373
11453TIP3    H255775   6.567   2.884   0.492 -0.9089  0.2334  2.1023
11454TIP3   OH255776   3.377   0.727   6.297  0.0140 -0.0990  0.5493
11454TIP3    H155777   3.327   0.743   6.377 -0.1024  0.8972  0.2865
11454TIP3    H255778   3.457   0.684   6.327  0.0250  0.3694  1.2198
11455TIP3   OH255779   4.797   4.384   4.873  0.1308  0.7384 -0.3520
11455TIP3    H155780   4.737   4.315   4.902  0.3226  1.5948  2.3135
11455TIP3    H255781   4.856   4.340   4.811  0.0535 -1.4373  1.0205
11456TIP3   OH255782   4.520   5.740  14.213  0.4821 -0.0475  0.2541
11456TIP3    H155783   4.468   5.820  14.202  0.0477 -0.5046 -1.1662
11456TIP3    H255784   4.607   5.765  14.181  0.3373 -0.1457 -0.2247
11457TIP3   OH255785   2.113   1.167  14.649 -0.0880  0.4434 -0.4813
11457TIP3    H155786   2.049   1.195  14.584 -0.5703  0.2537 -0.1047
11457TIP3    H255787   2.063   1.164  14.731  0.8869  2.2675  0.2367
11458TIP3   OH255788   6.531   0.998  15.153 -0.0970 -0.0248  0.1380
11458TIP3    H155789   6.482   1.061  15.206  0.2855  1.2624 -0.9485
11458TIP3    H255790   6.609   1.047  15.124  0.7619 -1.3578  0.1312
11459TIP3   OH255791   0.155   6.719  13.851  0.1463  0.4751 -0.2577
11459TIP3    H155792   0.061   6.716  13.869  0.1828  1.1345  0.0887
11459TIP3    H255793   0.166   6.665  13.773 -0.2935 -0.8794  0.5896
11460TIP3   OH255794   5.039   2.233   3.124 -0.1106 -0.1248 -0.5655
11460TIP3    H155795   5.006   2.255   3.211  0.6303 -0.8643 -0.0844
11460TIP3    H255796   5.116   2.289   3.112 -0.6472  0.5178 -1.0638
11461TIP3   OH255797   2.561   0.324   0.728  0.3083  0.4973 -0.1235
11461TIP3    H155798   2.611   0.359   0.803 -0.0449  0.7526 -0.0063
11461TIP3    H255799   2.470   0.330   0.755  0.1711  0.7041 -0.6277
11462TIP3   OH255800   1.980   4.331  14.089 -0.1822 -0.0681 -0.2173
11462TIP3    H155801   1.915   4.382  14.041  0.5746  0.5423 -0.6117
11462TIP3    H255802   2.006   4.262  14.028  0.1040  0.1507 -0.3418
11463TIP3   OH255803   3.283   2.354   4.553 -0.4383  0.5849 -0.2810
11463TIP3    H155804   3.308   2.368   4.644 -1.2083 -0.7337  0.1569
11463TIP3    H255805   3.363   2.325   4.510 -0.6944 -1.7558  0.6840
11464TIP3   OH255806   0.258   5.554  14.354 -0.0195  0.1669  0.1644
11464TIP3    H155807   0.290   5.494  14.287 -0.2706  0.4003 -0.1689
11464TIP3    H255808   0.229   5.631  14.305  0.9294  0.8451  0.6409
11465TIP3   OH255809   1.059   3.679  11.759  0.4346 -0.6746  0.5566
11465TIP3    H155810   1.020   3.733  11.828  1.8596  1.2668 -0.0474
11465TIP3    H255811   1.028   3.591  11.777 -0.1379 -0.0590  3.0010
11466TIP3   OH255812   3.682   4.963   4.440  0.3482 -0.4081 -0.0926
11466TIP3    H155813   3.623   4.909   4.387  0.5049  1.1446 -1.9950
11466TIP3    H255814   3.769   4.929   4.423  0.4219  0.2428 -1.0792
11467TIP3   OH255815   6.193   5.625  16.937 -0.3415  0.0521 -0.0746
11467TIP3    H155816   6.242   5.659  16.862 -1.0417 -1.4844 -1.3114
11467TIP3    H255817   6.115   5.681  16.943  0.8213  1.6385  1.0310
11468TIP3   OH255818   1.664   6.554   1.097 -0.0953  0.8930  0.4967
11468TIP3    H155819   1.721   6.596   1.161 -0.1479 -1.0870  1.9550
11468TIP3    H255820   1.630   6.477   1.143 -0.6609 -0.2562 -1.7061
11469TIP3   OH255821   3.558   1.979  16.018  0.5651  0.3411  0.2695
11469TIP3    H155822   3.642   2.024  16.029  0.1862  0.6631  2.1910
11469TIP3    H255823   3.533   1.953  16.106 -1.2039 -0.0484 -0.3089
11470TIP3   OH255824   5.652   5.143   4.067 -0.3352 -0.1430  0.5134
11470TIP3    H155825   5.588   5.203   4.030 -0.5540 -1.0289 -0.5756
11470TIP3    H255826   5.613   5.056   4.056  1.1332 -0.7184 -0.3632
11471TIP3   OH255827   2.564   5.610   1.340  0.0145  0.2375 -0.0855
11471TIP3    H155828   2.587   5.601   1.247 -0.5782 -1.5083 -0.1066
11471TIP3    H255829   2.514   5.692   1.344 -2.0711 -0.8348 -1.8118
11472TIP3   OH255830   0.801   2.404   3.296 -0.0771 -0.5490 -0.1555
11472TIP3    H155831   0.818   2.477   3.237  0.6527  0.5689  1.3488
11472TIP3    H255832   0.874   2.407   3.359 -2.5467  0.6119  2.9431
11473TIP3   OH255833   2.902   1.292  11.964  0.4893  0.1936  0.0725
11473TIP3    H155834   2.922   1.246  11.882 -0.7302  0.3094 -0.3045
11473TIP3    H255835   2.931   1.382  11.948 -1.3758  0.6682 -0.9413
11474TIP3   OH255836   5.157   5.928   0.843 -0.4201 -0.2029 -0.6425
11474TIP3    H155837   5.243   5.962   0.866 -0.4665  0.1481 -0.9892
11474TIP3    H255838   5.168   5.893   0.755 -0.8932  0.7950 -1.1070
11475TIP3   OH255839   1.335   6.666  12.152  0.1574 -0.1332  0.0937
11475TIP3    H155840   1.405   6.712  12.107  1.4909 -2.0993  0.0371
11475TIP3    H255841   1.289   6.618  12.083 -0.4073  0.0594  0.3227
11476TIP3   OH255842   1.584   0.464  13.128 -0.5835  0.1575  0.0127
11476TIP3    H155843   1.594   0.536  13.066 -1.7190  0.6615  0.3967
11476TIP3    H255844   1.610   0.501  13.213 -0.8802  0.0278  0.1605
11477TIP3   OH255845   0.602   4.588   3.325  0.3870  0.1655 -0.7251
11477TIP3    H155846   0.679   4.580   3.381 -0.3096  0.7076  0.3543
11477TIP3    H255847   0.545   4.516   3.353  0.0776  0.3737 -0.8107
11478TIP3   OH255848   2.159   3.273   6.523 -0.0177 -0.1532  0.1581
11478TIP3    H155849   2.095   3.210   6.556 -0.1550  0.2498  0.6588
11478TIP3    H255850   2.163   3.341   6.589 -1.6942  1.6473 -1.4522
11479TIP3   OH255851   4.829   6.267   4.395 -0.1153 -0.5484  0.1078
11479TIP3    H155852   4.864   6.213   4.466  0.8463  0.2417  0.2515
11479TIP3    H255853   4.737   6.279   4.417 -0.0520 -1.1181  0.7116
11480TIP3   OH255854   3.137   0.430  16.832 -0.5647  0.5653  0.2596
11480TIP3    H155855   3.043   0.438  16.850 -0.6869 -0.1339 -0.0255
11480TIP3    H255856   3.159   0.341  16.859  0.1466  0.9084  0.8488
11481TIP3   OH255857   3.636   5.917   3.139 -0.2307 -0.3417  0.5385
11481TIP3    H155858   3.543   5.931   3.153 -0.1107  1.1210  0.0794
11481TIP3    H255859   3.641   5.862   3.061 -0.7157 -1.2574  1.1397
11482TIP3   OH255860   3.896   6.719   2.578  0.1541 -0.2883 -0.4385
11482TIP3    H155861   3.808   6.698   2.546 -0.0954 -3.6405  1.9215
11482TIP3    H255862   3.926   6.639   2.621  2.5493  2.0971  2.8560
11483TIP3   OH255863   5.110   4.016  14.865 -0.1208  0.3467  0.1254
11483TIP3    H155864   5.195   3.974  14.874  0.8859  1.9419 -1.2928
11483TIP3    H255865   5.103   4.036  14.771 -0.7859  2.6925  0.6007
11484TIP3   OH255866   5.000   1.769  16.280 -0.3615 -0.0719  0.3648
11484TIP3    H155867   4.980   1.697  16.221 -0.4860 -0.6156  1.0500
11484TIP3    H255868   5.041   1.726  16.356 -1.2768  0.4651  1.1823
11485TIP3   OH255869   4.720   6.107   1.638  0.5176  0.2282 -0.0439
11485TIP3    H155870   4.774   6.174   1.596 -1.4446  1.6359 -0.4705
11485TIP3    H255871   4.735   6.120   1.732  0.9348  0.6096 -0.1596
11486TIP3   OH255872   4.341   4.168   4.763  0.6911  0.8063  0.2771
11486TIP3    H155873   4.331   4.174   4.668 -1.8904  2.7201  0.5531
11486TIP3    H255874   4.323   4.076   4.783  0.9586  0.4463 -1.0636
11487TIP3   OH255875   2.078   0.708  12.701 -0.8997  0.6948 -0.1459
11487TIP3    H155876   2.135   0.639  12.735 -0.2749  2.2159  2.2336
11487TIP3    H255877   1.990   0.671  12.704 -0.6158  0.0515  1.3519
11488TIP3   OH255878   4.043   4.202   0.843 -0.2713 -0.1358 -0.2228
11488TIP3    H155879   4.023   4.214   0.936 -0.2853 -2.3462  0.1120
11488TIP3    H255880   3.997   4.273   0.799 -0.2891  0.9382  1.4452
11489TIP3   OH255881   0.587   2.295  16.237 -0.1121 -0.3904 -0.3274
11489TIP3    H155882   0.572   2.387  16.214 -0.7350 -0.4481 -0.1662
11489TIP3    H255883   0.520   2.275  16.302  1.3923 -0.3218  1.3334
11490TIP3   OH255884   4.764   5.901  15.401 -0.0773 -0.2053 -0.2410
11490TIP3    H155885   4.839   5.915  15.344  0.0991 -1.2049 -0.2650
11490TIP3    H255886   4.792   5.833  15.463 -1.2139 -1.1815 -0.7580
11491TIP3   OH255887   0.963   4.127   5.713 -0.3833 -0.3785  0.2164
11491TIP3    H155888   0.879   4.139   5.757  0.3964  1.6216  1.3092
11491TIP3    H255889   1.028   4.152   5.779  1.0760 -1.7432 -0.6403
11492TIP3   OH255890   6.454   2.330  15.546  0.1770  0.1399 -0.0766
11492TIP3    H155891   6.443   2.293  15.458 -0.1014  1.1924 -0.5044
11492TIP3    H255892   6.405   2.272  15.603  2.2738 -1.9272 -0.2332
11493TIP3   OH255893   2.641   6.612   5.424  0.1329  0.0585  0.3033
11493TIP3    H155894   2.558   6.658   5.433  0.4179  0.5813  0.3372
11493TIP3    H255895   2.703   6.681   5.398  0.3861 -0.4723 -0.5024
11494TIP3   OH255896   1.454   5.514   5.112 -0.4123 -0.0895  0.2045
11494TIP3    H155897   1.433   5.422   5.123 -1.2352 -0.0584 -0.8782
11494TIP3    H255898   1.444   5.552   5.199  2.6794 -1.4918  1.2851
11495TIP3   OH255899   1.480   0.709   3.238 -0.3311 -0.2202 -0.1550
11495TIP3    H155900   1.570   0.695   3.211  0.0338 -0.0314  0.9072
11495TIP3    H255901   1.427   0.670   3.168  0.5709 -3.5656  0.8336
11496TIP3   OH255902   6.480   3.573   4.530 -0.6616 -0.0925 -0.7734
11496TIP3    H155903   6.408   3.549   4.471  1.1249 -0.5723 -2.8745
11496TIP3    H255904   6.532   3.493   4.537 -0.5283  0.1225  1.0711
11497TIP3   OH255905   3.490   6.670   0.994  0.1445  0.2076  0.2267
11497TIP3    H155906   3.542   6.740   1.033  4.5404 -1.7046 -1.4955
11497TIP3    H255907   3.485   6.691   0.901 -0.9316 -0.4312  0.1146
11498TIP3   OH255908   0.176   5.310   2.534 -0.2784 -0.7648  0.2217
11498TIP3    H155909   0.255   5.285   2.485 -1.5475 -1.1208 -1.7356
11498TIP3    H255910   0.182   5.405   2.542 -0.2092 -0.6542 -0.9628
11499TIP3   OH255911   5.983   2.458   0.651 -0.1108 -0.7185 -0.1698
11499TIP3    H155912   6.044   2.526   0.622  0.3244 -0.9837  0.1053
11499TIP3    H255913   5.896   2.494   0.634  0.0986  0.2955  0.7999
11500TIP3   OH255914   0.267   5.940  15.027 -0.4115 -0.3307  0.6421
11500TIP3    H155915   0.279   5.851  14.992 -0.0144  0.1932 -0.5899
11500TIP3    H255916   0.172   5.954  15.024 -0.3739 -0.2472 -0.3670
11501TIP3   OH255917   2.664   2.754  16.660 -0.4952 -0.0122 -0.2224
11501TIP3    H155918   2.686   2.839  16.697 -1.0047 -0.1032  0.3051
11501TIP3    H255919   2.586   2.770  16.606 -1.1287 -0.2899  0.5808
11502TIP3   OH255920   0.356   4.950   3.967  0.3481 -0.5519 -0.2777
11502TIP3    H155921   0.319   5.010   3.902  1.3961 -0.7607 -1.0924
11502TIP3    H255922   0.280   4.920   4.018 -0.1710  1.7021  0.3899
11503TIP3   OH255923   5.457   1.034   0.876 -0.3917  0.4140 -0.5163
11503TIP3    H155924   5.467   0.953   0.826 -0.9348  0.4040 -0.6092
11503TIP3    H255925   5.370   1.067   0.853 -0.8909  0.1282  0.8394
11504TIP3   OH255926   5.327   2.344   3.945 -0.1598 -0.2037  0.2120
11504TIP3    H155927   5.274   2.372   4.019  0.7325  0.7177  0.5349
11504TIP3    H255928   5.265   2.303   3.884 -0.5926 -3.1446  2.4339
11505TIP3   OH255929   2.903   5.996  16.859  0.1329 -0.2221 -0.2099
11505TIP3    H155930   2.843   6.064  16.826  1.0528  0.3826 -0.6773
11505TIP3    H255931   2.962   5.979  16.786  0.1594 -1.2535  0.0428
11506TIP3   OH255932   3.484   1.729  13.505 -0.6662 -0.3918 -0.7398
11506TIP3    H155933   3.439   1.814  13.506 -1.9801 -1.0585  0.4168
11506TIP3    H255934   3.477   1.698  13.596  0.4590 -1.3961 -0.9802
11507TIP3   OH255935   0.196   6.499  13.702 -0.0900  0.6163 -0.1317
11507TIP3    H155936   0.260   6.434  13.673  0.1945  0.1592  1.4304
11507TIP3    H255937   0.130   6.500  13.632  2.0176  1.7662 -2.2336
11508TIP3   OH255938   2.912   2.965  10.958 -0.0726  0.5942  0.3353
11508TIP3    H155939   2.968   3.008  11.023  1.9630 -0.0662 -0.8688
11508TIP3    H255940   2.959   2.884  10.937 -0.5123  0.9085 -2.1054
11509TIP3   OH255941   3.969   4.840   1.461 -0.0714  0.1130 -0.2404
11509TIP3    H155942   4.054   4.883   1.468 -0.6844  1.3788 -0.2186
11509TIP3    H255943   3.958   4.824   1.367  0.1207  0.0957 -0.2600
11510TIP3   OH255944   5.405   5.881  14.643  0.7315 -0.4270  0.6830
11510TIP3    H155945   5.462   5.917  14.711 -1.9776 -0.9133  3.4695
11510TIP3    H255946   5.409   5.787  14.656 -1.9785 -0.4309  2.2847
11511TIP3   OH255947   0.531   2.630  15.497 -0.3273  0.1295  0.6562
11511TIP3    H155948   0.615   2.629  15.543  0.3559  0.5082 -0.5451
11511TIP3    H255949   0.535   2.707  15.440 -1.1708 -0.2904  0.0021
11512TIP3   OH255950   1.683   3.702  14.566  0.7722 -0.2238 -0.0210
11512TIP3    H155951   1.632   3.674  14.641  1.6776 -0.0208  0.6950
11512TIP3    H255952   1.620   3.706  14.494 -0.4093  0.9091  1.0188
11513TIP3   OH255953   5.245   4.685  15.923 -0.3706 -0.2615 -0.1141
11513TIP3    H155954   5.242   4.780  15.906 -0.2561 -0.4148 -1.0525
11513TIP3    H255955   5.310   4.652  15.861 -0.4501 -0.9647  0.1718
11514TIP3   OH255956   6.419   6.200   6.209 -0.1931 -0.3735  0.5777
11514TIP3    H155957   6.427   6.107   6.231 -0.8553 -0.4134  0.6579
11514TIP3    H255958   6.459   6.207   6.122 -1.4602 -1.0091 -0.0724
11515TIP3   OH255959   2.185   2.049   5.182  0.2855  0.4707  0.2077
11515TIP3    H155960   2.239   1.984   5.227 -0.9853 -0.4839  0.4000
11515TIP3    H255961   2.099   2.042   5.223 -0.9313 -0.3943 -2.2970
11516TIP3   OH255962   0.410   1.961  15.889 -0.1672  0.1733  0.1580
11516TIP3    H155963   0.442   1.945  15.801 -0.3538 -0.3833  0.1911
11516TIP3    H255964   0.317   1.942  15.886 -0.2547  0.5379  0.3805
11517TIP3   OH255965   0.244   3.774  13.243  0.1480 -0.8692 -0.3594
11517TIP3    H155966   0.301   3.726  13.304 -0.3836 -0.3760  0.5419
11517TIP3    H255967   0.167   3.798  13.295  0.8109  1.8257 -0.4546
11518TIP3   OH255968   5.287   1.390  16.557  0.0657 -0.0486 -0.2921
11518TIP3    H155969   5.269   1.346  16.474 -3.0844  1.4030 -0.5284
11518TIP3    H255970   5.284   1.484  16.536 -0.9940  0.3523  1.4326
11519TIP3   OH255971   3.974   0.385  14.991 -0.6256  0.4793  0.4012
11519TIP3    H155972   4.018   0.303  14.972 -0.6679  0.6521 -0.4953
11519TIP3    H255973   3.916   0.400  14.916 -1.6018  0.6741  1.1604
11520TIP3   OH255974   2.471   2.089   2.067 -0.0714  0.1358  0.1531
11520TIP3    H155975   2.417   2.012   2.050  1.5660 -0.9115 -0.4488
11520TIP3    H255976   2.519   2.067   2.147 -0.2572  0.9205  0.4932
11521TIP3   OH255977   4.448   3.413  15.095  0.0463 -0.4210  0.0723
11521TIP3    H155978   4.445   3.317  15.102 -1.1085 -0.4037 -0.0626
11521TIP3    H255979   4.386   3.443  15.162 -0.3593  0.2009 -0.5796
11522TIP3   OH255980   5.379   3.028   1.726  0.0178  0.1832  0.7075
11522TIP3    H155981   5.362   2.939   1.757 -0.2817 -0.3133 -0.7941
11522TIP3    H255982   5.298   3.055   1.683  0.9814  0.0499 -1.3454
11523TIP3   OH255983   4.631   3.778  13.512 -0.6445  0.3915  0.4061
11523TIP3    H155984   4.658   3.785  13.604 -0.5047  0.1093  0.3874
11523TIP3    H255985   4.558   3.716  13.514 -0.1538 -0.2007  0.2306
11524TIP3   OH255986   2.536   0.415  14.134  0.4515  0.3673 -0.7697
11524TIP3    H155987   2.591   0.360  14.078 -0.7726  1.9208 -3.6930
11524TIP3    H255988   2.590   0.492  14.151  0.5161  0.2527 -0.4326
11525TIP3   OH255989   2.206   0.554  16.411 -0.0041 -0.3595 -0.1184
11525TIP3    H155990   2.165   0.587  16.331  1.4279 -0.7799 -1.0676
11525TIP3    H255991   2.146   0.579  16.481 -0.6068  1.2545 -1.1631
11526TIP3   OH255992   3.328   1.588  14.585 -0.2893 -0.0241  0.1045
11526TIP3    H155993   3.237   1.615  14.594 -0.1512  0.4267  0.1624
11526TIP3    H255994   3.379   1.664  14.613  0.1148  0.0605 -0.8275
11527TIP3   OH255995   4.494   3.047  11.144 -0.1088  0.0839 -0.0222
11527TIP3    H155996   4.473   3.112  11.210 -0.6343 -0.3164  0.2153
11527TIP3    H255997   4.469   3.087  11.061  0.7914  0.6868 -0.0113
11528TIP3   OH255998   3.523   4.249  14.095  0.2680  0.1908 -0.1443
11528TIP3    H155999   3.440   4.246  14.047 -0.1141 -1.1658  0.5435
11528TIP3    H256000   3.576   4.180  14.054  0.9414  0.8306 -0.3616
11529TIP3   OH256001   6.221   4.148   3.512 -0.8655  0.1662 -0.2207
11529TIP3    H156002   6.313   4.169   3.492 -0.7895 -0.5297 -0.6316
11529TIP3    H256003   6.224   4.058   3.544 -1.2944  0.4627  0.6710
11530TIP3   OH256004   1.687   1.883   4.878 -0.4908  0.3505  0.0793
11530TIP3    H156005   1.726   1.843   4.956 -0.4780 -1.1887 -0.6689
11530TIP3    H256006   1.607   1.832   4.863  0.2595 -0.3632 -1.7386
11531TIP3   OH256007   5.861   3.875   2.285  0.3765 -0.1485 -0.3448
11531TIP3    H156008   5.873   3.881   2.379 -0.6823  0.6631 -0.2398
11531TIP3    H256009   5.805   3.949   2.263  0.2263 -0.5898 -1.5430
11532TIP3   OH256010   5.011   0.001  11.343  0.0843 -0.3651  0.1941
11532TIP3    H156011   4.936  -0.049  11.376  0.4083 -0.3967  0.8900
11532TIP3    H256012   5.085  -0.059  11.348  0.3948  0.0448  0.6421
11533TIP3   OH256013   0.342   0.287   5.077  0.1740  0.1217  0.2840
11533TIP3    H156014   0.350   0.192   5.067 -0.8412 -0.0223  0.7226
11533TIP3    H256015   0.257   0.309   5.037  0.3766  0.8391  0.2253
11534TIP3   OH256016   0.449   6.052  12.837  0.5333 -0.6658  0.2142
11534TIP3    H156017   0.463   6.143  12.811 -1.3998  0.5298  2.9307
11534TIP3    H256018   0.355   6.037  12.822  1.1080 -2.9280 -1.9299
11535TIP3   OH256019   5.298   5.203  14.353  0.0649  0.6295  0.0912
11535TIP3    H156020   5.247   5.162  14.423 -0.0617  3.0651  1.5262
11535TIP3    H256021   5.254   5.175  14.272 -1.2085 -0.3860  1.0859
11536TIP3   OH256022   0.119   6.432   6.668  0.1533 -0.3096  0.0680
11536TIP3    H156023   0.085   6.462   6.753  0.2456 -0.4641  0.1601
11536TIP3    H256024   0.186   6.497   6.645  0.6055 -0.6351  0.4404
11537TIP3   OH256025   4.652   1.320  16.438  0.0417  0.1031 -0.0534
11537TIP3    H156026   4.724   1.263  16.411  1.2209  0.9909  1.0807
11537TIP3    H256027   4.694   1.389  16.490 -1.6072  0.7658  0.4718
11538TIP3   OH256028   3.282   3.245   3.696  0.1252  0.2753  0.0471
11538TIP3    H156029   3.193   3.225   3.666  1.5468 -2.0475 -3.2440
11538TIP3    H256030   3.289   3.340   3.689 -1.8951  0.4441 -0.2350
11539TIP3   OH256031   1.247   2.136   2.432 -0.4914 -0.0967 -0.1147
11539TIP3    H156032   1.206   2.172   2.353  0.3612 -1.2025 -1.1052
11539TIP3    H256033   1.320   2.195   2.450 -1.3511  0.7971  0.5361
11540TIP3   OH256034   2.847   3.047  11.614  0.2342  0.0961 -0.2255
11540TIP3    H156035   2.758   3.019  11.635  0.9587 -1.5432  0.9216
11540TIP3    H256036   2.851   3.138  11.642 -0.5808 -0.3411  1.4262
11541TIP3   OH256037   1.567   0.702   4.591  0.1503  0.4477  0.1053
11541TIP3    H156038   1.559   0.679   4.683  1.1292  0.9571  0.3393
11541TIP3    H256039   1.630   0.774   4.590 -0.2148  0.7751 -0.9176
11542TIP3   OH256040   5.317   4.430   5.916 -0.2469 -0.5103  0.4080
11542TIP3    H156041   5.359   4.410   5.999  0.3370 -1.7030 -0.1526
11542TIP3    H256042   5.233   4.469   5.940  0.3429  0.1032  1.5458
11543TIP3   OH256043   1.941   5.370   1.704 -0.2905  0.5662 -0.5879
11543TIP3    H156044   2.001   5.434   1.741 -0.6277  1.5066 -1.6000
11543TIP3    H256045   1.856   5.389   1.745  0.0722 -0.7913  0.8763
11544TIP3   OH256046   1.847   5.476  10.762 -0.4272  0.0676 -0.6196
11544TIP3    H156047   1.844   5.381  10.755 -0.2938  0.0712 -0.7563
11544TIP3    H256048   1.756   5.504  10.755 -0.7445 -0.1925  1.8224
11545TIP3   OH256049   4.864   3.188  16.604  0.4290  0.0762 -0.8373
11545TIP3    H156050   4.813   3.113  16.573 -1.8422  1.2729 -0.2232
11545TIP3    H256051   4.905   3.157  16.685 -1.8296 -0.1037  0.3216
11546TIP3   OH256052   3.367   6.455  16.203  0.2116  0.5125 -0.4747
11546TIP3    H156053   3.427   6.513  16.155  2.0875  0.2198  1.3708
11546TIP3    H256054   3.303   6.514  16.243  1.0646  1.1713 -0.0388
11547TIP3   OH256055   4.865   1.111  16.548 -0.0731  0.4704 -0.3694
11547TIP3    H156056   4.816   1.029  16.545 -0.9266  1.0028 -1.9281
11547TIP3    H256057   4.927   1.105  16.475 -1.2336  1.8335 -1.5236
11548TIP3   OH256058   4.369   0.925   2.167 -0.4706  0.1241  0.0540
11548TIP3    H156059   4.294   0.873   2.196 -0.5823  0.1519 -0.1867
11548TIP3    H256060   4.377   0.994   2.234  0.8685 -1.2957  1.4571
11549TIP3   OH256061   0.632   2.495  11.553 -0.1077 -0.3610  0.0750
11549TIP3    H156062   0.583   2.414  11.547 -3.0082  0.9368  2.9972
11549TIP3    H256063   0.567   2.564  11.539  1.7706  1.4984 -0.1013
11550TIP3   OH256064   2.477   6.569  17.259  0.3919 -0.5081  0.9490
11550TIP3    H156065   2.385   6.596  17.262  0.6962  0.6836  0.3010
11550TIP3    H256066   2.498   6.547  17.349 -0.5976 -1.0621  1.0658
11551TIP3   OH256067   4.607   4.626   6.673  0.0694  0.2129  0.9790
11551TIP3    H156068   4.570   4.575   6.746  0.0230  2.8892  3.0112
11551TIP3    H256069   4.695   4.648   6.702  0.9025 -0.5684 -0.8686
11552TIP3   OH256070   1.903   0.716   0.953 -0.2536  1.0350 -0.0985
11552TIP3    H156071   1.972   0.706   0.887 -0.9361 -0.0831 -0.6981
11552TIP3    H256072   1.824   0.735   0.901 -0.6651  0.8393  0.4452
11553TIP3   OH256073   4.854   6.533   3.692  0.1032  0.0742  0.2651
11553TIP3    H156074   4.818   6.564   3.610 -0.5469  0.2524  0.6130
11553TIP3    H256075   4.824   6.442   3.699 -1.3952  0.5958  1.1588
11554TIP3   OH256076   1.031   3.202   3.692  0.1090 -0.6800  0.7979
11554TIP3    H156077   1.028   3.279   3.750  0.7066 -0.6309  0.7722
11554TIP3    H256078   0.971   3.223   3.621 -0.7676 -0.8052  1.4687
11555TIP3   OH256079   1.361   2.352   0.587  0.9286  0.1107 -0.0957
11555TIP3    H156080   1.383   2.282   0.525 -1.7578 -1.8502  0.9591
11555TIP3    H256081   1.272   2.377   0.565  1.1487  1.8359  0.8221
11556TIP3   OH256082   1.266   1.118  15.664  0.1978 -0.8151  0.0697
11556TIP3    H156083   1.217   1.156  15.592 -0.4473 -2.7101 -0.5638
11556TIP3    H256084   1.342   1.176  15.675 -0.9915  0.9009 -0.4294
11557TIP3   OH256085   4.815   3.053  11.602  0.0867 -0.0253  0.2771
11557TIP3    H156086   4.836   3.013  11.687  1.6578  0.0834 -0.0398
11557TIP3    H256087   4.763   2.987  11.557 -0.7968 -0.0780  1.3224
11558TIP3   OH256088   3.131   3.260   0.895 -0.2945  0.0381 -0.1240
11558TIP3    H156089   3.100   3.334   0.844  0.5479  1.0179  0.7255
11558TIP3    H256090   3.174   3.300   0.971  0.7606 -1.2989  0.0222
11559TIP3   OH256091   3.335   6.034   3.992  0.3076  0.6045  0.9151
11559TIP3    H156092   3.280   6.052   3.916  0.2058 -2.0769  0.2727
11559TIP3    H256093   3.396   6.108   3.995 -1.6374  2.3336  0.1134
11560TIP3   OH256094   0.538   6.377  16.418 -0.1834  0.2527  0.1758
11560TIP3    H156095   0.477   6.306  16.399  1.2731 -1.0659  0.2688
11560TIP3    H256096   0.481   6.449  16.447 -1.7006 -0.8618  0.1277
11561TIP3   OH256097   1.188   6.189   4.851 -0.4570 -0.1287  0.1125
11561TIP3    H156098   1.111   6.143   4.884 -1.1879 -0.3872 -1.8474
11561TIP3    H256099   1.254   6.177   4.920 -1.2828 -2.2768  0.6030
11562TIP3   OH256100   0.369   2.690  13.637  0.4032 -0.2141 -0.9335
11562TIP3    H156101   0.345   2.735  13.719  0.1207  1.0388 -1.6704
11562TIP3    H256102   0.458   2.659  13.651  1.1284  1.7762 -0.8435
11563TIP3   OH256103   6.617   1.317   2.130 -0.1646  0.0962 -0.3841
11563TIP3    H156104   6.582   1.232   2.154 -0.5414  0.1304 -0.7996
11563TIP3    H256105   6.544   1.378   2.142  0.4362  0.5835  1.1252
11564TIP3   OH256106   4.234   4.544  16.969 -0.2769 -0.2210 -0.1883
11564TIP3    H156107   4.326   4.537  16.943  0.2991 -1.7407  2.0182
11564TIP3    H256108   4.206   4.454  16.983 -1.9610  0.2588 -0.2688
11565TIP3   OH256109   4.522   0.241   2.224 -0.0369  0.3255  0.3425
11565TIP3    H156110   4.458   0.225   2.155 -0.5144 -1.2504  1.1209
11565TIP3    H256111   4.520   0.336   2.236  1.4012  0.9588 -3.0362
11566TIP3   OH256112   0.629   5.759   0.727 -0.6525  0.0763 -0.1648
11566TIP3    H156113   0.549   5.751   0.675  0.2961 -0.6176 -1.5739
11566TIP3    H256114   0.643   5.672   0.763 -1.2232  0.5180  1.1876
11567TIP3   OH256115   1.356   3.498   0.687 -0.2864 -0.3728 -0.0361
11567TIP3    H156116   1.355   3.404   0.708 -1.2690 -1.1249 -2.9551
11567TIP3    H256117   1.263   3.523   0.690 -0.0772  0.3707  0.1724
11568TIP3   OH256118   2.350   1.810   5.667  0.2246  0.0233  0.1011
11568TIP3    H156119   2.334   1.716   5.669  1.1226 -0.1757 -0.7743
11568TIP3    H256120   2.437   1.820   5.707  1.5957  0.0588 -2.6356
11569TIP3   OH256121   6.638   4.280   0.553  0.8199  0.2508  0.3313
11569TIP3    H156122   6.648   4.365   0.597  0.0770  0.2310  0.5477
11569TIP3    H256123   6.544   4.268   0.545  0.9000  0.6086 -1.9648
11570TIP3   OH256124   0.986   2.843  11.285 -0.5968  0.2675 -0.1360
11570TIP3    H156125   0.953   2.753  11.283  0.5147 -0.1528 -0.1241
11570TIP3    H256126   1.072   2.838  11.243 -0.3369  1.2476  0.2565
11571TIP3   OH256127   6.240   5.797  13.321 -0.0455 -0.0092  0.4383
11571TIP3    H156128   6.301   5.724  13.330 -0.0888 -0.1341 -0.2708
11571TIP3    H256129   6.153   5.758  13.336 -0.0885 -0.1545 -0.1504
11572TIP3   OH256130   0.699   4.647   5.659  0.0453  0.2755 -0.1446
11572TIP3    H156131   0.730   4.579   5.719  0.7284  2.2600  1.8621
11572TIP3    H256132   0.634   4.602   5.605 -0.9695 -1.5513  2.3825
11573TIP3   OH256133   3.634   5.251   2.610  0.5632  0.4668  0.3581
11573TIP3    H156134   3.677   5.335   2.629 -1.6102  1.7642 -0.1282
11573TIP3    H256135   3.585   5.267   2.530  0.0476 -1.2788  0.2934
11574TIP3   OH256136   6.009   1.353   3.173 -0.1983 -0.1217 -0.3004
11574TIP3    H156137   6.065   1.281   3.200  1.2793  0.4860 -1.6081
11574TIP3    H256138   5.924   1.312   3.156  0.1503 -1.2590  0.5571
11575TIP3   OH256139   2.213   1.762  17.036 -0.4879  0.2331 -0.3999
11575TIP3    H156140   2.302   1.728  17.032 -0.8354 -0.6501 -0.7244
11575TIP3    H256141   2.195   1.793  16.947 -0.1784  1.3018 -0.1135
11576TIP3   OH256142   5.112   3.443   1.114 -0.1414 -0.3745 -0.4292
11576TIP3    H156143   5.111   3.381   1.041 -0.8645  0.8290 -1.4925
11576TIP3    H256144   5.201   3.476   1.117 -0.2798  0.1114 -1.2759
11577TIP3   OH256145   6.658   2.557   4.632 -0.2902  0.2908  0.2392
11577TIP3    H156146   6.579   2.506   4.648 -0.5308  0.6084  0.0601
11577TIP3    H256147   6.725   2.515   4.686 -0.9199  0.9329  1.5509
11578TIP3   OH256148   0.721   1.397   2.288 -0.3307 -0.0288  0.1470
11578TIP3    H156149   0.773   1.458   2.236 -0.9210 -1.0542 -1.7309
11578TIP3    H256150   0.674   1.344   2.223 -0.6281 -1.7928  1.7238
11579TIP3   OH256151   1.880   2.890  10.819 -0.0075 -0.0419  0.2275
11579TIP3    H156152   1.923   2.957  10.766 -0.0668  1.4578  1.9724
11579TIP3    H256153   1.900   2.808  10.775 -1.8388  1.2016 -3.3363
11580TIP3   OH256154   4.883   5.135   1.559 -0.3011  0.0418 -0.2823
11580TIP3    H156155   4.890   5.117   1.652 -5.0049 -0.7102  0.1644
11580TIP3    H256156   4.837   5.219   1.554  1.1992  0.8224 -2.0186
11581TIP3   OH256157   5.704   0.382   5.847 -0.3320 -0.1096 -0.1892
11581TIP3    H156158   5.764   0.334   5.905  0.5829 -0.0607 -1.0649
11581TIP3    H256159   5.634   0.411   5.904  1.6309  1.8922  1.4006
11582TIP3   OH256160   5.726   0.949   4.431 -0.3607  0.4957 -0.1719
11582TIP3    H156161   5.753   0.994   4.511  0.1372  1.3425 -0.8061
11582TIP3    H256162   5.670   1.012   4.385 -0.4077  0.1272 -0.6322
11583TIP3   OH256163   5.727   6.450   6.424  0.3401  0.2968  0.1867
11583TIP3    H156164   5.739   6.435   6.518  1.1591  0.8351  0.1842
11583TIP3    H256165   5.740   6.364   6.384  1.7448  0.3691  0.4322
11584TIP3   OH256166   4.879   4.860  12.033 -0.0725  0.0720  0.7547
11584TIP3    H156167   4.847   4.951  12.036  1.4793  0.7125 -0.5858
11584TIP3    H256168   4.805   4.810  11.999 -0.2974  1.2140 -0.5584
11585TIP3   OH256169   2.515   3.564  12.294 -0.1491  0.2798  0.1175
11585TIP3    H156170   2.572   3.566  12.370  0.1171 -2.6757  0.1393
11585TIP3    H256171   2.427   3.578  12.329  0.0074 -0.7420  0.9492
11586TIP3   OH256172   6.392   3.290  12.625 -0.0606  0.1991 -0.2691
11586TIP3    H156173   6.453   3.239  12.680 -0.8166 -1.6246 -1.0521
11586TIP3    H256174   6.308   3.282  12.670 -0.4585 -0.3899 -1.1111
11587TIP3   OH256175   1.042   3.503   1.178 -0.1560  0.0345 -0.2042
11587TIP3    H156176   1.101   3.561   1.227  1.0198 -1.8876  0.7550
11587TIP3    H256177   1.042   3.541   1.089  1.5234  0.8415  0.0827
11588TIP3   OH256178   5.924   5.714   0.526  0.3618  0.6929 -0.1607
11588TIP3    H156179   5.885   5.783   0.580  0.7625  0.5639  0.2954
11588TIP3    H256180   6.018   5.733   0.526  0.4730  0.1623 -0.0523
11589TIP3   OH256181   0.904   3.570  11.284 -0.3358  0.2954  0.7171
11589TIP3    H156182   0.867   3.623  11.214  0.0512  1.4565  1.3559
11589TIP3    H256183   0.836   3.507  11.306 -0.3226 -0.3262 -0.9297
11590TIP3   OH256184   2.720   4.679   4.599  0.0027 -0.5307  0.2898
11590TIP3    H156185   2.794   4.631   4.635  0.5653 -0.0830 -0.2698
11590TIP3    H256186   2.646   4.618   4.609  0.9662 -2.1567 -1.7541
11591TIP3   OH256187   4.852   5.495  17.262  0.4152  0.6313  0.0866
11591TIP3    H156188   4.764   5.475  17.228 -0.0012  1.2973  0.7483
11591TIP3    H256189   4.886   5.561  17.202  1.0066 -0.5715 -0.9453
11592TIP3   OH256190   5.655   0.082  14.273 -0.4396  0.1375 -0.2381
11592TIP3    H156191   5.683   0.016  14.209  0.9739  0.7866 -0.3240
11592TIP3    H256192   5.613   0.031  14.343  2.2239 -1.1359  0.5912
11593TIP3   OH256193   3.224   4.435   4.470 -0.2017 -0.5590  0.0703
11593TIP3    H156194   3.230   4.454   4.564  0.0603  1.4812 -0.3115
11593TIP3    H256195   3.129   4.431   4.453 -0.2523 -0.7690  0.3882
11594TIP3   OH256196   1.278   4.602   5.546 -0.1162 -0.1532  0.0112
11594TIP3    H156197   1.202   4.621   5.602 -0.3435 -1.6944  0.2702
11594TIP3    H256198   1.255   4.640   5.461 -1.4789 -1.1105 -0.0879
11595TIP3   OH256199   2.009   5.710   6.367 -0.2186  0.1212  0.0430
11595TIP3    H156200   1.925   5.734   6.328 -1.3028 -0.4922  1.9062
11595TIP3    H256201   1.994   5.623   6.404  1.3774 -0.1793  0.0517
11596TIP3   OH256202   3.948   4.042  16.002 -0.1062  0.6922 -0.1513
11596TIP3    H156203   4.028   4.094  15.987 -0.3664  1.0268 -0.3962
11596TIP3    H256204   3.926   4.006  15.916  0.9920 -1.2058  0.3003
11597TIP3   OH256205   3.275   3.620   2.469  0.6258 -0.1615 -0.2913
11597TIP3    H156206   3.186   3.617   2.435  0.5637  0.1022 -0.1463
11597TIP3    H256207   3.300   3.712   2.466  0.6846 -0.1578  0.2196
11598TIP3   OH256208   4.827   0.984   3.642  0.2445 -0.1008  0.3558
11598TIP3    H156209   4.789   0.901   3.671  0.9504 -0.3235  0.6836
11598TIP3    H256210   4.760   1.024   3.586 -0.0568 -0.9354  0.1156
11599TIP3   OH256211   4.903   5.852   0.526 -0.0864 -0.1579  0.1242
11599TIP3    H156212   4.855   5.930   0.554 -2.5300 -1.5121 -0.0166
11599TIP3    H256213   4.926   5.871   0.435  0.1072  0.7329  0.3433
11600TIP3   OH256214   4.991   3.565   3.227 -0.4484 -0.2106  0.2583
11600TIP3    H156215   5.068   3.591   3.277 -1.4829  0.1891  1.7051
11600TIP3    H256216   4.963   3.483   3.268 -0.9911 -0.1687 -0.0208
11601TIP3   OH256217   0.038   5.635   6.067  0.9569 -0.3568 -0.4489
11601TIP3    H156218  -0.030   5.605   6.128  2.5806 -1.4307  0.9422
11601TIP3    H256219   0.120   5.618   6.113  2.2299 -0.1439 -2.5216
11602TIP3   OH256220   4.397   1.007  11.301  0.2064 -0.2780 -0.2304
11602TIP3    H156221   4.326   1.061  11.264  0.0711 -1.2102 -1.3994
11602TIP3    H256222   4.369   0.917  11.285  0.8417 -0.6870  0.9045
11603TIP3   OH256223   1.472   1.792  12.473 -0.1496 -0.5221 -0.6029
11603TIP3    H156224   1.510   1.742  12.401  3.0119  0.8309 -0.0199
11603TIP3    H256225   1.463   1.881  12.438  1.0050  0.0465  0.4999
11604TIP3   OH256226   0.722   3.695   3.781 -0.0794 -0.1386  0.2825
11604TIP3    H156227   0.771   3.729   3.856 -1.2091 -1.7003  1.8003
11604TIP3    H256228   0.663   3.629   3.818 -2.3106  0.6060 -1.6462
11605TIP3   OH256229   3.073   5.207  11.565  1.0692  0.2866  0.2669
11605TIP3    H156230   3.106   5.172  11.482 -0.5002 -0.4152 -0.0834
11605TIP3    H256231   3.070   5.301  11.551 -3.0270  0.0141 -2.0679
11606TIP3   OH256232   1.088   0.594   5.967  0.3011  0.2581 -0.3843
11606TIP3    H156233   1.016   0.570   6.025 -0.1279 -0.7188 -1.2838
11606TIP3    H256234   1.127   0.510   5.942  0.2440  0.6130 -1.7592
11607TIP3   OH256235   5.329   6.747   0.868  0.2111  0.4041  0.1537
11607TIP3    H156236   5.386   6.684   0.824 -0.0781 -0.0854  0.4761
11607TIP3    H256237   5.243   6.734   0.828  0.0191  0.1868  0.6311
11608TIP3   OH256238   0.621   2.678  17.095 -0.5881 -0.4682  0.7681
11608TIP3    H156239   0.530   2.651  17.087 -0.4214 -1.2687  1.3722
11608TIP3    H256240   0.654   2.629  17.171 -0.0162  0.7890  1.3663
11609TIP3   OH256241   5.907   5.354   4.190  0.0344  0.0206  0.2209
11609TIP3    H156242   5.851   5.310   4.254 -2.0992  0.0735 -1.5203
11609TIP3    H256243   5.882   5.446   4.195 -0.0742  0.0424 -0.6062
11610TIP3   OH256244   4.058   0.222  15.793  0.2894  0.5679  0.1263
11610TIP3    H156245   4.024   0.200  15.879  0.6311  2.7774  0.8806
11610TIP3    H256246   4.153   0.211  15.800  0.3516  1.0993  0.1475
11611TIP3   OH256247   4.631   1.463   3.817  0.5099 -0.1589  0.2420
11611TIP3    H156248   4.614   1.372   3.841 -1.1394  0.1704  0.3853
11611TIP3    H256249   4.588   1.515   3.885 -0.1542  0.7384 -0.8196
11612TIP3   OH256250   2.875   2.727   5.242 -0.2798 -0.6231  0.2058
11612TIP3    H156251   2.829   2.706   5.161  2.5346  1.2067 -2.0696
11612TIP3    H256252   2.823   2.797   5.282 -0.4889  0.1309 -1.3316
11613TIP3   OH256253   6.364   2.826  11.453 -0.6067  1.1319 -0.2461
11613TIP3    H156254   6.310   2.773  11.394  0.2595  0.6356 -0.5987
11613TIP3    H256255   6.384   2.905  11.402  2.3939 -0.4249 -1.7495
11614TIP3   OH256256   0.885   2.367  11.539 -0.3636  0.1434  0.0017
11614TIP3    H156257   0.799   2.410  11.542 -1.0112 -1.0901 -0.3940
11614TIP3    H256258   0.875   2.297  11.475  0.9269 -0.0620 -0.0009
11615TIP3   OH256259   5.788   4.322  15.931 -0.3233  0.4066 -0.3860
11615TIP3    H156260   5.773   4.374  15.852 -1.8254  0.1981 -0.2486
11615TIP3    H256261   5.800   4.387  16.001  0.0626  0.5743 -0.6016
11616TIP3   OH256262   0.336   4.616   1.885 -0.2251  0.0809 -0.4290
11616TIP3    H156263   0.349   4.544   1.823  1.2214  0.2667 -0.3827
11616TIP3    H256264   0.279   4.580   1.953 -3.0866  0.2989 -2.5111
11617TIP3   OH256265   5.741   2.748   0.614  0.0872  0.3671 -0.0821
11617TIP3    H156266   5.669   2.793   0.570  0.4909  2.7421  1.5400
11617TIP3    H256267   5.699   2.674   0.658 -0.9933  0.4492 -0.9320
11618TIP3   OH256268   5.931   3.844   2.544  0.1262 -0.1995  0.8960
11618TIP3    H156269   5.865   3.814   2.606  0.7607 -2.4112  0.6137
11618TIP3    H256270   6.001   3.779   2.551  0.1136 -0.7502 -2.3133
11619TIP3   OH256271   6.056   5.423   3.336 -0.0042  0.2879 -0.0701
11619TIP3    H156272   6.058   5.329   3.351  0.2540  0.1329 -1.0385
11619TIP3    H256273   6.145   5.453   3.356  0.1513  0.1877 -0.6016
11620TIP3   OH256274   2.327   1.201   4.071  0.3289  0.0696  0.1742
11620TIP3    H156275   2.391   1.130   4.085  0.5139  0.2838  0.4216
11620TIP3    H256276   2.304   1.229   4.159 -2.1417 -1.7894  0.2244
11621TIP3   OH256277   3.479   3.677  14.565 -0.4932 -0.3680 -0.2618
11621TIP3    H156278   3.442   3.601  14.519 -1.5801  1.4721 -2.5933
11621TIP3    H256279   3.553   3.705  14.511 -1.9723  2.0239 -1.1940
11622TIP3   OH256280   2.311   6.006   2.974 -0.6225 -0.5517  0.6784
11622TIP3    H156281   2.227   6.045   3.000 -1.6791 -1.0188 -1.6847
11622TIP3    H256282   2.288   5.949   2.900  1.8059 -0.6180 -0.1064
11623TIP3   OH256283   3.570   3.551   4.341  0.3122 -0.1050 -0.1947
11623TIP3    H156284   3.492   3.607   4.331  0.1204 -0.4321 -0.5411
11623TIP3    H256285   3.562   3.514   4.429 -0.1835 -0.5257 -0.4133
11624TIP3   OH256286   2.546   5.664   0.482 -0.1392 -0.1470  0.0467
11624TIP3    H156287   2.499   5.737   0.521 -1.5538 -1.0461  0.1093
11624TIP3    H256288   2.638   5.686   0.493 -0.5097  0.6869  1.8399
11625TIP3   OH256289   2.781   1.860   4.334 -0.4727  0.2236  0.4016
11625TIP3    H156290   2.698   1.811   4.334 -0.3254 -0.0294  0.5860
11625TIP3    H256291   2.759   1.943   4.377 -0.9797  0.7729 -0.8650
11626TIP3   OH256292   3.044   6.151   5.923  0.1797  0.2970  0.1425
11626TIP3    H156293   3.007   6.204   5.852  0.7351 -0.4040 -0.6932
11626TIP3    H256294   3.059   6.213   5.994 -0.7756  0.9470 -0.1910
11627TIP3   OH256295   2.765   3.635   6.276  0.2687 -0.1502 -0.3835
11627TIP3    H156296   2.771   3.730   6.288  0.3619 -0.1081 -0.7493
11627TIP3    H256297   2.776   3.599   6.364 -3.1047  0.2915  0.3697
11628TIP3   OH256298   3.469   2.609  11.507 -0.3228 -0.4296 -0.4984
11628TIP3    H156299   3.546   2.579  11.459  0.4469  2.8197 -1.5230
11628TIP3    H256300   3.498   2.615  11.598  0.7497  0.9488 -0.9017
11629TIP3   OH256301   4.346   1.041   3.353 -0.0213  0.3173  0.2929
11629TIP3    H156302   4.439   1.061   3.340 -0.0277  0.1616 -0.0030
11629TIP3    H256303   4.302   1.080   3.278  0.2757 -3.0982 -1.8858
11630TIP3   OH256304   0.010   3.630   4.565  0.4266  0.6237 -0.1115
11630TIP3    H156305   0.022   3.666   4.653 -1.6602  1.1368  0.0296
11630TIP3    H256306  -0.078   3.592   4.567  0.4635  0.3641 -1.8875
11631TIP3   OH256307   1.281   0.848  14.930 -0.6045  0.2313  0.0098
11631TIP3    H156308   1.227   0.834  14.852  0.4635 -1.4448 -0.4684
11631TIP3    H256309   1.371   0.848  14.897  0.0461 -2.7488  1.4179
11632TIP3   OH256310   5.186   0.770  15.884 -0.4941 -0.7409 -0.3106
11632TIP3    H156311   5.211   0.730  15.801 -0.5159  0.5944 -0.9954
11632TIP3    H256312   5.098   0.736  15.901 -0.3392 -1.3173 -0.6316
11633TIP3   OH256313   1.581   6.508  14.473 -0.3748 -0.0837 -0.8482
11633TIP3    H156314   1.489   6.534  14.482 -0.3987 -0.5066  0.3237
11633TIP3    H256315   1.596   6.449  14.546  1.1351  0.7815 -0.4247
11634TIP3   OH256316   4.250   1.494   2.365 -0.5216  0.3669  0.0581
11634TIP3    H156317   4.210   1.551   2.430  0.0341  1.9900 -0.9475
11634TIP3    H256318   4.344   1.515   2.369 -0.3004 -0.5100 -0.3039
11635TIP3   OH256319   1.391   1.376  11.554  0.1781 -0.2379 -0.3140
11635TIP3    H156320   1.323   1.376  11.621 -0.6942 -0.8877 -1.1770
11635TIP3    H256321   1.412   1.469  11.541 -1.5878  0.0922 -1.0543
11636TIP3   OH256322   4.563   2.351   4.683  0.5834  0.2256 -0.2269
11636TIP3    H156323   4.552   2.367   4.777 -1.1545 -2.9092  0.2314
11636TIP3    H256324   4.500   2.409   4.641  1.9486  2.2806  0.3641
11637TIP3   OH256325   6.183   1.271   0.392  0.2429 -0.2702 -0.2598
11637TIP3    H156326   6.155   1.235   0.308  0.3124 -1.4577  0.2190
11637TIP3    H256327   6.187   1.366   0.377  1.0961 -0.5323 -1.8365
11638TIP3   OH256328   3.629   2.385  17.185 -0.2093 -0.6922  0.4503
11638TIP3    H156329   3.592   2.300  17.208  0.8468 -1.3092 -0.0610
11638TIP3    H256330   3.643   2.428  17.269 -1.2584 -0.7912  0.6889
11639TIP3   OH256331   2.826   4.721   0.126 -0.2870 -0.1401  0.1754
11639TIP3    H156332   2.906   4.704   0.076 -0.5871 -0.1159 -0.3119
11639TIP3    H256333   2.796   4.806   0.095 -0.9466 -0.5175 -0.2200
11640TIP3   OH256334   1.916   5.135   0.987 -0.3186  0.3025 -0.7391
11640TIP3    H156335   1.951   5.124   1.076 -0.4793  0.9622 -0.5905
11640TIP3    H256336   1.966   5.073   0.934 -0.2642 -0.1440 -0.1796
11641TIP3   OH256337   1.857   6.035  13.131  0.0778  0.6907  0.4058
11641TIP3    H156338   1.917   6.002  13.064 -0.6168  0.4704 -0.1138
11641TIP3    H256339   1.790   6.084  13.082 -0.6365  0.2242  0.8982
11642TIP3   OH256340   0.539   1.912  14.915  0.1361  0.2003  0.1708
11642TIP3    H156341   0.516   1.957  14.834  1.9652 -0.0184 -0.5149
11642TIP3    H256342   0.627   1.943  14.937 -0.7413  1.1620  2.7744
11643TIP3   OH256343   0.342   2.727   4.600 -0.2160  0.4635 -0.2055
11643TIP3    H156344   0.251   2.718   4.573  0.0460 -0.2455 -0.9027
11643TIP3    H256345   0.391   2.730   4.518  0.2583  2.7744  0.1007
11644TIP3   OH256346   5.660   3.364  17.166 -0.6750 -0.7537 -0.1295
11644TIP3    H156347   5.654   3.454  17.135 -1.3628 -0.8947 -0.4159
11644TIP3    H256348   5.753   3.352  17.185 -0.9179  0.9651  2.7885
11645TIP3   OH256349   5.232   3.667   0.518 -0.2670  0.2089  0.5674
11645TIP3    H156350   5.256   3.694   0.430 -1.6096 -1.5837 -0.4065
11645TIP3    H256351   5.310   3.683   0.571  0.9757  0.1685 -1.1947
11646TIP3   OH256352   6.143   3.016  14.752  0.4398  0.5354 -0.0809
11646TIP3    H156353   6.088   3.051  14.823  1.3764  0.4594  0.6996
11646TIP3    H256354   6.231   3.016  14.788  0.8023 -0.3928 -0.9230
11647TIP3   OH256355   1.371   6.041  15.035 -0.3916 -0.1383 -0.1897
11647TIP3    H156356   1.420   6.124  15.037 -0.7321  0.0578  0.0404
11647TIP3    H256357   1.423   5.984  14.978 -1.2965  0.9579 -2.2290
11648TIP3   OH256358   3.848   1.364   0.479 -0.2937 -0.2887  0.0222
11648TIP3    H156359   3.771   1.412   0.448 -0.2472 -0.2901 -0.0959
11648TIP3    H256360   3.905   1.432   0.515 -0.3158 -0.2790  0.0391
11649TIP3   OH256361   5.588   1.578   0.919  0.0203  0.1650 -0.2503
11649TIP3    H156362   5.579   1.637   0.844  0.9783 -0.9607 -1.3045
11649TIP3    H256363   5.629   1.500   0.883 -0.0442 -0.6515  1.3528
11650TIP3   OH256364   0.598   1.948  11.826  0.3189  0.5721 -0.2193
11650TIP3    H156365   0.639   1.863  11.811 -0.1716  0.3394 -0.2794
11650TIP3    H256366   0.663   2.012  11.798 -0.0201  0.1888 -2.0094
11651TIP3   OH256367   1.956   0.030  13.881 -0.4125  0.6916  0.5658
11651TIP3    H156368   2.020  -0.009  13.821 -0.3534  0.7342  0.6007
11651TIP3    H256369   2.009   0.078  13.944 -0.4178 -0.1544  1.2362
11652TIP3   OH256370   6.437   3.268   3.122  0.1477  0.3946 -0.6847
11652TIP3    H156371   6.504   3.336   3.118  0.2089  0.2772 -2.4515
11652TIP3    H256372   6.374   3.292   3.054 -2.3984  1.2376  1.7685
11653TIP3   OH256373   1.002   5.451   0.917  0.1699 -0.4464 -0.8710
11653TIP3    H156374   0.956   5.513   0.974 -0.1711 -0.7011 -0.8698
11653TIP3    H256375   1.006   5.370   0.968  2.4653  0.1431 -0.0067
11654TIP3   OH256376   3.604   4.627  12.114  0.3941 -0.2961  0.5777
11654TIP3    H156377   3.567   4.708  12.148  0.4700  0.4876 -1.0948
11654TIP3    H256378   3.624   4.646  12.022 -1.0579 -2.6882 -0.3209
11655TIP3   OH256379   4.759   5.273   2.883 -0.0124  0.4225  0.5882
11655TIP3    H156380   4.837   5.320   2.913  0.1502  0.8466 -0.4485
11655TIP3    H256381   4.689   5.338   2.887  0.4874  1.2635 -2.1898
11656TIP3   OH256382   1.572   1.812  16.658 -0.4337 -0.3908  0.3031
11656TIP3    H156383   1.643   1.774  16.709  0.6447  0.6430 -0.3905
11656TIP3    H256384   1.512   1.738  16.642  1.5242 -1.8222 -0.9027
11657TIP3   OH256385   2.274   6.588   3.784 -0.3748  0.2628  1.2668
11657TIP3    H156386   2.255   6.498   3.758  0.1396 -0.3407  2.8965
11657TIP3    H256387   2.250   6.640   3.707  0.1845 -1.3321 -0.0585
11658TIP3   OH256388   6.643   1.052  11.754  0.1116 -0.0436 -0.2488
11658TIP3    H156389   6.608   1.141  11.743 -0.1500 -0.1957 -0.6987
11658TIP3    H256390   6.674   1.028  11.667  1.0222 -0.0539  0.0668
11659TIP3   OH256391   5.661   1.672  16.388  0.1595  0.0634  0.1360
11659TIP3    H156392   5.682   1.681  16.295 -0.5404 -0.7327 -0.1160
11659TIP3    H256393   5.607   1.748  16.408  2.8682  1.9938  0.7204
11660TIP3   OH256394   0.303   3.942  16.412  0.0871 -0.3897  0.0136
11660TIP3    H156395   0.318   3.873  16.347 -3.0223  1.2782 -2.7778
11660TIP3    H256396   0.367   4.010  16.391  0.3086 -0.6287 -0.0898
11661TIP3   OH256397   2.750   6.299  13.845 -0.3722  0.2272 -0.1934
11661TIP3    H156398   2.819   6.364  13.831  0.2857 -0.1573  1.1565
11661TIP3    H256399   2.751   6.246  13.764  1.1373  0.0391 -0.0825
11662TIP3   OH256400   1.592   0.319  14.371 -0.1007 -0.2886 -0.5596
11662TIP3    H156401   1.549   0.244  14.413 -1.4501  0.8740  0.2707
11662TIP3    H256402   1.672   0.332  14.421 -0.5955 -0.3016  0.2700
11663TIP3   OH256403   3.611   2.692  14.189  0.2572  0.0530 -0.3336
11663TIP3    H156404   3.572   2.656  14.269  0.6611  0.7489  0.1909
11663TIP3    H256405   3.703   2.666  14.193  0.6625  1.4618  0.2779
11664TIP3   OH256406   5.568   6.647  13.551 -0.3369 -0.2663  0.1979
11664TIP3    H156407   5.651   6.601  13.559 -0.0196  0.5388  2.2602
11664TIP3    H256408   5.578   6.703  13.474  1.6385  0.9168  1.2388
11665TIP3   OH256409   4.688   3.777  11.429  0.3454 -0.6069  0.1883
11665TIP3    H156410   4.631   3.726  11.370 -1.5353  1.4788  0.0555
11665TIP3    H256411   4.685   3.866  11.393  2.3822 -0.0747  1.2086
11666TIP3   OH256412   6.374   5.799  16.773  0.2466  0.4498 -0.3693
11666TIP3    H156413   6.305   5.811  16.708 -1.0390  0.4186  0.9578
11666TIP3    H256414   6.354   5.863  16.841  0.6478 -0.5890  0.7544
11667TIP3   OH256415   3.961   5.189  12.771  0.6083  0.0748  0.8412
11667TIP3    H156416   3.963   5.201  12.676  1.8899  1.4739  1.0189
11667TIP3    H256417   3.896   5.253  12.801 -1.8245 -2.1753  0.7399
11668TIP3   OH256418   2.755   6.322  15.653  0.3710  0.0213 -0.1564
11668TIP3    H156419   2.765   6.379  15.729 -0.0418  0.0828 -0.1491
11668TIP3    H256420   2.832   6.265  15.656 -0.1558 -0.6500  0.8734
11669TIP3   OH256421   3.032   0.599   1.314  0.6422  0.2717 -0.6390
11669TIP3    H156422   3.123   0.617   1.335  0.3870 -0.4642  1.3515
11669TIP3    H256423   3.025   0.504   1.314 -0.4990  0.2897  1.3593
11670TIP3   OH256424   0.920   0.260   5.274  0.5866  0.4206  0.1522
11670TIP3    H156425   0.878   0.308   5.202 -1.5419 -2.2701 -0.5793
11670TIP3    H256426   1.009   0.246   5.243 -0.2422 -0.6061 -2.0311
11671TIP3   OH256427   3.827   3.971   1.187 -0.1885 -0.0896  1.0248
11671TIP3    H156428   3.846   3.879   1.173  2.3874  0.1687  2.2640
11671TIP3    H256429   3.749   3.971   1.243 -0.1231 -1.5210  1.1524
11672TIP3   OH256430   0.117   3.973   2.998  0.1451  0.4079 -0.0822
11672TIP3    H156431   0.167   3.916   2.940  0.4704  2.0029 -1.4281
11672TIP3    H256432   0.157   3.962   3.084  0.5546 -0.9419 -0.4317
11673TIP3   OH256433   6.376   2.083   5.231  0.3872  0.3763  0.5227
11673TIP3    H156434   6.400   1.996   5.262 -2.0547 -0.6321 -0.2108
11673TIP3    H256435   6.388   2.140   5.307  0.2624 -0.9394  1.5697
11674TIP3   OH256436   4.651   0.351   4.112 -0.7696  0.4307  0.2510
11674TIP3    H156437   4.641   0.348   4.207 -1.7948 -0.0166  0.1344
11674TIP3    H256438   4.640   0.260   4.083  1.3857  0.2265 -0.1415
11675TIP3   OH256439   3.598   1.075  11.454  0.5050  0.0354 -0.9611
11675TIP3    H156440   3.608   1.170  11.464  0.9338 -0.2781  3.6808
11675TIP3    H256441   3.504   1.060  11.460  0.4810  0.0968 -1.1605
11676TIP3   OH256442   2.591   3.443   6.350  0.1886 -0.1059  0.0133
11676TIP3    H156443   2.593   3.468   6.443  1.0793 -0.8506  0.2052
11676TIP3    H256444   2.683   3.440   6.324 -0.0716  0.8342 -1.1082
11677TIP3   OH256445   1.990   1.419   0.631 -0.5510  0.5000 -0.7910
11677TIP3    H156446   2.035   1.500   0.654 -2.1609  0.8455  1.4797
11677TIP3    H256447   1.899   1.444   0.618 -0.7906 -0.7173 -1.7239
11678TIP3   OH256448   6.703   2.518   3.996 -0.1003  0.3432  0.5195
11678TIP3    H156449   6.730   2.604   3.963  0.7699  0.0328  0.3957
11678TIP3    H256450   6.643   2.484   3.930  1.9945 -0.4783 -1.0411
11679TIP3   OH256451   3.282   0.847   2.861  0.0864 -0.2681 -0.4697
11679TIP3    H156452   3.195   0.877   2.835 -1.3565 -2.0016  1.9218
11679TIP3    H256453   3.327   0.927   2.889 -1.9841  0.3546  1.3932
11680TIP3   OH256454   3.935   3.828   3.345 -0.3693  0.3592  0.2474
11680TIP3    H156455   3.964   3.868   3.427 -0.4320 -1.8384  1.4105
11680TIP3    H256456   3.854   3.873   3.324  0.6218  2.2728  0.3288
11681TIP3   OH256457   6.400   1.624  17.103 -0.1915  0.0155 -0.7573
11681TIP3    H156458   6.390   1.535  17.067  1.1779 -0.0944 -0.9158
11681TIP3    H256459   6.478   1.658  17.060  1.0140  0.1993  1.4508
11682TIP3   OH256460   1.926   2.428   4.990  0.1436 -0.1835 -0.1907
11682TIP3    H156461   1.906   2.353   5.046  1.4250 -0.2229  0.2573
11682TIP3    H256462   1.848   2.483   4.994 -0.0162 -0.4706  1.1853
11683TIP3   OH256463   6.236   5.390  12.985 -0.3451  0.3148 -0.2334
11683TIP3    H156464   6.186   5.319  12.944 -0.4127 -0.4334  1.0811
11683TIP3    H256465   6.298   5.345  13.043  0.2905  1.3145 -0.1150
11684TIP3   OH256466   5.941   0.659  16.550 -0.1733 -0.1696 -0.6292
11684TIP3    H156467   5.899   0.633  16.632 -0.0405  2.0955  0.2231
11684TIP3    H256468   5.867   0.677  16.491 -0.3700  0.7375 -0.1357
11685TIP3   OH256469   6.489   3.626  16.182 -0.0510  0.3834 -0.1863
11685TIP3    H156470   6.571   3.658  16.218  0.3900 -0.2032 -0.6562
11685TIP3    H256471   6.427   3.634  16.255  0.3862  0.9370  0.1380
11686TIP3   OH256472   5.660   1.846  13.597  0.4156 -0.0436  0.0658
11686TIP3    H156473   5.705   1.837  13.681  0.9656  1.6349 -0.0103
11686TIP3    H256474   5.675   1.762  13.553 -0.2369 -1.1124  1.7806
11687TIP3   OH256475   3.642   0.713   5.052  0.7286  0.5436 -0.2634
11687TIP3    H156476   3.601   0.631   5.024  1.9628 -0.6196  1.1310
11687TIP3    H256477   3.619   0.776   4.984 -3.1693 -0.0270  0.2872
11688TIP3   OH256478   1.175   4.507   4.310 -0.3476 -0.1606 -0.7104
11688TIP3    H156479   1.119   4.492   4.234  0.4839  1.6784 -1.7489
11688TIP3    H256480   1.117   4.496   4.385 -1.4372 -0.9731 -1.6419
11689TIP3   OH256481   0.765   2.711  15.637 -0.0484  0.6219  0.4048
11689TIP3    H156482   0.757   2.644  15.705  0.2350  0.2064  0.0355
11689TIP3    H256483   0.857   2.738  15.642 -0.0768  0.7317  0.3196
11690TIP3   OH256484   4.243   2.547  11.806 -0.4932 -0.3662  0.2227
11690TIP3    H156485   4.294   2.618  11.767  0.8131 -0.3953  1.7760
11690TIP3    H256486   4.258   2.472  11.748  1.4989 -0.4425  0.7821
11691TIP3   OH256487   1.356   2.678   1.403  0.2480  0.2297  0.1830
11691TIP3    H156488   1.449   2.655   1.412 -0.3771 -3.1158 -0.4038
11691TIP3    H256489   1.321   2.669   1.492  0.4564  1.4672  0.3998
11692TIP3   OH256490   3.045   6.423  14.962 -0.2817 -0.7311  0.0770
11692TIP3    H156491   3.055   6.364  14.887 -1.3850 -0.3878 -0.3587
11692TIP3    H256492   3.135   6.441  14.990  0.1191 -1.5703 -0.5968
11693TIP3   OH256493   4.451   3.469   3.476 -0.0625 -0.0387  0.3168
11693TIP3    H156494   4.423   3.550   3.519 -0.6870  0.5744 -1.1951
11693TIP3    H256495   4.406   3.400   3.524 -0.4054  0.5844  0.9158
11694TIP3   OH256496   6.279   3.690   4.061 -0.3572 -0.6483  0.0816
11694TIP3    H156497   6.302   3.639   3.983 -2.8753 -1.9634  0.0653
11694TIP3    H256498   6.196   3.733   4.038 -0.9751 -0.7751  1.8711
11695TIP3   OH256499   5.998   2.736  12.934 -0.0808 -0.0181  0.5066
11695TIP3    H156500   5.991   2.782  12.850 -1.9198  0.5327  0.9228
11695TIP3    H256501   6.091   2.744  12.958  0.5999 -0.6264 -1.6760
11696TIP3   OH256502   5.282   1.742   0.588  0.0075  0.4522 -0.1490
11696TIP3    H156503   5.230   1.788   0.522 -1.6444  0.0954  0.8282
11696TIP3    H256504   5.268   1.649   0.569 -0.1023  0.3533  0.3906
11697TIP3   OH256505   2.729   4.251  17.359  0.1861  0.2005  0.3930
11697TIP3    H156506   2.753   4.275  17.449 -1.6112 -3.1413  1.9716
11697TIP3    H256507   2.785   4.176  17.338  1.9392  2.0867 -2.1756
11698TIP3   OH256508   5.039   5.957  15.348  0.0375  0.7835 -0.1559
11698TIP3    H156509   5.055   5.958  15.442 -0.5060  1.4694 -0.0650
11698TIP3    H256510   5.050   5.865  15.323 -0.0121  0.5644  0.6043
11699TIP3   OH256511   5.542   4.349   0.819  0.0707  0.3299 -0.4324
11699TIP3    H156512   5.616   4.291   0.799  0.9598  1.1520  0.3585
11699TIP3    H256513   5.476   4.291   0.856  1.6211 -0.0083  2.0648
11700TIP3   OH256514   0.976   3.518  12.747  0.1082  0.2192  0.3167
11700TIP3    H156515   1.031   3.553  12.678  0.7284  2.2416  1.7504
11700TIP3    H256516   0.895   3.570  12.743  0.1322  0.3299  1.0676
11701TIP3   OH256517   3.966   0.143  15.198  0.0285 -0.0451  0.0379
11701TIP3    H156518   3.950   0.057  15.237 -0.6321  0.6489  1.3718
11701TIP3    H256519   3.933   0.136  15.109  0.2429 -1.2557  0.0401
11702TIP3   OH256520   5.130   4.808   1.326  0.1391 -0.3986 -0.5157
11702TIP3    H156521   5.119   4.803   1.231 -2.3538  4.9492 -0.8961
11702TIP3    H256522   5.206   4.865   1.338  0.4808 -1.0810  0.7780
11703TIP3   OH256523   5.939   2.004   4.271  0.0626  0.0062 -0.2451
11703TIP3    H156524   5.972   1.916   4.286  1.6524  0.5723 -0.1691
11703TIP3    H256525   5.916   2.006   4.178 -0.9934 -0.7867 -0.0103
11704TIP3   OH256526   0.067   2.350   1.714  0.0310  0.0549 -0.5346
11704TIP3    H156527   0.012   2.300   1.775 -0.0755  0.9213  0.0976
11704TIP3    H256528   0.030   2.330   1.627 -2.7090  2.1779 -0.0272
11705TIP3   OH256529   0.893   1.110   1.387  0.1597  0.0216 -0.0948
11705TIP3    H156530   0.963   1.047   1.369  0.0718 -0.4290  1.0795
11705TIP3    H256531   0.912   1.184   1.329  2.4694  0.5677  1.2327
11706TIP3   OH256532   5.054   3.806   5.932  0.8307  0.1379  0.0511
11706TIP3    H156533   5.040   3.722   5.890  0.4677  0.8926 -1.4109
11706TIP3    H256534   5.026   3.871   5.867  2.1347  1.4255  0.6919
11707TIP3   OH256535   5.423   4.756   3.069  0.5587  0.4275 -0.3387
11707TIP3    H156536   5.505   4.773   3.022  0.0732  1.3254 -0.9054
11707TIP3    H256537   5.356   4.767   3.002  0.0084 -0.9116 -0.0160
11708TIP3   OH256538   0.962   0.107   6.498 -0.7690  0.4907  0.5598
11708TIP3    H156539   0.974   0.040   6.564  1.9219  0.1635 -0.1284
11708TIP3    H256540   0.921   0.062   6.424  1.0257 -0.4659  0.0982
11709TIP3   OH256541   1.856   2.960   5.143  0.0306  0.0204  0.1849
11709TIP3    H156542   1.785   3.017   5.115 -0.1011 -0.9041 -1.4651
11709TIP3    H256543   1.812   2.887   5.187  0.1400  0.6302  1.3568
11710TIP3   OH256544   5.939   3.533  11.949  0.3225  0.1736 -0.7303
11710TIP3    H156545   5.948   3.511  11.856 -1.9820  0.4942 -1.0907
11710TIP3    H256546   5.860   3.588  11.953  1.4186  1.7348  1.1894
11711TIP3   OH256547   3.517   1.523   5.775  0.1733  0.0837 -0.2095
11711TIP3    H156548   3.507   1.472   5.856  0.2951 -0.0433 -0.2747
11711TIP3    H256549   3.489   1.463   5.706  1.3743 -0.2897 -0.3997
11712TIP3   OH256550   4.563   1.156   2.239 -1.0376 -1.0218  0.2654
11712TIP3    H156551   4.513   1.218   2.187 -0.0722  0.7352  1.3104
11712TIP3    H256552   4.637   1.131   2.183  0.3380  1.3322  0.8811
11713TIP3   OH256553   6.371   5.840   4.969 -0.0405 -0.0720  0.2775
11713TIP3    H156554   6.456   5.796   4.971 -0.2671 -0.5353 -0.2340
11713TIP3    H256555   6.376   5.898   4.893  0.0646  0.4107  0.6456
11714TIP3   OH256556   2.758   1.102  16.725  0.2103 -0.0730  0.0656
11714TIP3    H156557   2.754   1.099  16.629 -0.3856 -0.3305  0.0985
11714TIP3    H256558   2.676   1.142  16.752  0.9897  1.3337  0.4179
11715TIP3   OH256559   1.534   0.870   4.021 -0.0339 -0.0942 -0.6964
11715TIP3    H156560   1.466   0.805   4.039  0.0969 -0.4484 -1.4414
11715TIP3    H256561   1.496   0.926   3.954 -0.4797  1.1492  0.5398
11716TIP3   OH256562   0.350   3.385  15.772 -0.0616 -0.0018 -0.3769
11716TIP3    H156563   0.390   3.345  15.849  0.3904 -0.2925 -0.7583
11716TIP3    H256564   0.412   3.367  15.701  0.0235  1.1502 -0.6094
11717TIP3   OH256565   6.602   0.659  12.256 -0.3266  0.0026  0.2451
11717TIP3    H156566   6.548   0.580  12.261  0.3672 -0.4762  0.2514
11717TIP3    H256567   6.569   0.706  12.179 -0.6723 -0.3423  0.1834
11718TIP3   OH256568   1.033   1.384   3.591 -0.6269 -0.2111 -0.5621
11718TIP3    H156569   1.019   1.430   3.508  0.0455  1.2785  0.1028
11718TIP3    H256570   1.104   1.432   3.633 -1.6155 -0.2853  1.3240
11719TIP3   OH256571   2.842   4.191  12.352  0.0855 -0.1504 -0.2782
11719TIP3    H156572   2.754   4.175  12.388  0.2790  0.8634  0.7082
11719TIP3    H256573   2.826   4.244  12.273 -0.2049 -0.1568 -0.2256
11720TIP3   OH256574   4.190   1.808   4.733  0.0300 -0.2442  0.1143
11720TIP3    H156575   4.171   1.776   4.645  3.5335 -0.5516 -0.6756
11720TIP3    H256576   4.194   1.728   4.787  0.8965 -0.3677 -0.1260
11721TIP3   OH256577   4.292   5.374   2.601 -0.0890  0.7879  0.5329
11721TIP3    H156578   4.260   5.441   2.661 -0.9252 -0.0040  0.9984
11721TIP3    H256579   4.228   5.372   2.530 -1.0084 -0.6283  1.3423
11722TIP3   OH256580   3.926   0.451  13.917 -0.7252 -0.2966  0.6042
11722TIP3    H156581   3.880   0.385  13.866  0.0529  0.8042 -1.6743
11722TIP3    H256582   4.008   0.409  13.942 -1.3036 -0.9969  1.3694
11723TIP3   OH256583   2.339   6.120   4.265  0.2151  0.2295 -0.4694
11723TIP3    H156584   2.403   6.049   4.259 -0.6144 -0.5376 -0.4252
11723TIP3    H256585   2.392   6.199   4.270  1.1907 -0.1004 -3.4004
11724TIP3   OH256586   3.086   0.720   5.681  0.0133  0.1152  0.2415
11724TIP3    H156587   3.120   0.675   5.604  0.9243  1.6418 -0.3034
11724TIP3    H256588   2.999   0.749   5.655  0.1477  0.2471 -0.0726
11725TIP3   OH256589   0.254   0.355  11.885 -0.4612 -0.0725 -0.0747
11725TIP3    H156590   0.214   0.417  11.825 -0.7733  0.3273  0.5357
11725TIP3    H256591   0.343   0.344  11.852 -0.8320 -0.3915 -1.0048
11726TIP3   OH256592   3.428   2.155   2.130 -0.7296 -0.1175  0.4512
11726TIP3    H156593   3.414   2.245   2.161 -0.6570  0.0416  0.0284
11726TIP3    H256594   3.357   2.105   2.170 -1.8051  0.4494 -0.6476
11727TIP3   OH256595   3.451   2.967  17.019  0.5631  0.5762  0.1369
11727TIP3    H156596   3.437   2.911  16.943 -0.2224 -0.1136  0.7701
11727TIP3    H256597   3.546   2.968  17.031  0.5585 -1.9845  1.0759
11728TIP3   OH256598   6.122   6.407  11.205 -0.7374  0.6744  0.2656
11728TIP3    H156599   6.071   6.333  11.237 -2.3237  1.4992 -0.2418
11728TIP3    H256600   6.077   6.434  11.124 -0.0365  2.0090  0.2914
11729TIP3   OH256601   3.608   1.695   4.115  0.2315  0.4119  0.0043
11729TIP3    H156602   3.535   1.741   4.073 -0.7186  1.1095  2.2788
11729TIP3    H256603   3.611   1.731   4.203  2.0572 -1.0752  0.6015
11730TIP3   OH256604   2.998   3.103  13.995  0.1203 -0.1637 -0.1738
11730TIP3    H156605   2.917   3.056  14.016  1.0737 -1.3058  1.1366
11730TIP3    H256606   3.001   3.174  14.059 -0.0832  0.2090 -0.5667
11731TIP3   OH256607   0.860   3.122  11.590 -0.2109 -0.0264  0.0263
11731TIP3    H156608   0.899   3.170  11.517 -2.9502  0.7703 -1.0338
11731TIP3    H256609   0.864   3.030  11.564  0.1513  0.1144 -0.4261
11732TIP3   OH256610   3.963   1.974  13.121  0.9094 -0.3918  0.1443
11732TIP3    H156611   3.906   2.051  13.132 -0.8453 -1.4096 -1.2002
11732TIP3    H256612   4.044   1.998  13.165  0.5288  2.3340 -0.4328
11733TIP3   OH256613   2.531   0.176  16.608  0.6536  0.1320 -0.7761
11733TIP3    H156614   2.495   0.265  16.602  1.2694  0.3161 -1.8679
11733TIP3    H256615   2.577   0.175  16.692  2.2824  1.4738 -1.6102
11734TIP3   OH256616   2.631   4.551  17.319  0.1193  0.0225 -0.1717
11734TIP3    H156617   2.685   4.549  17.398  1.5330 -1.0374 -1.1281
11734TIP3    H256618   2.612   4.643  17.306  1.5204  0.4061  0.3178
11735TIP3   OH256619   3.237   6.367   4.230 -0.2233 -0.2575  0.7434
11735TIP3    H156620   3.144   6.346   4.230 -0.4203  0.5347 -0.7269
11735TIP3    H256621   3.270   6.326   4.310 -1.9174 -0.1272  1.5578
11736TIP3   OH256622   4.553   3.841  17.257  0.2616 -0.3135  0.3632
11736TIP3    H156623   4.474   3.805  17.296  0.8059  0.1324  1.9440
11736TIP3    H256624   4.523   3.918  17.208 -0.1368  0.7202  2.1554
11737TIP3   OH256625   6.463   5.719  12.126 -0.2198  0.3969 -0.0749
11737TIP3    H156626   6.393   5.779  12.101 -1.8493 -0.6039  1.7571
11737TIP3    H256627   6.466   5.725  12.222  1.2090 -0.6806 -0.0206
11738TIP3   OH256628   3.079   0.530  13.846 -0.3029 -0.3560 -1.1468
11738TIP3    H156629   3.053   0.621  13.830  2.0721  0.4459 -0.8682
11738TIP3    H256630   2.997   0.485  13.866 -1.4822  1.8695 -0.6049
11739TIP3   OH256631   2.713   5.213   4.237  0.3345 -0.3188  0.2687
11739TIP3    H156632   2.669   5.267   4.303 -0.6882  0.7388 -1.2289
11739TIP3    H256633   2.785   5.267   4.206 -0.6493  0.2425 -1.1837
11740TIP3   OH256634   2.347   4.243   4.597 -0.1764  0.0386 -0.6697
11740TIP3    H156635   2.351   4.330   4.636 -0.2715 -0.8122  1.3717
11740TIP3    H256636   2.260   4.211   4.619 -0.2222 -0.4899 -1.5921
11741TIP3   OH256637   4.983   6.199  17.308  0.0307 -0.0804 -0.4695
11741TIP3    H156638   5.005   6.290  17.287  0.2462 -0.5774 -2.7732
11741TIP3    H256639   5.053   6.170  17.366  1.0233  0.6994 -1.2395
11742TIP3   OH256640   1.789   4.469   4.757 -0.9107 -0.6259  0.6953
11742TIP3    H156641   1.789   4.380   4.792  2.4884 -0.5289  1.2698
11742TIP3    H256642   1.827   4.522   4.827 -1.8874  1.1237 -0.0335
11743TIP3   OH256643   1.827   5.112  14.712  0.2290  0.3154  0.3048
11743TIP3    H156644   1.827   5.206  14.696  1.0787  0.5286  1.4161
11743TIP3    H256645   1.906   5.079  14.669 -0.8406 -0.1690 -1.3861
11744TIP3   OH256646   1.040   3.105  12.656  0.3319 -0.0432  0.2685
11744TIP3    H156647   1.004   3.032  12.706  0.0462 -0.4309 -0.4888
11744TIP3    H256648   1.134   3.085  12.650  0.6776  0.8265  2.0015
11745TIP3   OH256649   1.635   5.679   3.271 -0.2349  0.2247 -0.3296
11745TIP3    H156650   1.601   5.590   3.266 -1.2582  0.6602 -1.7049
11745TIP3    H256651   1.557   5.735   3.276  0.3945  1.0423  1.0296
11746TIP3   OH256652   1.777   3.214  15.278  0.7289  0.1219 -0.3382
11746TIP3    H156653   1.685   3.227  15.253  0.2066 -1.3434  0.6146
11746TIP3    H256654   1.772   3.189  15.371  2.1958  1.0937  0.0153
11747TIP3   OH256655   0.694   3.462  13.599 -0.3990  0.4553 -0.2389
11747TIP3    H156656   0.738   3.533  13.645  0.7730 -0.1920 -0.3356
11747TIP3    H256657   0.642   3.419  13.667 -1.7720  1.8676 -0.3369
11748TIP3   OH256658   1.251   4.528  12.563 -0.5148  0.2600 -0.4450
11748TIP3    H156659   1.313   4.461  12.537  1.7323  0.9900  2.5142
11748TIP3    H256660   1.249   4.524  12.659 -2.8987  2.1954 -0.2902
11749TIP3   OH256661   5.240   5.960  14.443  0.4779  0.5245  0.8228
11749TIP3    H156662   5.284   5.921  14.519  0.3609 -1.8062 -0.2269
11749TIP3    H256663   5.243   6.055  14.460  0.0321  0.1109  3.9514
11750TIP3   OH256664   1.376   0.546   6.512 -0.0204 -0.3632 -0.4364
11750TIP3    H156665   1.467   0.549   6.480 -0.1634 -0.6861 -0.8902
11750TIP3    H256666   1.339   0.468   6.470 -0.3565 -0.5319  0.1579
11751TIP3   OH256667   6.553   1.353   5.233 -0.0653 -0.3030  0.3737
11751TIP3    H156668   6.539   1.392   5.147  1.7003  2.1885  1.1273
11751TIP3    H256669   6.558   1.259   5.216 -0.4064  0.0706 -2.1331
11752TIP3   OH256670   3.641   6.394   4.102 -0.0930 -0.3152  0.1277
11752TIP3    H156671   3.613   6.460   4.038 -0.8826 -2.0244 -1.3661
11752TIP3    H256672   3.647   6.443   4.184  1.6802  2.1498 -1.3016
11753TIP3   OH256673   6.658   6.575   4.486  0.2702 -0.0881  0.2128
11753TIP3    H156674   6.695   6.506   4.431  2.1747 -1.3132  2.8065
11753TIP3    H256675   6.572   6.541   4.512  1.4759 -2.0204  2.0652
11754TIP3   OH256676   0.530   3.136  13.996 -0.4704 -0.1685 -0.1309
11754TIP3    H156677   0.436   3.147  14.010 -0.2707  0.3698  0.8693
11754TIP3    H256678   0.571   3.205  14.049  0.5499 -1.3748  0.7383
11755TIP3   OH256679   3.142   2.323  13.544 -0.2961 -0.0395 -0.2537
11755TIP3    H156680   3.108   2.237  13.520  0.4791 -0.3708 -0.1867
11755TIP3    H256681   3.166   2.314  13.636  0.1342  0.1327 -0.3485
11756TIP3   OH256682   6.088   0.164  10.827 -0.2789 -0.6784  0.5251
11756TIP3    H156683   6.171   0.181  10.783 -0.7128 -0.3144 -0.1618
11756TIP3    H256684   6.033   0.239  10.806 -1.0747 -1.3200  0.2489
11757TIP3   OH256685   3.205   4.020   0.785 -0.4758  0.1727  0.4189
11757TIP3    H156686   3.119   4.055   0.807 -0.2507 -0.3100  2.2532
11757TIP3    H256687   3.264   4.095   0.797 -0.4294  0.0544  0.9901
11758TIP3   OH256688   4.629   5.797  12.904 -0.0312 -0.0207  0.4422
11758TIP3    H156689   4.684   5.746  12.844 -0.9800 -1.0356  0.4197
11758TIP3    H256690   4.595   5.868  12.850 -1.8795 -1.6228 -0.6105
11759TIP3   OH256691   3.430   1.483  17.136 -0.2502 -0.2072  0.5807
11759TIP3    H156692   3.504   1.521  17.090  1.6320 -1.4965  2.3559
11759TIP3    H256693   3.383   1.558  17.173  0.5151  0.6054 -0.0667
11760TIP3   OH256694   6.666   1.086  16.176 -0.6448 -0.2441 -0.7517
11760TIP3    H156695   6.617   1.020  16.127 -0.1060 -2.2775  1.2999
11760TIP3    H256696   6.758   1.061  16.165 -0.3291  0.9620 -1.0026
11761TIP3   OH256697   2.167   0.345  14.871 -0.4089  0.6548  0.4623
11761TIP3    H156698   2.201   0.413  14.930 -2.0580  0.4010  1.7775
11761TIP3    H256699   2.223   0.270  14.886  0.8643  1.4034 -0.3297
11762TIP3   OH256700   1.937   3.966  10.998 -0.1966  0.4322 -0.2192
11762TIP3    H156701   1.898   4.053  10.989  0.7302  0.8720 -0.1053
11762TIP3    H256702   1.869   3.913  11.039 -0.5966  1.2257  0.1607
11763TIP3   OH256703   0.719   2.632  13.243  0.5005 -0.2120  0.3430
11763TIP3    H156704   0.753   2.547  13.273  1.4833 -0.3433 -1.0373
11763TIP3    H256705   0.792   2.693  13.256 -0.2686  0.5020  1.5205
11764TIP3   OH256706   4.463   6.472  16.947  0.2458  0.3216  0.0612
11764TIP3    H156707   4.370   6.494  16.955 -0.4668 -1.9217 -1.1192
11764TIP3    H256708   4.479   6.408  17.017  0.7204  0.1796 -0.1716
11765TIP3   OH256709   5.690   3.835  12.259  0.0123 -0.5231  0.2969
11765TIP3    H156710   5.645   3.863  12.180  2.0401 -0.7753 -1.0095
11765TIP3    H256711   5.643   3.878  12.330 -1.2599  0.4898 -1.1089
11766TIP3   OH256712   1.557   5.478   2.402 -0.4823  0.1564 -0.4201
11766TIP3    H156713   1.558   5.444   2.492  0.4601  1.0457 -0.0807
11766TIP3    H256714   1.600   5.563   2.408 -1.5046  0.7720 -1.5131
11767TIP3   OH256715   3.928   4.919   5.536 -0.1120  0.2626  0.0503
11767TIP3    H156716   3.904   4.827   5.529 -0.4579  0.1529  2.0839
11767TIP3    H256717   4.024   4.919   5.531 -0.1572 -0.0891 -0.9375
11768TIP3   OH256718   4.608   1.773  15.894 -0.8747  0.7806  0.2707
11768TIP3    H156719   4.689   1.822  15.908 -0.2986 -0.4488  1.4698
11768TIP3    H256720   4.549   1.803  15.963 -1.4864  1.7124 -0.6321
11769TIP3   OH256721   1.644   3.478   0.384  0.9207  0.5844  0.3335
11769TIP3    H156722   1.687   3.562   0.373  0.1870  1.1083  1.3058
11769TIP3    H256723   1.601   3.461   0.300  0.8759  1.2950  0.2137
11770TIP3   OH256724   5.409   2.378   5.510  0.2470  0.3342  0.6073
11770TIP3    H156725   5.346   2.391   5.582  0.1892 -0.0733  0.6314
11770TIP3    H256726   5.492   2.359   5.554  0.5309  1.4273  0.5889
11771TIP3   OH256727   0.474   5.162   4.549  0.0851  0.0193  0.3776
11771TIP3    H156728   0.527   5.242   4.548  0.7772 -0.4168 -1.0873
11771TIP3    H256729   0.448   5.149   4.458 -2.0468 -0.1459  0.9450
11772TIP3   OH256730   4.831   1.861  12.589 -0.0409  0.2753  0.1804
11772TIP3    H156731   4.833   1.820  12.503 -0.5541 -1.7708  1.0952
11772TIP3    H256732   4.766   1.811  12.638 -0.6158  2.1415  1.4274
11773TIP3   OH256733   3.854   4.376  13.082 -0.1412 -0.0508  0.2454
11773TIP3    H156734   3.780   4.316  13.075  0.9144 -1.3993  0.2329
11773TIP3    H256735   3.922   4.338  13.025  1.2955 -0.0290  1.8605
11774TIP3   OH256736   3.291   4.501   1.117 -0.4013 -0.4855  0.2948
11774TIP3    H156737   3.369   4.491   1.063  0.2382 -0.2735  1.1570
11774TIP3    H256738   3.218   4.485   1.057  0.2987 -0.6994 -0.5198
11775TIP3   OH256739   1.469   1.519   1.799  0.0504  0.7444 -0.4276
11775TIP3    H156740   1.519   1.549   1.723  0.9753 -1.2469 -0.6839
11775TIP3    H256741   1.514   1.556   1.875  2.2446 -1.2681 -0.6317
11776TIP3   OH256742   1.217   5.902  15.237  0.7721  0.3439  0.6506
11776TIP3    H156743   1.254   5.958  15.168  0.4178 -1.5784 -1.1943
11776TIP3    H256744   1.281   5.831  15.247 -0.6082 -1.0457  0.0475
11777TIP3   OH256745   3.478   4.822   3.096  0.1765  0.1879  0.4280
11777TIP3    H156746   3.556   4.861   3.136 -0.3326  0.3419  1.2890
11777TIP3    H256747   3.498   4.820   3.002  2.1913 -1.9432  0.8005
11778TIP3   OH256748   0.362   2.334   0.485 -0.4335 -0.2202  0.1973
11778TIP3    H156749   0.424   2.294   0.546 -1.6216 -0.7198  1.1038
11778TIP3    H256750   0.307   2.262   0.456 -1.5472  0.4558  0.5680
11779TIP3   OH256751   3.324   0.049  15.090 -0.0791  0.0702  0.7086
11779TIP3    H156752   3.250   0.109  15.098  0.7893  1.4338 -0.9517
11779TIP3    H256753   3.393   0.089  15.142 -0.7199 -1.7196  3.1070
11780TIP3   OH256754   6.342   5.223  16.627  0.0194 -0.4642 -0.5143
11780TIP3    H156755   6.434   5.224  16.598 -0.0310 -0.3275 -0.6667
11780TIP3    H256756   6.344   5.176  16.711  0.3540  0.2580 -0.1024
11781TIP3   OH256757   1.969   2.277   0.378  0.4644  0.2017 -0.5472
11781TIP3    H156758   1.953   2.266   0.471  0.2638 -0.8222 -0.6926
11781TIP3    H256759   2.055   2.320   0.373  0.3969  0.4147  0.1050
11782TIP3   OH256760   1.235   2.253   3.252  0.5167 -0.6999 -0.0897
11782TIP3    H156761   1.216   2.344   3.231  1.6416 -0.1489  1.1049
11782TIP3    H256762   1.188   2.202   3.187 -0.0338  0.7434 -0.8482
11783TIP3   OH256763   4.193   4.863   4.399 -0.3073 -0.3520  0.1214
11783TIP3    H156764   4.195   4.936   4.337 -2.2109  0.7144  1.2178
11783TIP3    H256765   4.261   4.885   4.463  0.4322 -0.5412 -0.5855
11784TIP3   OH256766   4.029   2.946   6.629 -0.2681  0.3202  0.6970
11784TIP3    H156767   3.943   2.978   6.600  0.8841  3.1294  0.0628
11784TIP3    H256768   4.052   3.004   6.702  1.6590  0.5624 -0.0504
11785TIP3   OH256769   1.449   3.728   4.028  0.5600  0.1240  0.4854
11785TIP3    H156770   1.398   3.720   3.948  1.2569  1.1960 -0.0944
11785TIP3    H256771   1.434   3.646   4.075 -2.3283  0.7027  0.7361
11786TIP3   OH256772   1.965   0.128   6.403 -0.5787  0.4587 -0.4228
11786TIP3    H156773   1.919   0.193   6.456 -0.9794  0.0694 -0.2920
11786TIP3    H256774   1.915   0.048   6.414 -0.9845  0.4876 -1.8048
11787TIP3   OH256775   6.718   3.649  14.869 -0.1863  0.0737  0.9613
11787TIP3    H156776   6.711   3.741  14.893 -2.4887  0.6431 -1.4255
11787TIP3    H256777   6.630   3.613  14.884 -0.3304 -0.7744 -1.4361
11788TIP3   OH256778   4.568   2.975  15.839  0.2167 -0.1887 -0.2519
11788TIP3    H156779   4.591   2.884  15.819  1.0717 -0.3223  1.1749
11788TIP3    H256780   4.560   2.976  15.935 -0.0257  1.1849 -0.2798
11789TIP3   OH256781   4.461   3.451  12.158 -0.8756  0.6527  0.8135
11789TIP3    H156782   4.426   3.369  12.192 -0.0600  0.4167  1.1133
11789TIP3    H256783   4.516   3.485  12.229 -0.1014  0.7510  0.1876
11790TIP3   OH256784   5.052   5.456   2.670 -0.2195 -0.1881 -0.4989
11790TIP3    H156785   4.956   5.457   2.662 -0.3156 -0.1425  0.5787
11790TIP3    H256786   5.076   5.548   2.679 -0.3996 -0.3537  2.5396
11791TIP3   OH256787   3.941   0.845  16.671 -0.0904  0.0585  0.0518
11791TIP3    H156788   3.939   0.940  16.677  0.1108  0.2388 -2.0027
11791TIP3    H256789   4.033   0.822  16.684  0.4933  0.5013 -2.6120
11792TIP3   OH256790   2.128   5.797  10.776 -0.1472  0.0452 -0.1090
11792TIP3    H156791   2.213   5.827  10.807  0.0831  0.4106 -1.0658
11792TIP3    H256792   2.148   5.720  10.724 -0.2955  0.6795 -1.1196
11793TIP3   OH256793   1.908   6.036   3.853  0.1109  0.0874 -0.0954
11793TIP3    H156794   1.813   6.046   3.858 -0.0808 -1.5314 -0.1099
11793TIP3    H256795   1.927   6.036   3.760  0.1051  0.2261 -0.0967
11794TIP3   OH256796   1.810   0.231  14.131 -0.1090  0.0013  0.4014
11794TIP3    H156797   1.873   0.250  14.201  1.8486 -1.7240 -0.7641
11794TIP3    H256798   1.825   0.300  14.066 -0.5163  0.4497  0.7713
11795TIP3   OH256799   5.212   5.766  16.785 -0.1161 -0.2441  0.7085
11795TIP3    H156800   5.259   5.807  16.713 -0.3481 -1.4234 -0.1392
11795TIP3    H256801   5.280   5.739  16.847  0.3489 -1.6147 -0.3362
11796TIP3   OH256802   0.197   0.097  11.638  0.0112 -0.6552  0.0439
11796TIP3    H156803   0.236   0.099  11.726  1.4903 -2.7429 -0.4812
11796TIP3    H256804   0.270   0.117  11.579 -0.7135 -0.3553 -0.7693
11797TIP3   OH256805   3.001   4.589   3.587 -0.4467 -0.2435 -0.1020
11797TIP3    H156806   2.942   4.539   3.644  0.9893  0.7724  2.4617
11797TIP3    H256807   3.075   4.530   3.572  0.2733  0.3069  1.1512
11798TIP3   OH256808   4.081   0.805  17.002 -0.6402  0.1285 -0.2724
11798TIP3    H156809   4.136   0.796  16.924 -0.9503 -1.8771 -0.3209
11798TIP3    H256810   4.105   0.891  17.039  2.7188 -0.6978 -0.1513
11799TIP3   OH256811   2.067   3.495   3.269  0.0158  0.1453 -0.3903
11799TIP3    H156812   1.991   3.509   3.327 -1.3845 -1.2438 -1.7859
11799TIP3    H256813   2.089   3.403   3.281  2.0356  0.7075  0.5608
11800TIP3   OH256814   1.668   2.926  13.604 -0.5042  0.0819 -0.1914
11800TIP3    H156815   1.640   2.904  13.515  0.5903 -1.2519 -0.2414
11800TIP3    H256816   1.698   3.016  13.598  1.7866 -0.6765 -1.7872
11801TIP3   OH256817   4.167   0.434   5.597 -0.2300 -0.4068 -0.3921
11801TIP3    H156818   4.228   0.404   5.665 -0.8874  0.5068  0.6420
11801TIP3    H256819   4.170   0.529   5.603  2.0912 -0.0891 -3.8396
11802TIP3   OH256820   2.644   5.214  15.130  0.1579  0.3109 -0.3438
11802TIP3    H156821   2.589   5.291  15.147  0.2062  0.2022  0.3144
11802TIP3    H256822   2.641   5.204  15.034 -1.1940  0.1417 -0.3110
11803TIP3   OH256823   4.021   0.245  17.037  0.1588  0.0244  0.1615
11803TIP3    H156824   3.928   0.267  17.033  0.4834  1.4376 -0.0222
11803TIP3    H256825   4.057   0.276  16.954  0.7358 -0.8949  0.0429
11804TIP3   OH256826   0.024   5.073  16.158 -0.3346  0.1851 -0.2194
11804TIP3    H156827   0.016   5.121  16.240 -1.5222 -0.6713  0.1912
11804TIP3    H256828   0.018   4.981  16.183 -1.3770 -0.0699 -1.3292
11805TIP3   OH256829   1.745   4.341   0.839 -0.4466  0.1140 -0.2913
11805TIP3    H156830   1.816   4.379   0.889 -1.9847  0.2285  1.9809
11805TIP3    H256831   1.677   4.322   0.904 -3.0105  1.1655 -2.4570
11806TIP3   OH256832   3.310   1.787  16.986 -0.6037  0.8320 -0.0232
11806TIP3    H156833   3.267   1.706  16.959 -2.1073  1.4661  0.3661
11806TIP3    H256834   3.334   1.772  17.077 -1.1099  0.9221  0.1231
11807TIP3   OH256835   4.888   0.455   4.007  0.2195 -0.8044  0.1427
11807TIP3    H156836   4.912   0.394   3.936  1.9963 -0.3694  0.3188
11807TIP3    H256837   4.801   0.427   4.034  0.1679 -2.0040 -1.1313
11808TIP3   OH256838   1.439   2.589   4.502  0.4968 -0.0363 -0.2850
11808TIP3    H156839   1.430   2.521   4.568  2.4426 -0.8578 -0.7938
11808TIP3    H256840   1.476   2.664   4.548 -1.2295  0.5723  0.1831
11809TIP3   OH256841   6.576   3.841   5.303  0.1634 -0.2633  0.1700
11809TIP3    H156842   6.597   3.765   5.359  2.5584 -0.8730 -1.4288
11809TIP3    H256843   6.601   3.917   5.355 -1.7368 -0.5039  1.5703
11810TIP3   OH256844   4.667   4.246   1.559  0.0450 -0.0302  0.3083
11810TIP3    H156845   4.707   4.321   1.515 -1.0118 -0.2357 -1.0746
11810TIP3    H256846   4.737   4.180   1.561  0.9443  0.9111  1.4278
11811TIP3   OH256847   6.398   1.376  13.904 -0.2772  0.5293 -0.1917
11811TIP3    H156848   6.331   1.435  13.939  0.5483  2.5204 -1.7549
11811TIP3    H256849   6.468   1.379  13.969 -0.9257 -0.1237  0.5626
11812TIP3   OH256850   0.200   2.777  14.431 -0.3709 -0.1281 -0.4943
11812TIP3    H156851   0.275   2.718  14.420 -1.0107 -0.8845 -0.9264
11812TIP3    H256852   0.124   2.724  14.405 -1.2034  0.2324  1.0528
11813TIP3   OH256853   5.101   1.086   4.730  0.6135 -0.7711  0.2044
11813TIP3    H156854   5.127   1.175   4.706 -0.1210 -0.5520  0.1983
11813TIP3    H256855   5.147   1.069   4.812  0.8611 -0.4358  0.1376
11814TIP3   OH256856   3.533   1.989  15.723  0.5261  0.1234 -0.1973
11814TIP3    H156857   3.586   2.067  15.705 -0.3858  0.6457 -0.6788
11814TIP3    H256858   3.561   1.962  15.811  1.9735  0.0551 -0.6558
11815TIP3   OH256859   0.285   5.573   6.215 -0.4989  0.6281 -0.1406
11815TIP3    H156860   0.315   5.482   6.221 -0.4313  0.4839 -2.0283
11815TIP3    H256861   0.330   5.618   6.286  2.0808 -0.1622 -1.1679
11816TIP3   OH256862   1.941   5.924   2.756 -0.0883 -0.4610 -0.2671
11816TIP3    H156863   1.884   5.992   2.719  1.7446 -0.0114 -2.4479
11816TIP3    H256864   1.884   5.848   2.765 -2.2014  1.2314  2.2288
11817TIP3   OH256865   1.827   6.082  15.371  0.1038 -0.4650  0.5285
11817TIP3    H156866   1.920   6.081  15.392  0.0182  0.9349  1.1192
11817TIP3    H256867   1.790   6.011  15.422  1.0896 -2.2468 -1.1200
11818TIP3   OH256868   4.406   2.657   4.821 -0.0999  0.3720 -0.4687
11818TIP3    H156869   4.330   2.599   4.827 -0.2425  0.5711 -0.3468
11818TIP3    H256870   4.478   2.605   4.857 -0.7162  1.1226  2.0522
11819TIP3   OH256871   2.847   5.015   3.405 -0.5531  0.6633  0.1449
11819TIP3    H156872   2.768   5.050   3.363 -0.9788 -0.7641 -0.2988
11819TIP3    H256873   2.908   5.089   3.407 -1.1077  1.2174 -1.5105
11820TIP3   OH256874   0.234   3.976  13.502  0.0163  0.5273  0.2732
11820TIP3    H156875   0.224   3.945  13.592  0.3605  0.7638  0.3964
11820TIP3    H256876   0.300   4.045  13.508  0.5316  0.0883 -0.2634
11821TIP3   OH256877   6.721   4.373   5.479  0.1106  0.2088  0.1650
11821TIP3    H156878   6.795   4.390   5.537  0.4891 -0.7648 -0.0252
11821TIP3    H256879   6.758   4.378   5.391 -0.5020  1.8959 -0.0416
11822TIP3   OH256880   0.960   4.318  12.542  0.1748  0.0722 -0.0357
11822TIP3    H156881   0.996   4.297  12.627 -3.1677 -0.1765  1.4977
11822TIP3    H256882   0.930   4.233  12.507 -0.1953  0.4080 -0.5511
11823TIP3   OH256883   4.804   3.311  13.170  0.2396 -0.1733  0.8005
11823TIP3    H156884   4.803   3.406  13.182  1.2033 -0.0334 -0.1099
11823TIP3    H256885   4.758   3.276  13.246  0.7218  0.9695  1.6310
11824TIP3   OH256886   0.407   3.093  12.909  0.3805  0.5383  0.2726
11824TIP3    H156887   0.431   3.110  12.818 -1.1083  1.5881  0.0388
11824TIP3    H256888   0.324   3.045  12.903  1.1067 -0.8841  1.0749
11825TIP3   OH256889   6.468   2.020   1.044  0.1704  0.3937  0.6187
11825TIP3    H156890   6.394   2.047   0.988 -1.0315 -2.6443  0.5850
11825TIP3    H256891   6.438   2.039   1.133 -0.4633 -0.3434  0.5718
11826TIP3   OH256892   2.784   0.660   0.814 -0.4099 -0.2734 -0.1781
11826TIP3    H156893   2.689   0.674   0.805 -0.6089 -1.6346 -0.4092
11826TIP3    H256894   2.817   0.668   0.724 -0.3782 -0.2438 -0.1635
11827TIP3   OH256895   0.764   5.901  13.531 -0.7341 -0.1184  0.1460
11827TIP3    H156896   0.767   5.834  13.463 -0.9923 -1.2985  1.2687
11827TIP3    H256897   0.681   5.886  13.577 -0.2397  0.1852  1.1826
11828TIP3   OH256898   5.868   1.773  11.210  0.2404 -0.0939 -0.2015
11828TIP3    H156899   5.805   1.803  11.275 -0.1463 -2.3292  0.5413
11828TIP3    H256900   5.815   1.736  11.140  0.7104 -0.1440 -0.5366
11829TIP3   OH256901   1.374   2.008  14.785  0.5942  0.1970  0.0645
11829TIP3    H156902   1.438   2.035  14.851  0.1942 -0.1547  0.6018
11829TIP3    H256903   1.290   2.039  14.818  0.5113  0.8779 -0.7606
11830TIP3   OH256904   3.565   4.474  15.624  0.1395 -0.4698  0.0298
11830TIP3    H156905   3.633   4.409  15.608  0.0007 -0.0222 -2.8485
11830TIP3    H256906   3.613   4.557  15.632  0.0241 -0.2851 -1.0758
11831TIP3   OH256907   0.192   1.025   1.494  0.1411  0.2498 -0.1292
11831TIP3    H156908   0.230   1.060   1.413  0.0589  0.3170 -0.1387
11831TIP3    H256909   0.264   0.978   1.536  0.2293  0.3563 -0.1602
11832TIP3   OH256910   1.322   5.297   3.971 -0.0741  0.2117 -0.2456
11832TIP3    H156911   1.284   5.215   4.003  1.3694 -1.5080 -2.6736
11832TIP3    H256912   1.288   5.306   3.882 -0.2577  2.3609 -0.0133
11833TIP3   OH256913   2.937   5.682   1.093  0.0015 -0.2257 -0.1489
11833TIP3    H156914   2.950   5.587   1.094  0.4669 -0.1622 -0.0361
11833TIP3    H256915   2.952   5.708   1.002  0.4454 -0.1810 -0.0611
11834TIP3   OH256916   4.066   5.024   2.846 -0.2758  0.6917  0.2973
11834TIP3    H156917   4.008   5.053   2.917 -0.6079  1.2331 -0.1894
11834TIP3    H256918   4.151   5.062   2.869  0.2210 -1.1100  1.6591
11835TIP3   OH256919   0.796   4.715  11.806 -0.3197 -0.0342 -0.4096
11835TIP3    H156920   0.831   4.799  11.779  2.5988 -1.0923 -0.2646
11835TIP3    H256921   0.769   4.673  11.724 -1.3357  0.8043 -0.5242
11836TIP3   OH256922   3.067   4.763   5.057  0.1245  0.0582 -0.0365
11836TIP3    H156923   3.040   4.812   5.135 -2.3219 -0.1047 -0.7198
11836TIP3    H256924   2.989   4.759   5.002  1.4835 -0.7696 -2.0404
11837TIP3   OH256925   1.363   0.279   4.081  0.0404 -0.1316  0.2559
11837TIP3    H156926   1.402   0.208   4.030 -0.0959  1.9453 -3.1038
11837TIP3    H256927   1.269   0.275   4.059  0.2615  1.9763 -1.3862
11838TIP3   OH256928   3.207   1.330   0.798  0.4929 -0.5487 -0.3172
11838TIP3    H156929   3.267   1.382   0.851 -1.1475  0.4998  0.5797
11838TIP3    H256930   3.189   1.253   0.851  1.4736 -1.1638 -0.8469
11839TIP3   OH256931   2.161   6.414   5.390  0.0380 -0.6745  0.1253
11839TIP3    H156932   2.242   6.444   5.433  0.8903 -3.3886  0.6268
11839TIP3    H256933   2.190   6.380   5.306 -0.9673  0.3216 -0.6608
11840TIP3   OH256934   2.827   3.936   2.595 -0.1024  0.1237  0.0510
11840TIP3    H156935   2.815   3.920   2.689 -2.0632 -2.6734 -0.5516
11840TIP3    H256936   2.884   3.864   2.566  0.7386  1.1372 -0.8851
11841TIP3   OH256937   6.589   6.304   4.607  0.1716  0.0481  0.1989
11841TIP3    H156938   6.578   6.233   4.545  1.5983 -0.1307  0.1203
11841TIP3    H256939   6.514   6.362   4.591 -0.9660 -1.3604  0.2101
11842TIP3   OH256940   5.945   5.696  13.403  0.2245 -0.0760 -0.1709
11842TIP3    H156941   5.928   5.718  13.495  1.2808 -0.9782  0.2608
11842TIP3    H256942   5.946   5.780  13.359 -0.7403  0.3454  0.5522
11843TIP3   OH256943   1.571   0.412  13.674  0.2630  0.0189  0.0107
11843TIP3    H156944   1.645   0.361  13.707  0.0889  1.0472  2.1622
11843TIP3    H256945   1.531   0.357  13.606  2.0457 -1.2146 -0.0867
11844TIP3   OH256946   0.894   0.331   0.563 -0.1399 -0.0920 -0.1680
11844TIP3    H156947   0.940   0.346   0.646  1.4653  0.7703 -1.1560
11844TIP3    H256948   0.916   0.408   0.510  0.2588 -1.4118 -1.9874
11845TIP3   OH256949   0.486   0.431  14.279  0.0826  0.2451  0.7359
11845TIP3    H156950   0.512   0.342  14.256 -1.4980  0.3750 -1.9862
11845TIP3    H256951   0.391   0.430  14.272  0.0718  2.2604  0.0523
11846TIP3   OH256952   2.190   5.899   0.095  0.3686  0.3876 -0.2251
11846TIP3    H156953   2.119   5.944   0.049  0.6576  0.4164 -0.6414
11846TIP3    H256954   2.148   5.865   0.175 -0.4047 -0.6197 -1.0260
11847TIP3   OH256955   2.297   5.336  14.521 -0.5585 -0.5272 -0.4114
11847TIP3    H156956   2.256   5.357  14.437  0.5534  1.3370 -0.5222
11847TIP3    H256957   2.303   5.419  14.567  1.3214 -1.0600  0.4015
11848TIP3   OH256958   3.006   4.116  14.923  0.1759  0.3038 -0.1389
11848TIP3    H156959   2.947   4.086  14.853 -0.4005  0.3658  0.3178
11848TIP3    H256960   2.949   4.132  14.998  0.9185 -0.8456  0.7074
11849TIP3   OH256961   3.616   4.704  17.225 -0.4493 -0.3193  0.2578
11849TIP3    H156962   3.652   4.711  17.137  1.6350 -0.7253  1.0207
11849TIP3    H256963   3.552   4.633  17.220 -1.1073  0.3151 -1.1058
11850TIP3   OH256964   5.532   5.566   2.744 -0.3310 -0.4422 -0.0643
11850TIP3    H156965   5.559   5.474   2.745 -0.9493 -0.6442 -0.6079
11850TIP3    H256966   5.535   5.590   2.651  1.1285  0.5008  0.2026
11851TIP3   OH256967   2.746   0.293  12.418  0.2945  0.1443  0.2841
11851TIP3    H156968   2.759   0.379  12.380 -0.6695  0.1153 -0.1486
11851TIP3    H256969   2.656   0.294  12.449  0.3798 -0.5952  0.5784
11852TIP3   OH256970   5.477   1.222   3.750  0.5441  1.3518 -0.3941
11852TIP3    H156971   5.504   1.132   3.766 -3.0438 -0.0345 -1.0410
11852TIP3    H256972   5.467   1.259   3.838 -1.7519 -0.2927  0.1409
11853TIP3   OH256973   0.073   1.009  13.608  0.3428 -0.1456 -0.3294
11853TIP3    H156974   0.106   1.086  13.562  1.6815 -0.6362 -0.2602
11853TIP3    H256975   0.119   0.935  13.567  1.0771 -0.6593  1.3031
11854TIP3   OH256976   5.508   0.118   2.408  0.1264  0.2369 -0.0157
11854TIP3    H156977   5.564   0.171   2.464 -1.4512  1.1105  0.7812
11854TIP3    H256978   5.462   0.060   2.468  0.1310 -0.4486 -0.6626
11855TIP3   OH256979   4.657   0.007  12.869 -0.2450  0.2460  0.4204
11855TIP3    H156980   4.651  -0.043  12.787  1.6494 -0.3043  0.5643
11855TIP3    H256981   4.672  -0.060  12.936  0.5426  0.8496  0.8684
11856TIP3   OH256982   0.558   0.190   0.865 -0.2272 -0.2863 -0.3147
11856TIP3    H156983   0.491   0.198   0.797  0.9252 -1.4008 -1.6311
11856TIP3    H256984   0.637   0.162   0.819  1.0522  0.5370  1.2616
11857TIP3   OH256985   4.599   3.977  11.752 -0.1393 -0.3449 -0.4320
11857TIP3    H156986   4.560   4.002  11.668 -1.3836 -1.5531 -0.2471
11857TIP3    H256987   4.678   4.031  11.759 -0.4811  0.4013 -1.9653
11858TIP3   OH256988   1.515   2.018  11.769 -0.0263  0.8336  0.3712
11858TIP3    H156989   1.601   2.050  11.798  0.0650  0.8556  0.0884
11858TIP3    H256990   1.456   2.091  11.784 -0.0962  0.6462  1.0354
11859TIP3   OH256991   2.840   5.230   5.801 -0.2321  0.0427 -0.2222
11859TIP3    H156992   2.915   5.262   5.750 -0.0399 -1.6486 -1.0760
11859TIP3    H256993   2.842   5.281   5.881  0.9012  1.1198 -0.8964
11860TIP3   OH256994   5.753   0.092   4.890 -0.3338 -0.0486  0.0596
11860TIP3    H156995   5.780   0.026   4.827  2.6390 -0.0111  1.1320
11860TIP3    H256996   5.754   0.174   4.840  1.0711 -0.1440 -0.1093
11861TIP3   OH256997   3.369   2.940  15.594  0.8395 -0.0640  0.1581
11861TIP3    H156998   3.422   3.003  15.545  0.7610 -0.3398 -0.2840
11861TIP3    H256999   3.328   2.885  15.527 -0.8852  0.8267  0.4435
11862TIP3   OH257000   6.350   3.101  14.985  0.3087  0.4461 -0.0201
11862TIP3    H157001   6.317   3.011  14.981  1.0736  0.1850 -0.7328
11862TIP3    H257002   6.430   3.095  15.039  0.9185  0.5117 -0.9019
11863TIP3   OH257003   0.540   1.449   4.743 -0.1304 -0.3792  0.1210
11863TIP3    H157004   0.495   1.518   4.696  1.4461  0.4397 -0.2581
11863TIP3    H257005   0.587   1.494   4.813 -0.3006 -1.2623  0.8335
11864TIP3   OH257006   5.414   2.152  16.930  1.0302  0.1688  0.0459
11864TIP3    H157007   5.400   2.186  17.018  2.3097 -0.8650  0.6992
11864TIP3    H257008   5.381   2.062  16.934  0.2841  0.3977 -0.8043
11865TIP3   OH257009   1.333   1.920  16.943 -0.1020 -0.2636 -0.3039
11865TIP3    H157010   1.254   1.896  16.991  0.5073  0.0968  0.9091
11865TIP3    H257011   1.405   1.898  17.002  0.7369 -0.9162 -1.5269
11866TIP3   OH257012   1.883   4.308   5.802 -0.1570  0.2927 -0.2525
11866TIP3    H157013   1.795   4.322   5.837 -0.0673  1.2510 -0.3822
11866TIP3    H257014   1.928   4.391   5.818  0.2045  0.4027 -1.6954
11867TIP3   OH257015   5.612   5.838   2.606 -0.2521 -0.1852  0.4170
11867TIP3    H157016   5.587   5.828   2.698  0.2856 -1.8029  0.4209
11867TIP3    H257017   5.708   5.843   2.608 -0.2965  1.6113  0.0610
11868TIP3   OH257018   2.996   0.939  16.753  0.0200 -0.0884  0.0925
11868TIP3    H157019   3.058   0.950  16.826 -0.3296  2.5390  0.0831
11868TIP3    H257020   2.918   0.986  16.781 -0.2418  0.7123 -1.8416
11869TIP3   OH257021   6.314   1.699   2.401  0.0095  0.0178  0.2446
11869TIP3    H157022   6.269   1.774   2.360 -0.8297 -0.0500  1.0109
11869TIP3    H257023   6.313   1.719   2.494 -0.3609 -1.0142  0.4782
11870TIP3   OH257024   0.569   4.280  13.234  0.7572  0.2409  0.3843
11870TIP3    H157025   0.551   4.335  13.158 -0.9204 -0.6598  0.0818
11870TIP3    H257026   0.660   4.251  13.222  0.6887  0.5399 -0.9959
11871TIP3   OH257027   3.298   6.690  11.590  0.1393 -0.3541 -0.2204
11871TIP3    H157028   3.340   6.651  11.667  0.5669 -0.2928 -0.4176
11871TIP3    H257029   3.210   6.713  11.620  0.2504 -0.4669  0.2080
11872TIP3   OH257030   0.344   3.610  10.919  0.0217 -0.4857  0.1523
11872TIP3    H157031   0.249   3.619  10.921 -0.3490 -3.0019 -1.8123
11872TIP3    H257032   0.375   3.669  10.987 -2.9256  0.4439  0.8177
11873TIP3   OH257033   2.626   0.313   6.400  0.1310  0.3262  0.5557
11873TIP3    H157034   2.550   0.366   6.422 -0.7417  0.2785 -1.9856
11873TIP3    H257035   2.697   0.377   6.389 -0.5145  0.8564 -0.8332
11874TIP3   OH257036   3.623   3.563  15.656 -0.2989  0.2434 -0.7475
11874TIP3    H157037   3.689   3.496  15.634  0.1652  0.2788  0.4839
11874TIP3    H257038   3.540   3.516  15.656 -0.2446  0.1098 -1.9109
11875TIP3   OH257039   0.490   0.022  11.059 -0.3020 -0.1814 -0.4407
11875TIP3    H157040   0.449  -0.001  11.143  1.2112 -0.7024  0.2011
11875TIP3    H257041   0.441   0.099  11.029  0.1354  1.0519  1.7458
11876TIP3   OH257042   2.379   1.869  15.412  0.0729 -0.0458  0.0528
11876TIP3    H157043   2.344   1.783  15.385  0.8783 -0.4066  0.1445
11876TIP3    H257044   2.363   1.873  15.506 -1.3455  0.5672 -0.1767
11877TIP3   OH257045   5.848   2.177  11.425 -0.0545 -0.0157  0.2277
11877TIP3    H157046   5.799   2.142  11.350  1.6640 -0.3463 -0.7892
11877TIP3    H257047   5.804   2.261  11.444 -0.3321  0.2372 -1.3734
11878TIP3   OH257048   1.726   4.079   5.801  0.3351  0.0532  0.5953
11878TIP3    H157049   1.771   4.001   5.770 -0.1093 -0.5191  1.3446
11878TIP3    H257050   1.796   4.142   5.817  1.0104 -1.1129  2.6099
11879TIP3   OH257051   6.192   2.921   4.862 -0.0778 -0.0056 -0.0988
11879TIP3    H157052   6.184   2.953   4.772  0.2378  1.4593  0.3721
11879TIP3    H257053   6.103   2.898   4.887 -0.2580  0.1284 -0.5958
11880TIP3   OH257054   1.869   0.573   0.283 -0.5062 -0.2952 -0.1896
11880TIP3    H157055   1.863   0.605   0.373  0.1887 -0.9952  0.1212
11880TIP3    H257056   1.948   0.520   0.282  1.3687  2.2932 -2.0405
11881TIP3   OH257057   1.021   4.113   3.909  0.4920  0.1339 -0.1269
11881TIP3    H157058   1.053   4.178   3.846  0.9773 -0.8826 -0.9698
11881TIP3    H257059   0.929   4.137   3.923  0.3930  0.4313 -1.1697
11882TIP3   OH257060   1.814   6.427  13.988  0.7695  0.0983  0.2182
11882TIP3    H157061   1.767   6.411  13.906  2.0179  0.7567 -0.6761
11882TIP3    H257062   1.794   6.518  14.010  1.1550  0.2058  0.1397
11883TIP3   OH257063   2.110   5.398   6.235  0.0929 -0.1089  0.0174
11883TIP3    H157064   2.163   5.330   6.277  1.0945 -0.0510 -1.0983
11883TIP3    H257065   2.063   5.352   6.166 -3.2547 -0.6642  2.3971
11884TIP3   OH257066   5.758   4.629   3.858 -0.2527 -0.1220 -0.2110
11884TIP3    H157067   5.773   4.534   3.863  0.8263 -0.0353 -1.4321
11884TIP3    H257068   5.671   4.637   3.818 -1.1158 -0.5720  1.4473
11885TIP3   OH257069   5.271   2.869   3.764 -0.0043 -1.0941 -0.7543
11885TIP3    H157070   5.246   2.901   3.677 -0.7589 -0.1181 -0.1925
11885TIP3    H257071   5.193   2.822   3.794  0.0038 -0.8205 -0.3134
11886TIP3   OH257072   1.016   3.204   5.790  0.4214  0.1563  0.1014
11886TIP3    H157073   0.948   3.271   5.779 -1.8238 -2.0911 -0.4928
11886TIP3    H257074   1.028   3.198   5.885 -0.4438  0.3499  0.2292
11887TIP3   OH257075   5.225   0.193  14.508  0.3792 -0.7931 -0.5565
11887TIP3    H157076   5.247   0.275  14.464 -0.2927 -0.2550  0.0798
11887TIP3    H257077   5.144   0.212  14.555  0.0499 -1.9163 -0.6451
11888TIP3   OH257078   1.799   2.063   4.713  0.6939 -0.4812 -0.4062
11888TIP3    H157079   1.860   2.112   4.768 -0.3144  0.2480  0.0892
11888TIP3    H257080   1.754   2.005   4.774 -0.8704  0.7699 -0.3258
11889TIP3   OH257081   2.719   5.022  17.104 -0.1893  0.4445  0.3728
11889TIP3    H157082   2.780   5.085  17.065 -2.2947  1.1295 -2.0525
11889TIP3    H257083   2.635   5.040  17.062 -1.9340 -0.9846  2.9959
11890TIP3   OH257084   0.945   2.602  14.670  0.2648  0.5769 -0.1886
11890TIP3    H157085   0.975   2.647  14.591 -0.1238  3.0358  0.9471
11890TIP3    H257086   0.850   2.592  14.657  0.5823 -1.6451 -1.1883
11891TIP3   OH257087   4.433   6.714   2.833 -0.2791  1.0427  0.0349
11891TIP3    H157088   4.366   6.714   2.766 -0.4716 -4.8986 -0.2570
11891TIP3    H257089   4.385   6.715   2.916 -0.5175  0.6422 -0.0976
11892TIP3   OH257090   2.606   5.741  14.359 -0.5718  0.4843  0.3011
11892TIP3    H157091   2.641   5.807  14.418 -0.8346  0.4188  0.5289
11892TIP3    H257092   2.633   5.770  14.272  2.1103 -0.7662  0.6161
11893TIP3   OH257093   1.546   6.658   0.850 -0.0199  0.1256 -0.0677
11893TIP3    H157094   1.597   6.619   0.922 -0.4332 -0.8063 -0.2607
11893TIP3    H257095   1.581   6.746   0.841  1.7722 -0.5734 -0.3759
11894TIP3   OH257096   5.644   4.824   1.217  1.1815 -0.1622  0.5094
11894TIP3    H157097   5.639   4.919   1.220 -1.4906 -0.2233  1.4474
11894TIP3    H257098   5.585   4.798   1.146  2.1816 -1.1201 -0.0032
11895TIP3   OH257099   5.121   0.467  12.319 -0.2401 -0.6866  0.0578
11895TIP3    H157100   5.037   0.450  12.276 -0.7657  1.6165  0.0140
11895TIP3    H257101   5.135   0.561  12.306  3.3079 -1.3041 -1.5569
11896TIP3   OH257102   2.431   1.446  11.007  0.4894 -0.1273  0.2178
11896TIP3    H157103   2.336   1.433  11.010  0.6599 -1.5696 -0.1923
11896TIP3    H257104   2.462   1.385  10.940  1.8330 -0.3735  1.0298
11897TIP3   OH257105   4.012   0.526  16.433  0.8162 -0.7417  0.5678
11897TIP3    H157106   3.947   0.544  16.501  0.0648  1.8394 -0.7028
11897TIP3    H257107   4.016   0.431  16.428 -2.5026 -1.0099  1.0767
11898TIP3   OH257108   5.636   3.844  15.933  0.0520  0.2343  0.3665
11898TIP3    H157109   5.717   3.895  15.941  1.6660 -2.2672  1.2568
11898TIP3    H257110   5.585   3.867  16.011  1.4487 -0.5901  1.5764
11899TIP3   OH257111   3.205   2.483   5.039 -0.0840 -0.3420  0.5093
11899TIP3    H157112   3.261   2.549   5.080 -0.8245  0.2480  0.6150
11899TIP3    H257113   3.166   2.435   5.112 -2.2295  1.4039  0.6241
11900TIP3   OH257114   4.616   3.886  12.857 -0.0960  0.1302  0.7281
11900TIP3    H157115   4.675   3.951  12.894  0.6398  0.3307 -0.7248
11900TIP3    H257116   4.658   3.802  12.875  2.3620  0.3518 -2.8701
11901TIP3   OH257117   6.308   4.485  12.772 -0.3544  0.2084  1.0772
11901TIP3    H157118   6.382   4.525  12.818  1.4058 -1.8714  0.2399
11901TIP3    H257119   6.311   4.393  12.797 -0.9036 -0.4906 -1.1766
11902TIP3   OH257120   1.432   5.439   0.629 -0.0649 -0.0696 -0.1245
11902TIP3    H157121   1.480   5.402   0.703 -1.0896 -1.6951 -0.2311
11902TIP3    H257122   1.345   5.458   0.664  0.0377  1.0607 -0.4256
11903TIP3   OH257123   4.582   4.924   3.878 -0.2940 -0.4085  0.2620
11903TIP3    H157124   4.523   4.857   3.911  0.9902 -0.9265  1.6347
11903TIP3    H257125   4.670   4.887   3.891  0.4126 -0.7463 -3.9348
11904TIP3   OH257126   3.605   3.947  15.820  0.0380  0.0200 -0.3365
11904TIP3    H157127   3.550   3.889  15.768 -1.4561 -0.6133  1.8309
11904TIP3    H257128   3.547   3.981  15.889  2.0369  0.3373  1.2977
11905TIP3   OH257129   1.060   0.268  16.259 -0.5175  0.2914  0.0330
11905TIP3    H157130   1.002   0.230  16.193 -1.9753  0.4499  1.1854
11905TIP3    H257131   1.034   0.226  16.341  1.6144 -0.2905  0.4625
11906TIP3   OH257132   3.746   3.193   3.610 -0.2579  0.5278 -0.1329
11906TIP3    H157133   3.813   3.261   3.615  0.0578  0.2079  0.1291
11906TIP3    H257134   3.754   3.145   3.693 -2.1995  1.7531  0.8332
11907TIP3   OH257135   4.264   1.061   1.544  0.3002  0.1855  0.1910
11907TIP3    H157136   4.337   1.095   1.492 -2.0966  1.8695 -2.3588
11907TIP3    H257137   4.245   1.130   1.607 -1.9836  2.0848 -2.3327
11908TIP3   OH257138   3.685   6.481  16.272 -0.3721  0.4093 -0.7909
11908TIP3    H157139   3.638   6.434  16.204 -0.1229  0.0372 -0.7095
11908TIP3    H257140   3.775   6.486  16.239 -0.5171  1.3338 -1.0607
11909TIP3   OH257141   3.577   4.051   2.414 -0.3372  0.0407 -0.0704
11909TIP3    H157142   3.639   4.074   2.345 -1.0457  0.9139 -0.4345
11909TIP3    H257143   3.491   4.064   2.375 -0.7653 -0.7011  0.5760
11910TIP3   OH257144   5.299   5.825  13.621  0.6003  0.9799  0.1674
11910TIP3    H157145   5.383   5.784  13.640  1.0503  2.1221  0.7388
11910TIP3    H257146   5.253   5.824  13.704 -0.7522 -1.2998 -0.5116
11911TIP3   OH257147   5.607   0.842  13.668 -0.0237 -0.0051  0.3127
11911TIP3    H157148   5.532   0.801  13.711  1.9315 -2.8436  1.3776
11911TIP3    H257149   5.639   0.906  13.731 -0.6643  0.1596  0.4788
11912TIP3   OH257150   2.070   4.052  17.240  0.4003  0.3393  0.6217
11912TIP3    H157151   2.159   4.019  17.232  0.3298 -0.0735  1.4083
11912TIP3    H257152   2.081   4.145  17.260  0.7227 -0.0693  2.5016
11913TIP3   OH257153   5.168   4.896   4.074 -0.0826 -0.2583 -0.0903
11913TIP3    H157154   5.191   4.805   4.054  4.1399 -0.0867  2.6036
11913TIP3    H257155   5.182   4.944   3.993 -3.5383 -1.9585 -1.9032
11914TIP3   OH257156   0.268   0.655   3.628  0.6349  0.0808 -0.2054
11914TIP3    H157157   0.307   0.738   3.653  0.7046  0.4676 -1.5297
11914TIP3    H257158   0.307   0.635   3.542 -0.1029 -0.8260 -0.3422
11915TIP3   OH257159   5.439   0.530   4.038  0.0461  0.3781 -0.3752
11915TIP3    H157160   5.368   0.486   4.085 -0.8827  2.4723  0.3352
11915TIP3    H257161   5.517   0.511   4.090 -0.4477  0.1401  0.3020
11916TIP3   OH257162   2.113   6.430  15.479  0.5467  0.1114 -0.1633
11916TIP3    H157163   2.113   6.356  15.540  1.2624  1.6635  1.8145
11916TIP3    H257164   2.199   6.427  15.437  0.1980 -0.7268 -0.8601
11917TIP3   OH257165   3.977   4.705   5.783  0.2558  0.2984  0.2983
11917TIP3    H157166   4.062   4.683   5.820 -0.0150 -0.5880  0.4250
11917TIP3    H257167   3.944   4.622   5.748 -1.0253  0.3744  1.2275
11918TIP3   OH257168   0.478   1.836  14.400 -0.2977  0.5801 -0.3068
11918TIP3    H157169   0.485   1.743  14.383 -1.1174  1.0419 -3.7047
11918TIP3    H257170   0.454   1.842  14.493 -3.1709 -2.6951 -0.6737
11919TIP3   OH257171   2.343   4.750   0.476 -0.4156 -0.3489 -0.5413
11919TIP3    H157172   2.362   4.844   0.481  0.0999 -0.4365 -0.8081
11919TIP3    H257173   2.416   4.714   0.425  0.4990 -1.2160  1.3048
11920TIP3   OH257174   5.578   6.699  11.968  0.2360  0.2904 -0.4054
11920TIP3    H157175   5.484   6.684  11.967 -0.3502  3.0084  1.9865
11920TIP3    H257176   5.607   6.666  12.052  1.5065 -0.6918 -1.1932
11921TIP3   OH257177   5.802   1.471   5.733  0.2706 -0.4432 -0.1477
11921TIP3    H157178   5.726   1.460   5.790 -0.4534 -0.9450 -1.1857
11921TIP3    H257179   5.869   1.508   5.791 -0.7947  0.1779  0.7480
11922TIP3   OH257180   2.130   3.043  15.302  0.1557 -0.0058 -0.2734
11922TIP3    H157181   2.185   2.966  15.285 -1.7589 -1.2718 -1.1512
11922TIP3    H257182   2.048   3.023  15.258 -1.1976  1.5665  1.3761
11923TIP3   OH257183   1.643   1.892  14.646  0.0160 -0.5759 -0.9164
11923TIP3    H157184   1.682   1.975  14.618 -0.1669 -0.1982 -0.0783
11923TIP3    H257185   1.645   1.895  14.742  1.2687 -2.1440 -0.8569
11924TIP3   OH257186   0.579   4.730   6.003  0.5451  0.1231  0.2797
11924TIP3    H157187   0.551   4.728   5.911 -0.7185  1.1300  0.5991
11924TIP3    H257188   0.595   4.823   6.021  1.9492 -0.1926  0.7686
11925TIP3   OH257189   3.016   6.576   1.256 -0.1284 -0.3449 -0.0908
11925TIP3    H157190   2.974   6.615   1.179 -3.2775 -2.5961  0.2885
11925TIP3    H257191   3.087   6.637   1.277 -1.9361  2.7713 -2.0426
11926TIP3   OH257192   6.350   2.311  12.462  0.0935 -0.2960  0.0802
11926TIP3    H157193   6.389   2.325  12.376 -1.3740 -0.0952 -0.5798
11926TIP3    H257194   6.381   2.385  12.515 -1.7206  1.5349 -1.2850
11927TIP3   OH257195   0.911   3.426   3.564  0.1069 -0.2499 -0.3549
11927TIP3    H157196   0.820   3.430   3.534  0.7906  0.1675 -2.5371
11927TIP3    H257197   0.947   3.512   3.544  0.7226 -0.0134  1.5366
11928TIP3   OH257198   1.496   0.757  16.224  0.0756 -0.2895  0.4793
11928TIP3    H157199   1.553   0.818  16.272 -0.3346 -0.0591  0.6827
11928TIP3    H257200   1.556   0.692  16.188  0.4050 -0.4331  1.2614
11929TIP3   OH257201   0.212   3.581  13.711 -0.2274 -0.0551 -0.3240
11929TIP3    H157202   0.231   3.509  13.772  0.3616  1.1729  1.0130
11929TIP3    H257203   0.188   3.654  13.768 -0.0300  1.0307 -1.6005
11930TIP3   OH257204   2.806   3.493  14.529 -0.4254 -0.7884  0.1521
11930TIP3    H157205   2.719   3.499  14.568 -2.0111  1.8534 -3.3141
11930TIP3    H257206   2.852   3.571  14.560 -0.6618 -0.2097 -0.9338
11931TIP3   OH257207   1.454   4.849  17.200  0.6042  0.3112 -0.8154
11931TIP3    H157208   1.446   4.823  17.109 -0.4056  0.0082 -0.6551
11931TIP3    H257209   1.431   4.942  17.201  1.7139  0.5959 -1.0237
11932TIP3   OH257210   5.550   3.165   1.528 -0.4415 -0.6304  0.3029
11932TIP3    H157211   5.506   3.122   1.601  0.4742 -0.8179  0.7515
11932TIP3    H257212   5.520   3.118   1.451 -0.5947 -1.1121  0.6548
11933TIP3   OH257213   0.982   2.534  12.133 -0.0466 -0.0889  0.4083
11933TIP3    H157214   0.910   2.540  12.197  0.1888 -0.8500  0.7617
11933TIP3    H257215   1.054   2.496  12.183  0.7874  1.1502  0.1886
11934TIP3   OH257216   1.375   6.267   3.237 -0.4830 -0.0044  0.3548
11934TIP3    H157217   1.361   6.198   3.303  2.3311 -1.7663 -0.6847
11934TIP3    H257218   1.454   6.312   3.266  0.0905  0.0037 -1.1473
11935TIP3   OH257219   4.811   6.742  13.262  0.0390  0.1715  0.3790
11935TIP3    H157220   4.812   6.827  13.216  1.8287  0.1727  0.3401
11935TIP3    H257221   4.898   6.736  13.302  0.1102 -1.8501  0.0128
11936TIP3   OH257222   3.283   6.492  15.113  0.7957  0.0429 -0.1097
11936TIP3    H157223   3.264   6.536  15.196  1.2608 -1.0716  0.6071
11936TIP3    H257224   3.374   6.514  15.094  0.2930  1.4561 -1.0880
11937TIP3   OH257225   2.755   3.197  17.098 -0.3916 -0.1516  0.0508
11937TIP3    H157226   2.839   3.152  17.092 -0.6249 -0.8241  1.4163
11937TIP3    H257227   2.773   3.286  17.068  0.9208 -0.1483  0.7860
11938TIP3   OH257228   3.444   0.157   2.392 -0.4440  0.1667  0.2075
11938TIP3    H157229   3.360   0.174   2.351 -0.8904 -2.3427 -0.0796
11938TIP3    H257230   3.507   0.162   2.321 -0.6705 -0.1606 -0.0195
11939TIP3   OH257231   0.219   1.961   0.849 -0.2078 -0.0773  0.0820
11939TIP3    H157232   0.141   2.000   0.887  0.0594 -0.1383  0.6960
11939TIP3    H257233   0.223   1.873   0.887 -0.0565 -0.2188 -0.2519
11940TIP3   OH257234   3.566   1.833  17.056  0.0631 -0.2095  0.0397
11940TIP3    H157235   3.604   1.746  17.054  0.7435  0.0721  0.3094
11940TIP3    H257236   3.494   1.830  16.993 -0.8662 -1.3861  1.1163
11941TIP3   OH257237   5.967   3.770  14.845 -0.4249  0.3179  0.1535
11941TIP3    H157238   5.972   3.696  14.905 -1.0950  0.0889 -0.0612
11941TIP3    H257239   6.017   3.743  14.769  1.0190  0.8780  0.8566
11942TIP3   OH257240   0.107   0.150   2.171  0.0946 -0.1059  0.0772
11942TIP3    H157241   0.084   0.139   2.078  0.3042 -0.7801  0.1017
11942TIP3    H257242   0.169   0.079   2.189 -0.7681 -0.6535  1.0169
11943TIP3   OH257243   1.231   1.153   4.084  0.4215  0.2537 -0.1487
11943TIP3    H157244   1.170   1.119   4.019  0.7478 -0.2287 -0.2097
11943TIP3    H257245   1.201   1.116   4.167 -0.0135  0.8948 -0.0177
11944TIP3   OH257246   4.826   4.973   4.817 -0.4321 -0.4439  0.3793
11944TIP3    H157247   4.860   4.891   4.853  0.1332 -0.4515 -0.1606
11944TIP3    H257248   4.827   5.033   4.892  0.6037 -0.4991  0.4266
11945TIP3   OH257249   3.671   3.998  11.183  0.1640 -0.2839  0.4562
11945TIP3    H157250   3.755   3.981  11.140 -0.5401  0.0264 -1.1192
11945TIP3    H257251   3.605   3.977  11.116 -0.9369  1.9791  0.7278
11946TIP3   OH257252   2.014   2.865   1.426 -0.1157 -0.6358  0.0125
11946TIP3    H157253   2.070   2.869   1.504 -0.3987  0.7728  0.1664
11946TIP3    H257254   2.031   2.778   1.389  2.0121 -0.3472  0.1852
11947TIP3   OH257255   1.930   4.797   3.274  0.2728 -0.0029 -0.5956
11947TIP3    H157256   1.941   4.875   3.329  0.9607 -1.6816  1.8054
11947TIP3    H257257   1.839   4.770   3.289  0.8496 -1.2457  0.9185
11948TIP3   OH257258   2.779   4.314   3.509  0.5141  0.0464  0.6013
11948TIP3    H157259   2.866   4.327   3.471  0.9051 -1.2359  1.0372
11948TIP3    H257260   2.791   4.330   3.603  0.2882 -0.2173  0.6734
11949TIP3   OH257261   0.150   0.795   1.241  0.3077 -0.4584  0.2407
11949TIP3    H157262   0.232   0.751   1.218  0.6198  0.9627 -1.5754
11949TIP3    H257263   0.132   0.767   1.330  1.8654 -2.1501  0.0826
11950TIP3   OH257264   4.109   3.618  11.274  0.3911  0.3422  0.3014
11950TIP3    H157265   4.076   3.638  11.187  1.3897  1.3775  0.1417
11950TIP3    H257266   4.103   3.701  11.322 -0.7999 -0.3634  1.4639
11951TIP3   OH257267   1.296   0.772   4.012  0.4315 -0.1290 -0.2834
11951TIP3    H157268   1.246   0.709   3.960  0.2199  0.3933 -0.7146
11951TIP3    H257269   1.285   0.856   3.967 -0.2373  0.4513  0.9165
11952TIP3   OH257270   4.301   1.982   1.891  0.3237  0.2937  0.1542
11952TIP3    H157271   4.243   2.024   1.955 -0.1624  0.1304 -0.1700
11952TIP3    H257272   4.286   1.888   1.903  0.0279  0.2734 -0.3867
11953TIP3   OH257273   2.758   3.842  11.383  0.0634 -0.2515  0.3687
11953TIP3    H157274   2.846   3.867  11.410 -0.5313  2.9748 -0.2433
11953TIP3    H257275   2.753   3.748  11.399  3.3305 -0.3938  1.1282
11954TIP3   OH257276   6.500   1.562  11.464 -0.2023 -0.1294 -0.1237
11954TIP3    H157277   6.507   1.575  11.370 -0.3406  0.9972  0.0020
11954TIP3    H257278   6.545   1.480  11.481  0.8437  0.2352 -1.0326
11955TIP3   OH257279   4.966   0.513   2.585  0.4845  0.2530  0.0236
11955TIP3    H157280   4.985   0.432   2.631  0.3054  0.0760 -0.2119
11955TIP3    H257281   5.051   0.541   2.550  0.4460 -0.1491 -0.4039
11956TIP3   OH257282   6.444   1.576  15.654  0.5310 -0.0180  0.1197
11956TIP3    H157283   6.442   1.506  15.589  1.4708 -0.6908  0.7808
11956TIP3    H257284   6.354   1.609  15.657  0.7466  1.0125 -2.5260
11957TIP3   OH257285   0.702   4.816  15.723 -0.3070 -0.0038  0.0751
11957TIP3    H157286   0.702   4.807  15.818 -4.6177 -0.3976  0.2510
11957TIP3    H257287   0.722   4.728  15.691  0.2032 -0.1043  0.6559
11958TIP3   OH257288   1.275   3.878   4.369  0.5157 -0.1540 -0.2596
11958TIP3    H157289   1.229   3.852   4.290 -1.1749 -2.2680  1.2913
11958TIP3    H257290   1.350   3.819   4.373  0.9896  0.4133 -0.6029
11959TIP3   OH257291   0.204   6.229  11.288 -0.0674 -0.1560 -0.7479
11959TIP3    H157292   0.115   6.195  11.283 -0.3672  0.7823 -2.0307
11959TIP3    H257293   0.196   6.311  11.336 -0.0066  0.2844 -1.4850
11960TIP3   OH257294   4.947   4.067  15.074 -0.2019 -0.0231 -0.2048
11960TIP3    H157295   4.860   4.086  15.040  0.8435  1.7039 -2.1280
11960TIP3    H257296   5.001   4.056  14.996  1.3120 -1.1265  0.9467
11961TIP3   OH257297   1.051   6.413   5.473 -0.4350 -0.0404 -0.3782
11961TIP3    H157298   1.143   6.408   5.448 -0.0935  2.4211  0.0471
11961TIP3    H257299   1.023   6.500   5.443 -2.4531 -0.4766  0.0656
11962TIP3   OH257300   6.698   3.804  13.665 -0.0960 -0.4538  0.3034
11962TIP3    H157301   6.713   3.895  13.640  0.1161 -0.2728  1.0707
11962TIP3    H257302   6.746   3.793  13.747  0.9821 -1.6279 -0.4507
11963TIP3   OH257303   4.281   4.259  11.771  0.0675 -0.1128  1.1753
11963TIP3    H157304   4.369   4.265  11.808 -0.0787  1.6605  1.3329
11963TIP3    H257305   4.289   4.298  11.684 -0.4604 -0.4129  0.9897
11964TIP3   OH257306   3.304   6.503  16.532  0.3467 -0.1073  0.3416
11964TIP3    H157307   3.277   6.574  16.473 -0.6462  0.5227  1.5201
11964TIP3    H257308   3.398   6.516  16.543  0.4788  0.0041 -0.7794
11965TIP3   OH257309   1.016   3.808   5.058 -0.9263  0.1056  0.2237
11965TIP3    H157310   1.095   3.753   5.060 -1.4331 -0.5953  1.6090
11965TIP3    H257311   0.972   3.782   4.977 -0.2087 -0.1635 -0.0921
11966TIP3   OH257312   6.461   5.276  11.299  0.5007  0.0776  0.0184
11966TIP3    H157313   6.383   5.256  11.351  0.9168  0.9910  1.0578
11966TIP3    H257314   6.508   5.193  11.293  0.5354 -0.0238  1.3203
11967TIP3   OH257315   3.766   0.019  16.186  0.0405 -0.1520 -0.5496
11967TIP3    H157316   3.751  -0.076  16.186  0.7392 -0.2709  0.1250
11967TIP3    H257317   3.759   0.044  16.278  0.3572  0.3700 -0.6620
11968TIP3   OH257318   6.075   1.516  13.194 -0.2005  0.0354 -0.0279
11968TIP3    H157319   6.111   1.534  13.281  0.2669  1.2876 -0.4642
11968TIP3    H257320   6.060   1.421  13.194  0.5045 -0.0974  1.1386
11969TIP3   OH257321   1.141   3.136   5.485  0.5420  0.4531  0.2379
11969TIP3    H157322   1.165   3.118   5.395  0.2870  0.4321  0.1750
11969TIP3    H257323   1.074   3.071   5.507 -1.2897  2.0407 -0.3879
11970TIP3   OH257324   2.585   2.429  13.084 -0.0504  0.4496 -0.5374
11970TIP3    H157325   2.616   2.410  13.173  1.2950 -0.7781 -1.2217
11970TIP3    H257326   2.540   2.513  13.092 -1.1452 -0.2599  1.5587
11971TIP3   OH257327   4.155   4.673   2.750 -0.5383 -0.6366  0.0503
11971TIP3    H157328   4.150   4.718   2.666 -1.9201 -1.2119 -0.2102
11971TIP3    H257329   4.208   4.730   2.806  0.6374 -0.3887 -1.2871
11972TIP3   OH257330   6.077   2.078   0.419  0.4330 -0.6687  0.0084
11972TIP3    H157331   6.086   1.990   0.457 -0.5731 -0.5916  0.4643
11972TIP3    H257332   6.018   2.066   0.345 -0.3462 -0.2532  0.5556
11973TIP3   OH257333   0.616   6.430   5.082 -0.0987  0.1458 -0.1264
11973TIP3    H157334   0.620   6.486   5.004  0.4313  1.4906  0.8143
11973TIP3    H257335   0.667   6.353   5.059  1.0181  1.0340 -0.7585
11974TIP3   OH257336   0.826   4.024  14.468 -0.4480  0.1550  0.3283
11974TIP3    H157337   0.874   3.943  14.450 -1.4680 -0.5692  0.7776
11974TIP3    H257338   0.738   3.995  14.491 -1.0203  1.4401 -0.1601
11975TIP3   OH257339   2.913   0.592  16.222 -0.2364 -0.0523 -0.2015
11975TIP3    H157340   2.922   0.498  16.235 -2.1016 -0.3360 -0.6305
11975TIP3    H257341   2.937   0.607  16.131 -0.0027 -0.1261 -0.1523
11976TIP3   OH257342   3.720   5.228   4.550 -0.2582  0.1561 -0.0627
11976TIP3    H157343   3.683   5.140   4.543 -1.3716  0.6529 -0.7420
11976TIP3    H257344   3.761   5.231   4.636  1.8433 -1.7704 -0.9200
11977TIP3   OH257345   5.322   3.953   4.114 -0.1129 -0.0792  0.4554
11977TIP3    H157346   5.416   3.943   4.102 -0.4180 -1.3280 -1.3687
11977TIP3    H257347   5.293   3.869   4.150 -0.7203 -0.3260 -0.5664
11978TIP3   OH257348   4.007   5.098   3.840  0.1920 -0.1879 -0.4190
11978TIP3    H157349   4.055   5.036   3.786 -1.2554  1.8696 -4.5287
11978TIP3    H257350   3.915   5.081   3.819 -0.6801 -0.6366  3.1975
11979TIP3   OH257351   1.712   0.717   3.888 -0.2735  0.3061 -0.1895
11979TIP3    H157352   1.777   0.736   3.955 -0.4802 -0.8323  0.3704
11979TIP3    H257353   1.629   0.747   3.926 -0.1410  1.3996 -0.7399
11980TIP3   OH257354   2.884   3.554   1.606  0.1045  0.8342 -0.0945
11980TIP3    H157355   2.828   3.624   1.640  0.5814 -0.2286  3.2670
11980TIP3    H257356   2.968   3.569   1.648  0.7395 -0.7495 -0.7403
11981TIP3   OH257357   4.887   6.190   4.944  0.1785  0.4578  0.2273
11981TIP3    H157358   4.804   6.205   4.898 -0.0720 -4.0064 -1.2498
11981TIP3    H257359   4.861   6.184   5.037 -0.9089  0.5312 -0.0532
11982TIP3   OH257360   5.461   1.468   3.942  0.2526  0.1785  0.0502
11982TIP3    H157361   5.400   1.542   3.943 -0.3254 -0.2550 -0.8561
11982TIP3    H257362   5.444   1.421   4.023  0.3789  0.8387  0.4659
11983TIP3   OH257363   1.321   3.666   5.389 -0.5251 -0.0642  0.8770
11983TIP3    H157364   1.267   3.675   5.311  0.9837 -1.6771 -0.4413
11983TIP3    H257365   1.265   3.695   5.461 -2.4192  0.2154 -0.6460
11984TIP3   OH257366   3.421   0.148   3.442  0.1014  0.6006 -0.2149
11984TIP3    H157367   3.492   0.200   3.405 -0.6802  1.7730 -0.1350
11984TIP3    H257368   3.362   0.132   3.367  0.1940  0.0659 -0.1770
11985TIP3   OH257369   1.299   4.771  11.156  0.6408 -0.2868  0.6181
11985TIP3    H157370   1.319   4.777  11.062 -0.3102  2.7170  0.4869
11985TIP3    H257371   1.380   4.738  11.195  1.9938  0.8541 -1.0216
11986TIP3   OH257372   1.779   0.892   2.509  0.3987 -1.0168  0.1791
11986TIP3    H157373   1.725   0.847   2.445 -0.7454  0.1387  0.2859
11986TIP3    H257374   1.806   0.824   2.571  1.7639 -2.2205 -1.6220
11987TIP3   OH257375   4.320   6.084   3.094  0.7321 -0.3503 -0.0006
11987TIP3    H157376   4.380   6.013   3.116 -1.2262 -2.4601 -1.0260
11987TIP3    H257377   4.310   6.080   2.999  1.1607  1.8825 -0.2119
11988TIP3   OH257378   3.224   2.499  15.185 -0.6332 -0.0490  0.1427
11988TIP3    H157379   3.178   2.508  15.102 -0.2609 -5.4219 -1.0589
11988TIP3    H257380   3.316   2.507  15.162 -0.4668 -2.5008 -0.3787
11989TIP3   OH257381   5.360   1.612   1.122  0.1763 -0.5095  0.1548
11989TIP3    H157382   5.284   1.669   1.123  0.2395 -0.4385  1.0332
11989TIP3    H257383   5.337   1.543   1.060  0.7864  1.3753 -2.3757
11990TIP3   OH257384   1.359   3.496  16.053  0.4172 -0.2875 -0.0568
11990TIP3    H157385   1.361   3.558  16.126 -1.0880 -0.0396 -0.1854
11990TIP3    H257386   1.327   3.548  15.979 -0.2935 -1.0784 -0.3202
11991TIP3   OH257387   4.888   0.573   3.415 -0.4899  0.5874 -0.7260
11991TIP3    H157388   4.874   0.642   3.480 -1.1031  0.2533 -0.4976
11991TIP3    H257389   4.918   0.498   3.467 -0.7065  0.4071 -0.8629
11992TIP3   OH257390   6.547   6.058   0.452 -0.0650  0.6639 -0.0872
11992TIP3    H157391   6.572   6.114   0.525  1.4283  1.0965 -0.9070
11992TIP3    H257392   6.604   6.084   0.380  0.5193 -1.7118 -0.5834
11993TIP3   OH257393   3.598   2.222   2.929  0.0510  0.2307  0.2758
11993TIP3    H157394   3.535   2.183   2.990  1.1953 -1.6344  0.3592
11993TIP3    H257395   3.684   2.195   2.963  0.7384 -1.1709 -2.2860
11994TIP3   OH257396   2.773   4.679   3.374  0.2143  0.2643  0.3995
11994TIP3    H157397   2.836   4.641   3.313 -0.7490 -2.4304  0.9367
11994TIP3    H257398   2.699   4.619   3.372 -0.9753  1.5875  2.1900
11995TIP3   OH257399   3.308   6.091  15.027 -0.1041  0.2530 -0.0125
11995TIP3    H157400   3.336   6.006  15.063 -0.9219  0.9893  2.5316
11995TIP3    H257401   3.380   6.117  14.969  1.0013 -1.3211  0.5866
11996TIP3   OH257402   4.851   4.575   0.396  0.2200 -0.6615 -0.3931
11996TIP3    H157403   4.833   4.607   0.307 -0.1355 -0.5877 -0.2950
11996TIP3    H257404   4.862   4.481   0.385 -0.0515 -0.6850 -0.4832
11997TIP3   OH257405   4.468   1.971   1.701  0.0277 -0.1268  0.5131
11997TIP3    H157406   4.395   1.948   1.759 -2.2037  2.3715 -1.0730
11997TIP3    H257407   4.504   2.051   1.739 -1.1011  1.2207 -1.1267
11998TIP3   OH257408   5.257   4.981   5.168 -0.2735 -0.1394 -0.1772
11998TIP3    H157409   5.234   4.896   5.203  0.8128 -0.4688 -0.2120
11998TIP3    H257410   5.279   4.964   5.076 -1.5598  0.4491 -0.6169
11999TIP3   OH257411   3.391   1.995   0.899  0.6651 -0.2129  0.1609
11999TIP3    H157412   3.297   2.002   0.882  0.8494 -0.7203 -1.1722
11999TIP3    H257413   3.398   2.003   0.994 -0.8879 -1.7280  0.4707
12000TIP3   OH257414   6.170   6.037   5.567 -0.0987  0.0727 -0.5628
12000TIP3    H157415   6.115   5.967   5.602  0.0599  0.5335  0.6464
12000TIP3    H257416   6.136   6.117   5.607 -1.8069  1.0879 -3.6765
12001TIP3   OH257417   1.301   4.270   3.126 -0.0568 -0.1789 -0.2328
12001TIP3    H157418   1.292   4.346   3.067 -0.5139  0.9843  1.2563
12001TIP3    H257419   1.286   4.194   3.069 -0.9445  0.9040 -1.5371
12002TIP3   OH257420   6.333   1.046  11.965  0.4380  0.2839  0.1496
12002TIP3    H157421   6.239   1.058  11.949  0.3050 -0.5281  0.2542
12002TIP3    H257422   6.375   1.084  11.888  0.0319  0.8284  0.1917
12003TIP3   OH257423   5.031   4.426  12.937 -0.7697 -0.1922  0.0843
12003TIP3    H157424   5.067   4.349  12.981  0.7539  0.2349 -0.3735
12003TIP3    H257425   5.089   4.441  12.863 -0.2992  2.1062  0.8497
12004TIP3   OH257426   6.156   1.531  15.400 -0.6298  0.4365  0.1500
12004TIP3    H157427   6.215   1.485  15.340  0.0120  0.6490  0.6081
12004TIP3    H257428   6.162   1.481  15.482  1.0938  2.0216  1.0807
12005TIP3   OH257429   3.328   6.071   3.139 -0.0534 -0.3167  0.3505
12005TIP3    H157430   3.335   6.003   3.205 -2.3664  0.6129  1.6990
12005TIP3    H257431   3.407   6.124   3.150  0.2242 -0.9432  1.4898
12006TIP3   OH257432   4.647   3.213   2.849  0.3889  0.0667 -0.5003
12006TIP3    H157433   4.572   3.164   2.814  0.9173 -1.0502 -0.1343
12006TIP3    H257434   4.628   3.222   2.943  0.5682  0.0346 -0.4603
12007TIP3   OH257435   1.307   2.899  17.029  0.4626 -0.0873  0.2719
12007TIP3    H157436   1.251   2.861  16.961  0.9301  0.5512 -0.4779
12007TIP3    H257437   1.388   2.922  16.984  0.4836  1.0653  0.8659
12008TIP3   OH257438   0.470   1.369  15.441  0.0265 -0.3161 -0.0477
12008TIP3    H157439   0.409   1.387  15.369  1.3282  2.3249 -0.6083
12008TIP3    H257440   0.554   1.353  15.397  0.4743 -0.4610  0.8417
12009TIP3   OH257441   4.836   2.079   2.886 -0.1605  0.5335 -0.5168
12009TIP3    H157442   4.885   2.001   2.860  0.0160 -0.4758  2.5343
12009TIP3    H257443   4.895   2.152   2.866  1.7529 -0.4988  1.0617
12010TIP3   OH257444   6.734   1.717   4.357  0.7039  0.8340 -0.6846
12010TIP3    H157445   6.742   1.797   4.305  1.1394  1.1573 -0.1287
12010TIP3    H257446   6.745   1.746   4.448  3.4126 -0.1533 -0.5929
12011TIP3   OH257447   2.387   2.140   5.769 -0.3930  0.6381 -0.1571
12011TIP3    H157448   2.412   2.231   5.784 -0.3212  0.4915  0.6634
12011TIP3    H257449   2.313   2.125   5.827 -0.3350  0.1454 -0.1997
12012TIP3   OH257450   2.465   1.814  12.779  0.2242 -0.2057  0.1366
12012TIP3    H157451   2.512   1.888  12.741 -0.2446  0.4285  0.7781
12012TIP3    H257452   2.402   1.853  12.839 -1.0178 -1.0488 -0.5813
12013TIP3   OH257453   4.512   1.330  14.806  0.0404  0.6468 -0.5327
12013TIP3    H157454   4.544   1.420  14.809  0.6789  0.5222 -2.2289
12013TIP3    H257455   4.554   1.286  14.880  0.5965  1.4791 -0.3444
12014TIP3   OH257456   6.153   6.051  12.515  0.3188  0.4001  0.4508
12014TIP3    H157457   6.135   6.008  12.432  3.6085 -0.2975 -0.0592
12014TIP3    H257458   6.144   5.982  12.581 -1.5336  0.7705  0.6229
12015TIP3   OH257459   0.964   4.911   3.553  0.2028  0.1467 -0.0572
12015TIP3    H157460   1.010   4.829   3.538 -0.4956 -0.3546  0.4711
12015TIP3    H257461   1.011   4.975   3.500  0.4522 -0.6902 -0.8798
12016TIP3   OH257462   6.096   1.487   4.403  0.0403 -0.1343 -0.3330
12016TIP3    H157463   6.021   1.430   4.416 -0.9012  0.6943 -1.8806
12016TIP3    H257464   6.161   1.431   4.360  0.0682 -0.6611  0.3673
12017TIP3   OH257465   5.052   6.077  15.915  0.6049  0.3048  0.0461
12017TIP3    H157466   5.001   6.119  15.984 -0.4516  0.9080 -1.0688
12017TIP3    H257467   5.098   6.150  15.872  1.1204 -0.0432  0.0036
12018TIP3   OH257468   6.226   3.735  15.602 -0.3950  0.6218 -0.2456
12018TIP3    H157469   6.149   3.682  15.583 -0.4196 -0.1504  1.6958
12018TIP3    H257470   6.225   3.745  15.698  2.3681 -0.1783 -0.0227
12019TIP3   OH257471   3.838   5.160  11.910  0.0023 -0.5414  0.3335
12019TIP3    H157472   3.787   5.234  11.943  0.6733  0.3860 -0.6430
12019TIP3    H257473   3.885   5.128  11.987 -0.4466 -0.0722  0.8101
12020TIP3   OH257474   3.098   3.320   5.296 -0.1062 -0.6211  0.0452
12020TIP3    H157475   3.006   3.341   5.280 -0.1925 -1.6790 -0.9702
12020TIP3    H257476   3.098   3.278   5.382 -0.0840  2.2659  1.5711
12021TIP3   OH257477   3.137   2.086   0.867  0.2743  0.6356 -0.7566
12021TIP3    H157478   3.073   2.082   0.797 -0.8267 -0.3947  0.2580
12021TIP3    H257479   3.108   2.020   0.930  2.6220 -0.2736 -0.4940
12022TIP3   OH257480   1.149   5.948  17.339  0.0607  0.0452 -0.2764
12022TIP3    H157481   1.058   5.918  17.347 -0.8061  2.0374 -1.8196
12022TIP3    H257482   1.189   5.886  17.278 -0.6014 -0.1840 -0.4887
12023TIP3   OH257483   6.643   5.491  15.125  0.0532  0.2293  0.0641
12023TIP3    H157484   6.726   5.447  15.137  0.1600  0.3983 -0.0515
12023TIP3    H257485   6.594   5.435  15.064 -0.7410 -0.9712  1.7092
12024TIP3   OH257486   3.280   2.726  12.679 -0.1369  0.1499  0.7353
12024TIP3    H157487   3.213   2.795  12.677 -0.8648 -0.5567 -0.9909
12024TIP3    H257488   3.234   2.647  12.651  1.3158 -0.4540 -0.0439
12025TIP3   OH257489   0.751   1.462   0.953 -0.7653 -0.1865 -0.0078
12025TIP3    H157490   0.736   1.368   0.957 -0.7218 -0.2544 -1.1631
12025TIP3    H257491   0.771   1.480   0.861  0.3101  0.7941  0.3917
12026TIP3   OH257492   2.132   4.554  10.844  0.1768  0.1054 -0.1425
12026TIP3    H157493   2.042   4.542  10.813  0.2377  1.4577 -0.9381
12026TIP3    H257494   2.146   4.649  10.837  2.4586 -0.3036 -2.3030
12027TIP3   OH257495   6.646   2.878  16.467 -0.8646 -0.5689  0.1627
12027TIP3    H157496   6.679   2.968  16.475 -1.8562  0.2919 -3.4647
12027TIP3    H257497   6.584   2.868  16.539 -0.8611  1.7332  0.5608
12028TIP3   OH257498   1.326   4.714   4.405  0.1932  0.1258  0.1304
12028TIP3    H157499   1.251   4.766   4.376  0.0928  0.1910  0.5015
12028TIP3    H257500   1.298   4.623   4.391  0.5604  0.1755 -0.9856
12029TIP3   OH257501   2.167   2.143  12.597  0.0488 -0.0027 -0.3520
12029TIP3    H157502   2.183   2.221  12.545 -1.2488  0.0348 -0.7461
12029TIP3    H257503   2.195   2.070  12.541 -1.3819  0.0351 -1.1706
12030TIP3   OH257504   0.646   5.312  14.128  0.4086 -0.1635 -0.1249
12030TIP3    H157505   0.634   5.406  14.118  0.8836  0.0196  0.9358
12030TIP3    H257506   0.565   5.273  14.096 -0.0425  0.6405  0.0321
12031TIP3   OH257507   5.928   0.763   4.341 -0.5826  0.4754  0.0011
12031TIP3    H157508   5.864   0.823   4.303  0.6482 -0.1162 -3.3506
12031TIP3    H257509   5.937   0.692   4.277  2.1323 -0.3512  1.1133
12032TIP3   OH257510   1.898   2.958   4.616 -0.5360 -0.1217  0.2206
12032TIP3    H157511   1.916   2.866   4.596  1.7110  0.3941 -0.3810
12032TIP3    H257512   1.855   2.956   4.701 -0.6487 -1.7438  0.1502
12033TIP3   OH257513   5.628   3.722   1.963  0.6185 -0.3798  0.3434
12033TIP3    H157514   5.639   3.688   2.052  1.2729 -1.4901 -0.1305
12033TIP3    H257515   5.663   3.811   1.967  0.7860 -0.4692  1.1515
12034TIP3   OH257516   3.348   5.426   2.667 -0.1393  0.2620 -0.1854
12034TIP3    H157517   3.390   5.477   2.737  0.3537 -0.3955  0.0081
12034TIP3    H257518   3.255   5.446   2.676  0.0406  1.0739 -0.0707
12035TIP3   OH257519   1.244   1.430  15.897  0.1474 -0.1650  0.2594
12035TIP3    H157520   1.334   1.441  15.866 -0.7368  3.6756 -1.4452
12035TIP3    H257521   1.252   1.425  15.992  2.2530 -2.8027  0.0667
12036TIP3   OH257522   1.376   2.427   1.913 -0.2321  0.0034  0.1668
12036TIP3    H157523   1.425   2.380   1.981 -2.8555 -1.2340  1.3555
12036TIP3    H257524   1.393   2.379   1.833  1.0242  0.0263  0.4094
12037TIP3   OH257525   1.793   5.798  15.747  0.0452 -0.4167  0.3303
12037TIP3    H157526   1.759   5.709  15.754 -1.6181  0.1567 -0.0990
12037TIP3    H257527   1.846   5.810  15.826  0.4617 -1.8340  0.2947
12038TIP3   OH257528   0.017   6.039  13.661  0.4338  0.2373  0.4808
12038TIP3    H157529   0.018   6.004  13.572  0.4736 -2.0375  1.3159
12038TIP3    H257530   0.004   6.133  13.649  0.5595  0.0202 -1.9179
12039TIP3   OH257531   1.210   0.814  17.159  0.3678 -0.1701  0.0129
12039TIP3    H157532   1.278   0.764  17.113  0.8129 -1.1580  1.6719
12039TIP3    H257533   1.258   0.880  17.209 -0.1710  1.5246 -1.5741
12040TIP3   OH257534   2.219   1.494   0.291 -0.0099 -0.4616  0.3762
12040TIP3    H157535   2.185   1.582   0.307 -1.5927 -1.0999  0.7566
12040TIP3    H257536   2.152   1.436   0.327  1.0277 -1.8258  0.1822
12041TIP3   OH257537   4.540   1.869  14.401 -0.0092 -0.1454 -0.6042
12041TIP3    H157538   4.559   1.948  14.451 -1.9371  0.0619 -0.1080
12041TIP3    H257539   4.590   1.879  14.320  0.5337  1.1227 -0.1423
12042TIP3   OH257540   3.028   5.034   4.061  0.1182 -0.5024 -0.7148
12042TIP3    H157541   3.065   5.001   4.143 -0.5098 -0.2098 -0.2927
12042TIP3    H257542   3.080   5.111   4.040 -0.0684 -0.2496 -0.2735
12043TIP3   OH257543   4.947   5.310   0.247 -0.5731  0.2034 -0.4304
12043TIP3    H157544   4.990   5.390   0.278 -0.5456 -0.3472  1.0693
12043TIP3    H257545   5.019   5.252   0.223 -0.5176 -0.0391  0.2915
12044TIP3   OH257546   5.259   1.636   4.095  0.6950  0.3410  0.1107
12044TIP3    H157547   5.234   1.698   4.027  0.0496 -0.2374 -0.1997
12044TIP3    H257548   5.280   1.690   4.171  0.4802  0.9535 -0.2582
12045TIP3   OH257549   1.963   4.077   5.046 -0.3832 -0.3687  0.2237
12045TIP3    H157550   1.973   4.026   5.126  0.2587  1.3832  1.3154
12045TIP3    H257551   2.052   4.104   5.024 -0.8164  1.3988  0.4764
12046TIP3   OH257552   3.379   3.190   6.569  0.1759 -0.4329 -0.3716
12046TIP3    H157553   3.375   3.186   6.664 -1.2060 -1.1026 -0.4260
12046TIP3    H257554   3.431   3.268   6.549  0.4362 -0.2676  0.9263
12047TIP3   OH257555   1.334   4.561   0.320 -0.8141  0.2745 -0.2985
12047TIP3    H157556   1.241   4.585   0.317 -0.6757  0.8345 -0.1379
12047TIP3    H257557   1.335   4.467   0.300 -1.5612 -0.0963  1.1967
12048TIP3   OH257558   4.170   3.113   4.545  0.0653  0.7614 -0.8879
12048TIP3    H157559   4.114   3.107   4.622  0.5066  0.6677 -0.5706
12048TIP3    H257560   4.147   3.035   4.494 -0.7175  1.1809 -1.1921
12049TIP3   OH257561   3.336   1.090  15.179 -0.0277  0.3404  0.2008
12049TIP3    H157562   3.289   1.172  15.163 -0.0128  0.4473  0.7034
12049TIP3    H257563   3.389   1.107  15.257  1.3706  0.4480 -0.7239
12050TIP3   OH257564   3.226   5.128   2.375 -0.0362 -0.0494 -0.6907
12050TIP3    H157565   3.314   5.107   2.344  0.5352  2.9345 -1.3760
12050TIP3    H257566   3.237   5.142   2.469 -0.5650 -2.9944 -0.0690
12051TIP3   OH257567   6.661   0.920  17.111 -0.0903 -0.5824  0.9787
12051TIP3    H157568   6.691   1.001  17.152 -0.0717 -1.5129  2.9258
12051TIP3    H257569   6.731   0.897  17.050  0.5998  0.1045  1.4876
12052TIP3   OH257570   4.214   0.184  11.819  0.2665 -0.0230  0.4015
12052TIP3    H157571   4.250   0.273  11.825  0.6560 -0.2461  1.7202
12052TIP3    H257572   4.289   0.130  11.793  0.1573 -0.0570  0.1500
12053TIP3   OH257573   3.147   6.564  15.351 -0.1455  0.5645 -0.0698
12053TIP3    H157574   3.052   6.556  15.358 -0.1716  0.3211 -0.6289
12053TIP3    H257575   3.168   6.648  15.393 -0.5308  0.3167  0.6289
12054TIP3   OH257576   1.813   1.616   0.923 -0.0706 -0.0723 -0.7561
12054TIP3    H157577   1.850   1.623   0.835 -0.4604 -1.5895 -1.0777
12054TIP3    H257578   1.822   1.523   0.945  0.0161  0.2794  0.8155
12055TIP3   OH257579   2.879   1.628   5.179  0.0162 -0.4978 -0.1374
12055TIP3    H157580   2.926   1.567   5.123  0.0058  0.2390 -0.9807
12055TIP3    H257581   2.947   1.671   5.231  0.0039 -1.3535  0.6097
12056TIP3   OH257582   5.155   3.587   3.478  0.0614 -0.0524 -0.7114
12056TIP3    H157583   5.091   3.645   3.518  0.0834 -1.8823  2.3106
12056TIP3    H257584   5.237   3.635   3.482 -0.1143  0.1666  0.7309
12057TIP3   OH257585   4.130   0.794   3.023  0.2312  0.2664 -0.2381
12057TIP3    H157586   4.146   0.704   2.995  0.6940  0.2897 -0.0570
12057TIP3    H257587   4.129   0.790   3.118  1.2451  0.6057 -0.1951
12058TIP3   OH257588   6.049   3.552  10.574 -0.4693 -0.1619  0.8485
12058TIP3    H157589   6.007   3.637  10.587  1.1858  0.9553 -0.5384
12058TIP3    H257590   6.139   3.565  10.605  0.2198 -0.9393 -0.6960
12059TIP3   OH257591   5.239   0.847   0.379 -0.3853  1.2161  0.4697
12059TIP3    H157592   5.211   0.799   0.301 -0.2789  1.0601  0.5267
12059TIP3    H257593   5.178   0.920   0.385  0.2698  1.8434 -0.3683
12060TIP3   OH257594   2.817   2.502   5.059  0.4927 -0.6711  0.0328
12060TIP3    H157595   2.812   2.423   5.005 -2.1520 -0.4896 -0.1044
12060TIP3    H257596   2.770   2.479   5.140 -0.7004  0.8292 -0.1823
12061TIP3   OH257597   4.382   5.971  12.466 -0.3085 -0.2246 -0.1197
12061TIP3    H157598   4.299   5.923  12.468  0.0277 -0.8057  0.8754
12061TIP3    H257599   4.417   5.956  12.379 -0.4016 -1.4827  0.0447
12062TIP3   OH257600   6.565   0.712   5.159 -0.1443 -0.1919  0.2165
12062TIP3    H157601   6.484   0.748   5.193  0.6047  2.4544 -0.5139
12062TIP3    H257602   6.540   0.667   5.079 -0.7511  2.8283 -1.4722
12063TIP3   OH257603   1.038   1.219  14.418 -0.5502  0.0136  0.4575
12063TIP3    H157604   0.982   1.232  14.342  0.4891 -1.4104 -0.6112
12063TIP3    H257605   0.989   1.257  14.491 -2.5734 -0.5712 -0.5292
12064TIP3   OH257606   0.279   2.451   5.726 -0.3572  0.0417 -0.2421
12064TIP3    H157607   0.363   2.495   5.719 -0.3427 -0.1679 -2.0375
12064TIP3    H257608   0.222   2.512   5.772  0.6505  0.3680  0.5851
12065TIP3   OH257609   4.598   5.155  15.954  0.1174  0.2262 -0.1634
12065TIP3    H157610   4.654   5.229  15.930 -0.2131  0.7748  0.7304
12065TIP3    H257611   4.605   5.095  15.879  0.5405  1.0602 -0.8101
12066TIP3   OH257612   1.919   1.035   3.290 -0.5926  0.0664  0.1143
12066TIP3    H157613   2.013   1.048   3.301 -0.4703 -0.6869  0.0640
12066TIP3    H257614   1.903   0.946   3.323 -1.0325 -0.3909 -1.2606
12067TIP3   OH257615   2.574   4.148  15.226 -0.6676 -0.0559  0.5561
12067TIP3    H157616   2.523   4.070  15.204 -0.5589  0.1695 -0.5798
12067TIP3    H257617   2.617   4.126  15.309 -1.1074 -0.9723  0.5556
12068TIP3   OH257618   6.006   1.991  13.970 -0.4549  0.4947  0.1988
12068TIP3    H157619   6.048   1.910  13.941 -1.3736  0.3882 -0.9292
12068TIP3    H257620   6.015   1.991  14.065 -0.0024 -0.6852  0.1626
12069TIP3   OH257621   0.070   6.654   1.260  0.5942 -0.0135  0.4045
12069TIP3    H157622  -0.003   6.617   1.310  1.7666 -1.2603  1.2508
12069TIP3    H257623   0.058   6.619   1.171  0.3036 -0.3998  0.5924
12070TIP3   OH257624   3.411   4.342   4.016 -0.0989  0.5607  0.3522
12070TIP3    H157625   3.483   4.348   3.952 -1.2727  1.8924 -0.9009
12070TIP3    H257626   3.444   4.282   4.083  2.2399  1.2552 -0.0978
12071TIP3   OH257627   4.142   3.537   0.314 -0.1943 -0.2825  0.8241
12071TIP3    H157628   4.064   3.483   0.320 -0.5968  0.4121  2.4736
12071TIP3    H257629   4.118   3.620   0.356  1.2247  0.1793  0.8026
12072TIP3   OH257630   6.107   1.381   5.416 -0.6503 -0.3187 -0.0433
12072TIP3    H157631   6.102   1.472   5.448 -1.1152  0.0360 -1.0991
12072TIP3    H257632   6.030   1.339   5.453  0.3691 -0.7453  1.7563
12073TIP3   OH257633   6.105   3.330   5.817  0.2630 -0.0687 -0.6196
12073TIP3    H157634   6.166   3.330   5.743  1.2619 -0.2955  0.1867
12073TIP3    H257635   6.160   3.316   5.894 -0.7991 -0.1754  0.1438
12074TIP3   OH257636   2.406   2.836  14.639  0.2575  0.6286  0.1778
12074TIP3    H157637   2.450   2.790  14.568  0.5773 -2.1970  2.0352
12074TIP3    H257638   2.470   2.901  14.669  0.7397  0.7420 -1.0422
12075TIP3   OH257639   5.346   6.090  14.124 -0.1266 -0.3244  0.6579
12075TIP3    H157640   5.357   6.169  14.178 -2.5068  0.3701  0.2663
12075TIP3    H257641   5.321   6.124  14.038 -1.3133 -1.4796  0.5132
12076TIP3   OH257642   1.434   5.759  15.245 -0.9378 -0.5757 -0.1859
12076TIP3    H157643   1.477   5.703  15.181 -1.0877 -1.8541  0.7836
12076TIP3    H257644   1.470   5.732  15.329  0.6561  2.3184  0.2137
12077TIP3   OH257645   5.124   0.665  11.452  0.3012  0.6947 -0.5064
12077TIP3    H157646   5.219   0.676  11.452  0.3193  0.5523 -0.7504
12077TIP3    H257647   5.092   0.734  11.394  0.3001  0.3892 -0.8698
12078TIP3   OH257648   0.542   0.392  16.010  0.1076  0.1859  0.4818
12078TIP3    H157649   0.501   0.319  16.056  1.1963 -0.7916 -0.0287
12078TIP3    H257650   0.508   0.386  15.921 -2.0124  2.0869  1.0622
12079TIP3   OH257651   6.305   0.314   3.147 -0.0363 -0.5827 -0.4333
12079TIP3    H157652   6.323   0.225   3.176 -0.4490 -0.2147  1.0497
12079TIP3    H257653   6.358   0.325   3.069  0.7484 -1.8098 -0.1028
12080TIP3   OH257654   3.469   2.826   3.303 -0.4826  0.6861 -0.1352
12080TIP3    H157655   3.560   2.854   3.289 -0.8693  1.6548 -0.8371
12080TIP3    H257656   3.459   2.825   3.398  0.6003 -0.6163  0.0011
12081TIP3   OH257657   0.517   5.806  16.400  0.2376  0.0008  0.0615
12081TIP3    H157658   0.501   5.878  16.461 -1.6344 -1.8609  1.9663
12081TIP3    H257659   0.581   5.750  16.445  0.4848 -0.3196 -0.6769
12082TIP3   OH257660   0.358   4.078  15.058  0.6413 -0.4120  0.7571
12082TIP3    H157661   0.320   4.145  15.114  1.6627 -0.1685  1.1881
12082TIP3    H257662   0.317   4.091  14.972 -0.4922 -0.4102  1.2919
12083TIP3   OH257663   3.883   5.486   3.503 -0.2504 -0.2804  0.0087
12083TIP3    H157664   3.919   5.415   3.449  2.8159  1.4828 -0.4449
12083TIP3    H257665   3.933   5.563   3.479 -3.2083  2.0673  0.7636
12084TIP3   OH257666   1.930   3.256   5.163  0.1063  0.2512  0.0816
12084TIP3    H157667   1.930   3.165   5.194  1.2138  0.3697  0.4642
12084TIP3    H257668   2.022   3.275   5.144 -0.1701  1.1549 -0.4337
12085TIP3   OH257669   2.112   5.620  15.597 -0.0361  0.1690  0.0820
12085TIP3    H157670   2.094   5.713  15.609  0.3713  0.1683  0.7426
12085TIP3    H257671   2.201   5.608  15.631  0.3965 -0.2248 -1.1629
12086TIP3   OH257672   2.774   2.480   3.926 -0.0562  0.3196  0.3849
12086TIP3    H157673   2.773   2.408   3.863  0.9647  0.3609  0.3074
12086TIP3    H257674   2.708   2.455   3.992 -0.4418 -0.1809 -0.1785
12087TIP3   OH257675   0.148   3.585  11.528 -0.1413 -0.0460  0.0265
12087TIP3    H157676   0.221   3.647  11.532 -0.8413  0.8147 -0.2454
12087TIP3    H257677   0.126   3.579  11.435  1.4597 -2.5799 -0.2690
12088TIP3   OH257678   1.287   6.349  13.042  0.1520  0.1954  0.0547
12088TIP3    H157679   1.303   6.275  12.983 -1.4145  0.0628 -0.2693
12088TIP3    H257680   1.271   6.308  13.128 -1.4901  0.0487 -0.2826
12089TIP3   OH257681   3.649   5.810   1.799 -0.4699  0.2482  0.6371
12089TIP3    H157682   3.555   5.809   1.817 -1.0476 -0.8446 -1.9656
12089TIP3    H257683   3.678   5.721   1.822 -0.4915 -0.0188 -0.3357
12090TIP3   OH257684   4.352   1.884  13.761 -0.3670  0.1582  0.0089
12090TIP3    H157685   4.377   1.924  13.845 -1.1307 -0.2271  0.4272
12090TIP3    H257686   4.331   1.959  13.705 -0.5646  0.3952  0.3915
12091TIP3   OH257687   5.030   6.127   3.856  0.1642  0.1466  0.1729
12091TIP3    H157688   5.001   6.066   3.924 -1.9997 -0.4079 -1.1575
12091TIP3    H257689   5.108   6.168   3.892  0.1278 -1.4587  2.2198
12092TIP3   OH257690   0.624   2.641  13.743 -1.3274 -0.4212  0.1385
12092TIP3    H157691   0.693   2.705  13.759 -2.1050  0.0139  2.0883
12092TIP3    H257692   0.669   2.563  13.713 -0.1550  0.3745 -0.2170
12093TIP3   OH257693   6.475   1.325  13.421 -0.3310 -0.3062  0.3229
12093TIP3    H157694   6.508   1.305  13.509  0.4829 -2.5659 -0.4381
12093TIP3    H257695   6.383   1.296  13.423 -0.3223 -0.3264  0.4427
12094TIP3   OH257696   2.732   1.036   5.800 -0.3355  0.0763  1.3514
12094TIP3    H157697   2.706   0.944   5.789 -0.3557  0.2058  0.1876
12094TIP3    H257698   2.649   1.083   5.811 -0.4726  0.1895 -0.0067
12095TIP3   OH257699   1.038   6.299   6.054 -0.8409 -0.1685  0.0571
12095TIP3    H157700   0.980   6.234   6.015 -0.6394 -1.2993  1.5291
12095TIP3    H257701   0.982   6.350   6.112 -0.7451  0.0477 -0.0418
12096TIP3   OH257702   6.552   2.362   2.969 -0.7721  0.1367 -0.3665
12096TIP3    H157703   6.595   2.440   3.002 -1.1495  0.6126 -0.9773
12096TIP3    H257704   6.588   2.290   3.022  1.6430  0.3333 -1.5919
12097TIP3   OH257705   1.352   4.140  14.954  0.4601  0.1891 -0.0888
12097TIP3    H157706   1.398   4.158  14.872  1.3181  1.3992  0.6220
12097TIP3    H257707   1.422   4.121  15.017  0.0257  2.1331  1.0351
12098TIP3   OH257708   5.459   2.421   1.195  0.4107  0.1535 -0.0618
12098TIP3    H157709   5.500   2.505   1.215 -0.6255  0.5056  0.6761
12098TIP3    H257710   5.395   2.441   1.127 -1.1865  0.3646  1.4424
12099TIP3   OH257711   3.092   5.779   2.673  0.3422  0.2928  0.1850
12099TIP3    H157712   3.082   5.822   2.758 -0.4470  0.4614  0.0157
12099TIP3    H257713   3.003   5.775   2.638  0.8299  1.6239 -1.3273
12100TIP3   OH257714   0.375   5.737  17.131 -0.1795  0.1066 -0.0217
12100TIP3    H157715   0.358   5.652  17.172  0.8822 -0.2874 -0.3751
12100TIP3    H257716   0.293   5.786  17.143 -0.8021 -0.9563  0.1906
12101TIP3   OH257717   3.692   1.769   2.258  0.0406  0.0951 -0.0966
12101TIP3    H157718   3.744   1.692   2.238  1.4576  0.5980  1.4175
12101TIP3    H257719   3.617   1.736   2.308  0.7378 -0.2971  0.7091
12102TIP3   OH257720   5.666   3.828   0.270 -0.2376 -0.4522 -0.1717
12102TIP3    H157721   5.588   3.780   0.300 -0.8040  0.3634 -0.2889
12102TIP3    H257722   5.713   3.765   0.215 -2.5649  0.0047 -2.9372
12103TIP3   OH257723   3.289   2.028   3.375 -0.2310 -0.2046 -0.1009
12103TIP3    H157724   3.265   2.081   3.299  2.6444  0.5801 -0.5534
12103TIP3    H257725   3.384   2.032   3.379 -0.2140 -0.8078  3.1420
12104TIP3   OH257726   6.464   3.094  13.667  0.0702  0.1382  0.0301
12104TIP3    H157727   6.387   3.043  13.690  1.3026 -0.7794  2.4730
12104TIP3    H257728   6.441   3.184  13.690 -0.1309 -0.2027  1.2092
12105TIP3   OH257729   2.038   5.248  12.550 -0.2159 -0.2699 -0.4219
12105TIP3    H157730   2.112   5.248  12.611 -1.8149  1.2975  1.6617
12105TIP3    H257731   2.030   5.157  12.521  1.5996 -0.7478  0.4198
12106TIP3   OH257732   2.611   2.708   0.184  0.4700  0.7745  0.0711
12106TIP3    H157733   2.609   2.624   0.137  0.1030 -0.5009  2.2273
12106TIP3    H257734   2.547   2.763   0.139 -0.9795 -0.9114 -0.0224
12107TIP3   OH257735   1.314   1.640   2.039  0.1913 -0.2088  0.1586
12107TIP3    H157736   1.320   1.566   2.099 -0.9995  0.6021  1.3399
12107TIP3    H257737   1.225   1.673   2.052  1.0733  2.1541  0.5637
12108TIP3   OH257738   4.187   2.495   4.862 -0.5239  0.4541 -0.1126
12108TIP3    H157739   4.107   2.512   4.912 -0.5979  1.1321 -0.4442
12108TIP3    H257740   4.156   2.465   4.777 -0.3994 -3.0113  0.9416
12109TIP3   OH257741   4.180   6.129  15.574 -0.0942 -0.5173  0.6195
12109TIP3    H157742   4.178   6.217  15.536  1.4478 -0.4790  0.5739
12109TIP3    H257743   4.262   6.091  15.543 -0.2453 -1.5963  1.4677
12110TIP3   OH257744   3.221   1.039  17.333  0.3351 -0.0360 -0.1748
12110TIP3    H157745   3.176   0.957  17.351 -0.5701  0.6597  0.8994
12110TIP3    H257746   3.178   1.073  17.254 -0.7226  0.3928  0.5716
12111TIP3   OH257747   3.077   4.408  15.107 -0.0747  0.0515  0.0145
12111TIP3    H157748   3.077   4.479  15.043 -0.0965  0.9708  1.0069
12111TIP3    H257749   3.143   4.346  15.075 -0.6544  0.0889 -1.3079
12112TIP3   OH257750   5.206   1.707   5.695 -0.2444 -0.5222 -0.3047
12112TIP3    H157751   5.248   1.752   5.769 -1.5719 -1.5103  1.1187
12112TIP3    H257752   5.274   1.651   5.659  0.0382 -1.1374  1.1377
12113TIP3   OH257753   5.122   3.036  15.863 -0.1199  0.1090  0.3709
12113TIP3    H157754   5.150   2.953  15.902  0.0191  0.7355  1.6592
12113TIP3    H257755   5.026   3.035  15.871 -0.0290  0.7977  2.0092
12114TIP3   OH257756   0.184   6.523   2.671  0.4426  0.4617 -0.0309
12114TIP3    H157757   0.241   6.596   2.644  0.6723  0.9854  1.7615
12114TIP3    H257758   0.233   6.478   2.739 -0.8575  0.2827  0.8165
12115TIP3   OH257759   5.491   0.927   5.188  0.1791  0.2744  0.3532
12115TIP3    H157760   5.516   0.835   5.183  0.2431  0.0724  3.1034
12115TIP3    H257761   5.524   0.957   5.273  0.0744  2.8281 -0.4187
12116TIP3   OH257762   0.066   0.752   1.777  0.1608 -0.0327  0.2820
12116TIP3    H157763   0.120   0.830   1.790 -0.3260  0.7280 -1.8626
12116TIP3    H257764  -0.016   0.786   1.741 -0.2376 -1.5090 -0.2817
12117TIP3   OH257765   0.810   0.793   1.099  0.3098 -0.5743 -0.1133
12117TIP3    H157766   0.722   0.799   1.137  1.0282  2.9484  1.4140
12117TIP3    H257767   0.863   0.752   1.167  0.4573  0.4215  0.3949
12118TIP3   OH257768   1.520   0.010  16.120 -0.0412  1.0347  0.4681
12118TIP3    H157769   1.572   0.084  16.088 -0.1930  0.8246 -0.2712
12118TIP3    H257770   1.429   0.035  16.103 -0.0411  0.0221 -1.2916
12119TIP3   OH257771   6.460   4.107  15.877 -0.2231 -0.0205 -0.3506
12119TIP3    H157772   6.473   4.164  15.953  0.8874 -0.5497 -0.1212
12119TIP3    H257773   6.521   4.034  15.891 -3.1015 -2.4658  0.5006
12120TIP3   OH257774   2.765   5.924  15.354 -0.5429  0.2527 -0.3508
12120TIP3    H157775   2.770   5.930  15.449 -0.7287  0.4845 -0.3545
12120TIP3    H257776   2.777   5.831  15.335  1.4472  0.4454 -0.2227
12121TIP3   OH257777   2.177   2.763  14.262 -0.0173 -0.1153 -0.1388
12121TIP3    H157778   2.160   2.683  14.311  3.2434 -0.0272  1.3919
12121TIP3    H257779   2.168   2.833  14.327 -0.8622  0.5828 -0.9836
12122TIP3   OH257780   5.899   0.123   1.211  0.3425  0.0549 -0.1092
12122TIP3    H157781   5.823   0.073   1.242  0.1170  1.0584  1.0198
12122TIP3    H257782   5.893   0.207   1.256  0.3699  1.3903 -2.4215
12123TIP3   OH257783   6.434   0.852  14.085  0.0940 -0.3371  0.8786
12123TIP3    H157784   6.385   0.909  14.143 -1.5434 -0.2892 -0.4821
12123TIP3    H257785   6.501   0.908  14.047 -0.5297  0.2930  0.7018
12124TIP3   OH257786   6.376   5.311   2.810  0.0714 -0.2755 -0.2889
12124TIP3    H157787   6.440   5.244   2.831  0.4260  0.0120 -0.4384
12124TIP3    H257788   6.422   5.371   2.750 -0.0663  0.3847  0.2536
12125TIP3   OH257789   5.454   6.086   2.763  0.2888  0.5306 -0.1233
12125TIP3    H157790   5.444   6.181   2.763 -0.2552  0.4825  0.8397
12125TIP3    H257791   5.539   6.071   2.804  0.0245  0.5780  0.4511
12126TIP3   OH257792   0.644   4.490  12.662 -0.2198 -0.0230 -0.0336
12126TIP3    H157793   0.584   4.557  12.696 -2.6476 -2.6778  1.3393
12126TIP3    H257794   0.618   4.477  12.571 -0.6551 -0.0389  0.0922
12127TIP3   OH257795   3.066   6.275  15.622  0.2563 -0.0453  0.2336
12127TIP3    H157796   3.065   6.251  15.715  0.7880 -0.8886  0.0344
12127TIP3    H257797   3.065   6.191  15.576 -0.8635  0.3753 -0.5446
12128TIP3   OH257798   4.084   0.927  14.158  0.0489  0.4222 -0.0834
12128TIP3    H157799   4.129   0.843  14.170 -2.9273 -1.5053 -1.4543
12128TIP3    H257800   4.116   0.980  14.231  2.5687 -1.6022  0.4690
12129TIP3   OH257801   2.025   1.517  13.268  0.1874 -0.3829 -0.4001
12129TIP3    H157802   1.949   1.504  13.325 -0.6751  0.1729 -1.3780
12129TIP3    H257803   2.021   1.610  13.244 -0.0596 -0.8161 -2.1425
12130TIP3   OH257804   2.462   0.635   5.631 -0.4054  0.3550 -0.6697
12130TIP3    H157805   2.476   0.620   5.538  3.5462  0.6319 -0.2841
12130TIP3    H257806   2.526   0.702   5.654 -1.6621  0.7235  2.1638
12131TIP3   OH257807   3.296   3.438  16.370 -0.1153 -0.1063 -0.1699
12131TIP3    H157808   3.223   3.499  16.380 -0.2524 -0.3015  0.0517
12131TIP3    H257809   3.300   3.420  16.277 -0.6896 -0.4994 -0.1248
12132TIP3   OH257810   6.466   6.042   0.913  0.0210 -0.1263  0.4704
12132TIP3    H157811   6.560   6.026   0.902  0.3643  0.4382  2.2939
12132TIP3    H257812   6.425   5.987   0.847  1.6923  1.2049 -1.8356
12133TIP3   OH257813   6.583   5.765   3.175 -0.0626 -0.0417 -0.6325
12133TIP3    H157814   6.632   5.836   3.135 -0.1474  0.3870  0.0036
12133TIP3    H257815   6.493   5.798   3.181  0.0014  0.0266  0.1580
12134TIP3   OH257816   2.039   3.572  13.155  0.1964 -0.1830 -0.0237
12134TIP3    H157817   2.012   3.486  13.121 -1.9644 -0.2459  1.5661
12134TIP3    H257818   2.030   3.563  13.250 -0.2128  1.8177  0.1737
12135TIP3   OH257819   3.091   3.583  13.260 -0.1987  0.2981  0.1183
12135TIP3    H157820   3.062   3.497  13.288 -0.2084  0.1340 -0.3779
12135TIP3    H257821   3.172   3.567  13.211 -0.4471  0.5138 -0.3767
12136TIP3   OH257822   2.541   6.304   4.250  0.0810  0.0935  0.3111
12136TIP3    H157823   2.566   6.278   4.338  2.6439  0.6600 -0.1612
12136TIP3    H257824   2.620   6.290   4.197 -1.0054  0.8952 -1.6423
12137TIP3   OH257825   6.741   6.485  15.740 -0.5892  0.0311 -0.2734
12137TIP3    H157826   6.671   6.521  15.686  0.8243  2.9584 -0.3214
12137TIP3    H257827   6.811   6.465  15.679 -0.7601 -1.4443 -0.0367
12138TIP3   OH257828   4.030   5.815  15.203 -0.4828  0.3836  0.0083
12138TIP3    H157829   3.939   5.789  15.189 -0.2842  1.0822 -3.3284
12138TIP3    H257830   4.024   5.903  15.240 -1.1739  0.4234 -0.1755
12139TIP3   OH257831   1.004   4.519   1.680  0.0092 -0.0327 -0.5291
12139TIP3    H157832   0.966   4.580   1.617 -0.5140 -0.3758 -0.5542
12139TIP3    H257833   0.953   4.533   1.760  2.7391  2.7498  0.9097
12140TIP3   OH257834   3.927   4.230  11.025  0.5477 -0.1420  0.8734
12140TIP3    H157835   3.942   4.135  11.016 -0.7053 -0.3254  0.5747
12140TIP3    H257836   3.938   4.264  10.936 -0.5268 -0.2474  0.6908
12141TIP3   OH257837   2.246   4.411   0.937 -0.0203 -0.1068 -0.1266
12141TIP3    H157838   2.183   4.339   0.933  0.1533 -0.4116  1.6774
12141TIP3    H257839   2.194   4.490   0.922 -0.3399 -0.5397 -1.3770
12142TIP3   OH257840   0.740   6.129  15.718 -0.4918 -0.1476  0.1635
12142TIP3    H157841   0.811   6.150  15.778 -1.4123  1.8107  0.6573
12142TIP3    H257842   0.773   6.057  15.665  2.0647  1.0036  0.0448
12143TIP3   OH257843   4.929   3.988   6.470 -0.2740 -0.2380  0.4231
12143TIP3    H157844   4.980   3.909   6.450  1.7796  0.6215  1.9927
12143TIP3    H257845   4.988   4.060   6.450 -1.8963  0.9273 -0.3611
12144TIP3   OH257846   3.418   0.466  16.975 -0.8360  0.8417 -0.3073
12144TIP3    H157847   3.482   0.506  16.915 -1.4135  2.5245  0.1387
12144TIP3    H257848   3.351   0.429  16.917 -1.8242  3.1908 -0.7805
12145TIP3   OH257849   1.779   1.543  12.424 -0.5366 -0.0869  0.3904
12145TIP3    H157850   1.782   1.448  12.437 -0.7898 -0.1342  0.1034
12145TIP3    H257851   1.870   1.571  12.433 -0.4492 -0.3657  0.3951
12146TIP3   OH257852   5.446   5.610  14.785  0.4179 -0.0947  0.4514
12146TIP3    H157853   5.533   5.589  14.751 -0.1614 -0.3074 -1.0059
12146TIP3    H257854   5.388   5.545  14.745 -0.6832  1.1886 -0.1557
12147TIP3   OH257855   6.709   6.054   6.150  0.0537  0.1424 -0.1101
12147TIP3    H157856   6.709   6.095   6.237  1.0402 -0.9214  0.4233
12147TIP3    H257857   6.706   6.128   6.089  0.7290  0.9740  0.8247
12148TIP3   OH257858   2.302   4.577  13.397  0.0264 -0.1371 -0.2672
12148TIP3    H157859   2.256   4.590  13.313  2.2629 -0.4348 -1.6174
12148TIP3    H257860   2.314   4.666  13.431 -0.2412  0.0400 -0.6215
12149TIP3   OH257861   6.537   0.997  12.782 -0.1927  0.1897  0.3630
12149TIP3    H157862   6.469   1.065  12.773 -2.1408 -1.3164  2.3872
12149TIP3    H257863   6.541   0.956  12.696  1.6368  3.2535 -1.1791
12150TIP3   OH257864   4.758   1.331  12.361 -0.3480  0.2057  0.0760
12150TIP3    H157865   4.786   1.273  12.290 -1.0459 -1.0537  0.7713
12150TIP3    H257866   4.754   1.273  12.438 -1.0535  1.1940  0.8063
12151TIP3   OH257867   2.417   3.573  16.036 -0.1360 -0.3411  0.1616
12151TIP3    H157868   2.399   3.546  16.126 -2.2563 -1.1214 -0.4320
12151TIP3    H257869   2.430   3.490  15.988 -2.2627 -0.1629 -0.8317
12152TIP3   OH257870   3.468   6.586   5.404  0.7229  0.3581  0.1963
12152TIP3    H157871   3.518   6.509   5.377  0.3016  0.1948 -0.1183
12152TIP3    H257872   3.382   6.574   5.365  0.5378  0.8052  0.4611
12153TIP3   OH257873   4.327   4.452   0.489 -0.2531  0.0644  0.1077
12153TIP3    H157874   4.410   4.432   0.532  1.1286 -0.2955 -2.5215
12153TIP3    H257875   4.304   4.539   0.520  1.5050  0.4684  0.3569
12154TIP3   OH257876   1.551   5.651  11.790 -0.1104  0.3913  0.4418
12154TIP3    H157877   1.583   5.576  11.841  0.1890  0.9578  1.0982
12154TIP3    H257878   1.463   5.625  11.762  0.7232 -1.0262 -1.0524
12155TIP3   OH257879   1.781   6.705  14.065  0.7298  0.3170 -0.1456
12155TIP3    H157880   1.788   6.781  14.123 -1.2924  1.5982 -1.4462
12155TIP3    H257881   1.829   6.730  13.987 -1.6072  1.2139 -1.4002
12156TIP3   OH257882   1.917   0.789  13.342  0.0318 -0.4439 -0.3773
12156TIP3    H157883   1.965   0.871  13.349  0.7003 -0.9301  1.0674
12156TIP3    H257884   1.953   0.734  13.411 -2.2546 -1.0227  0.4537
12157TIP3   OH257885   1.469   5.954  14.149  0.1858 -0.3286 -0.4573
12157TIP3    H157886   1.559   5.942  14.180  0.1416  1.2513  0.3245
12157TIP3    H257887   1.417   5.966  14.228 -0.6521 -0.6947 -0.9334
12158TIP3   OH257888   1.410   3.353   3.455  0.5368  0.2204 -0.3397
12158TIP3    H157889   1.403   3.392   3.367 -0.2502  1.2094  0.1426
12158TIP3    H257890   1.328   3.306   3.467  0.2566  0.8374  0.2077
12159TIP3   OH257891   1.079   0.928   2.907  0.1598 -0.0913 -0.5956
12159TIP3    H157892   0.989   0.943   2.877  0.1096  0.2696 -0.2715
12159TIP3    H257893   1.131   0.994   2.862  0.4392 -0.9721 -1.6083
12160TIP3   OH257894   1.518   3.589  14.755  0.1698 -0.8401  0.1119
12160TIP3    H157895   1.510   3.679  14.786 -3.9762 -1.8011  2.6009
12160TIP3    H257896   1.564   3.543  14.826 -0.4725 -1.2093  0.2986
12161TIP3   OH257897   5.875   6.074  14.685 -0.7221  0.3295  0.0364
12161TIP3    H157898   5.848   6.083  14.594  2.6930 -0.3302 -1.1764
12161TIP3    H257899   5.872   5.979  14.702  0.5041  0.2600 -0.0672
12162TIP3   OH257900   0.234   3.428   6.339  0.1940  0.3408  0.0358
12162TIP3    H157901   0.247   3.444   6.432  0.0243  0.1136  0.1004
12162TIP3    H257902   0.153   3.378   6.334  1.3262 -1.5620 -0.0596
12163TIP3   OH257903   1.886   0.443   5.019 -0.3985  0.4672  0.1340
12163TIP3    H157904   1.803   0.409   4.983 -0.1853  0.4720 -0.3645
12163TIP3    H257905   1.899   0.526   4.974 -0.0045  0.3565  0.0423
12164TIP3   OH257906   2.454   1.220   0.433 -0.0888 -0.2242 -0.5252
12164TIP3    H157907   2.396   1.262   0.497 -0.0347  0.5015 -0.9497
12164TIP3    H257908   2.514   1.169   0.487 -0.6475 -0.3887 -0.0418
12165TIP3   OH257909   3.705   4.483   3.485 -0.4675  0.5014 -0.1396
12165TIP3    H157910   3.625   4.440   3.455 -0.5036 -0.2816  0.9969
12165TIP3    H257911   3.718   4.450   3.575  1.8745 -0.5023 -0.7522
12166TIP3   OH257912   1.399   3.255   5.137 -0.1453 -0.7667 -0.7564
12166TIP3    H157913   1.442   3.293   5.213  1.8254 -0.1712 -2.1038
12166TIP3    H257914   1.318   3.218   5.171  0.8740 -0.8933  1.6945
12167TIP3   OH257915   0.918   3.952  15.508 -0.4622  0.3275  0.5689
12167TIP3    H157916   0.881   3.935  15.422  1.3573  1.4711 -0.4998
12167TIP3    H257917   0.939   3.865  15.543 -1.1825 -0.1438 -0.1609
12168TIP3   OH257918   3.490   5.595   0.635  0.2177  0.1096  0.0257
12168TIP3    H157919   3.459   5.685   0.646 -0.7453 -0.3972  1.9487
12168TIP3    H257920   3.585   5.603   0.633  0.1386  1.3158 -1.8154
12169TIP3   OH257921   3.208   0.341  11.381 -0.7337 -0.5884 -0.4218
12169TIP3    H157922   3.167   0.426  11.364 -0.2600 -0.3583 -0.4107
12169TIP3    H257923   3.299   0.352  11.354  0.5678  0.3278  3.6683
12170TIP3   OH257924   2.800   5.977   5.619  0.6235 -0.8084  0.3505
12170TIP3    H157925   2.868   5.909   5.614  0.7744 -0.5951 -2.6277
12170TIP3    H257926   2.849   6.059   5.629  0.7324 -0.8146 -0.0774
12171TIP3   OH257927   6.507   1.639   1.852  0.1409 -0.4885  0.2863
12171TIP3    H157928   6.518   1.671   1.941  1.5613 -1.5930  0.5473
12171TIP3    H257929   6.579   1.578   1.839  0.4146  0.1830 -1.8763
12172TIP3   OH257930   3.023   2.371   0.276 -0.2312  0.2482 -0.0644
12172TIP3    H157931   3.078   2.346   0.202 -0.6169  0.7831 -0.5432
12172TIP3    H257932   3.038   2.303   0.341 -0.3308 -0.5570 -0.8628
12173TIP3   OH257933   3.254   6.264   1.230 -0.7287 -0.8407  0.1896
12173TIP3    H157934   3.269   6.358   1.235  0.0792 -0.9572  0.0341
12173TIP3    H257935   3.166   6.252   1.267 -1.3318  0.0934 -0.8831
12174TIP3   OH257936   4.760   1.042  12.419 -0.5489 -0.0307  0.3845
12174TIP3    H157937   4.679   0.994  12.406  0.7504 -2.6477  1.2598
12174TIP3    H257938   4.758   1.068  12.511 -1.1680  1.5288 -0.0428
12175TIP3   OH257939   2.797   3.418  14.921 -0.2538  0.2519  0.1416
12175TIP3    H157940   2.821   3.377  15.003  1.5443  0.2668 -0.3320
12175TIP3    H257941   2.800   3.348  14.856  1.5671  0.8157 -0.4453
12176TIP3   OH257942   2.920   5.831  11.642 -0.0567  0.7252 -0.7148
12176TIP3    H157943   2.941   5.747  11.602  1.0278  0.8574 -0.4388
12176TIP3    H257944   2.826   5.842  11.628 -0.2194 -0.5672 -0.6877
12177TIP3   OH257945   6.015   2.344  16.890  0.1469  0.2383 -0.2683
12177TIP3    H157946   6.074   2.297  16.949 -0.2230  0.2635  0.1308
12177TIP3    H257947   5.960   2.275  16.852  1.9166 -0.1032 -2.4383
12178TIP3   OH257948   0.978   0.402  16.696 -0.4678 -0.2200 -0.8178
12178TIP3    H157949   0.897   0.357  16.722 -0.6227  0.8972  0.8424
12178TIP3    H257950   1.043   0.372  16.760 -0.1917  0.7064 -0.6500
12179TIP3   OH257951   0.753   0.697   4.481 -0.3914 -0.1623 -0.1051
12179TIP3    H157952   0.810   0.660   4.548 -0.9793 -0.8392  0.0261
12179TIP3    H257953   0.670   0.714   4.525 -0.4750  0.2954 -0.4290
12180TIP3   OH257954   5.409   2.757  12.244 -0.3304 -0.3508  0.6049
12180TIP3    H157955   5.372   2.677  12.206  0.4694 -0.2988 -0.3083
12180TIP3    H257956   5.458   2.726  12.320  0.6476 -0.8429 -0.2064
12181TIP3   OH257957   5.023   3.587  16.281  0.2773  0.7049 -0.4803
12181TIP3    H157958   4.985   3.597  16.368 -1.0190 -0.4915 -0.8669
12181TIP3    H257959   5.117   3.582  16.296  0.2209  2.2903  0.6629
12182TIP3   OH257960   4.963   2.881   1.627 -0.1861 -0.1847 -0.3379
12182TIP3    H157961   4.982   2.949   1.691  1.7156 -2.3949  1.6250
12182TIP3    H257962   5.020   2.901   1.553  0.5240  0.2392  0.3133
12183TIP3   OH257963   2.757   5.900   5.211  0.3777 -0.5784  0.6536
12183TIP3    H157964   2.779   5.988   5.179  0.0523 -0.9013 -0.4937
12183TIP3    H257965   2.696   5.865   5.146 -0.4394 -1.2044  1.7263
12184TIP3   OH257966   2.367   0.225   3.620 -0.3902  0.5777 -0.2721
12184TIP3    H157967   2.273   0.226   3.603 -0.5520 -0.1931  0.5513
12184TIP3    H257968   2.376   0.184   3.706  0.8463 -1.5740 -1.3444
12185TIP3   OH257969   0.943   0.320  11.905 -0.0141  0.0511 -0.8446
12185TIP3    H157970   0.913   0.408  11.928  1.1307  1.0174 -2.7384
12185TIP3    H257971   0.987   0.288  11.983 -0.8338  0.9547  0.0219
12186TIP3   OH257972   1.218   2.109   4.211  0.2692 -0.0565 -0.2620
12186TIP3    H157973   1.132   2.075   4.237 -0.1407  0.6337 -0.6811
12186TIP3    H257974   1.260   2.035   4.167 -0.2656 -0.2844 -0.4046
12187TIP3   OH257975   5.462   0.595   6.216  0.0514  0.2767 -0.0285
12187TIP3    H157976   5.554   0.604   6.189 -0.4698 -1.5251 -2.8482
12187TIP3    H257977   5.466   0.548   6.299  1.6696  0.1225 -0.1558
12188TIP3   OH257978   3.435   4.201  13.686 -0.1840 -0.2026  0.1435
12188TIP3    H157979   3.424   4.275  13.625 -0.2231 -0.8698 -0.6785
12188TIP3    H257980   3.359   4.208  13.744 -0.6338 -0.0654 -0.4446
12189TIP3   OH257981   3.215   1.335   2.806  0.5325  0.3150  0.3961
12189TIP3    H157982   3.158   1.410   2.821  0.8810  0.7854 -0.5175
12189TIP3    H257983   3.262   1.357   2.725  0.9455 -0.7020  0.3449
12190TIP3   OH257984   2.532   2.299  16.182  0.2686 -0.1030 -0.1611
12190TIP3    H157985   2.523   2.278  16.275  0.7421 -1.0010 -0.3072
12190TIP3    H257986   2.509   2.392  16.176  1.4160  0.2890  1.0371
12191TIP3   OH257987   2.328   5.210  11.461 -0.2425  0.0088  0.5696
12191TIP3    H157988   2.398   5.238  11.402 -0.3374 -0.6287  0.1422
12191TIP3    H257989   2.372   5.159  11.528  0.1152  2.1908  2.1017
12192TIP3   OH257990   2.293   2.247   2.697 -0.3598  0.3868 -0.2983
12192TIP3    H157991   2.232   2.321   2.696 -0.3618  0.4855  2.0538
12192TIP3    H257992   2.346   2.259   2.618 -2.1668  1.3087 -1.4455
12193TIP3   OH257993   5.009   3.150   4.528 -0.3782 -0.0427 -0.1508
12193TIP3    H157994   5.040   3.061   4.512 -0.9048 -0.0988 -0.8761
12193TIP3    H257995   4.935   3.139   4.588  2.0046  0.2104  3.1602
12194TIP3   OH257996   2.835   3.525   4.005  0.0810 -0.9693 -0.8606
12194TIP3    H157997   2.872   3.467   4.072  1.4312  0.4652 -0.3086
12194TIP3    H257998   2.766   3.574   4.051  2.7577  1.9744  0.4208
12195TIP3   OH257999   2.526   5.282   4.780 -0.1177  0.1830  0.3496
12195TIP3    H158000   2.495   5.328   4.858  2.2880  0.5789  1.1700
12195TIP3    H258001   2.530   5.190   4.807 -0.2809  0.1750  0.3459
12196TIP3   OH258002   3.298   0.153  16.477 -0.7114 -0.2004  0.0956
12196TIP3    H158003   3.267   0.239  16.508  0.4897  0.5466 -0.6778
12196TIP3    H258004   3.292   0.159  16.382 -2.0247 -1.5547  0.0715
12197TIP3   OH258005   3.965   2.220   4.171 -0.1000  0.0293 -0.0844
12197TIP3    H158006   4.012   2.165   4.108 -0.8767 -1.6313  0.7279
12197TIP3    H258007   3.908   2.159   4.218 -0.8315  1.5127  1.0217
12198TIP3   OH258008   4.064   6.580  13.921 -0.3222  0.3404  0.2041
12198TIP3    H158009   3.998   6.564  13.853  0.4850 -0.3505 -0.4458
12198TIP3    H258010   4.067   6.499  13.971 -1.0197  0.9029  1.1732
12199TIP3   OH258011   3.538   4.613  11.110 -0.3761  0.3943 -0.0927
12199TIP3    H158012   3.503   4.609  11.199  0.2946 -2.0872  0.1259
12199TIP3    H258013   3.633   4.607  11.120 -0.3618 -2.0765 -0.9708
12200TIP3   OH258014   1.249   3.417  13.189 -0.1755  0.0427  0.1558
12200TIP3    H158015   1.210   3.485  13.245 -2.2347 -2.7986  2.4870
12200TIP3    H258016   1.174   3.372  13.150  1.1023 -1.1417 -1.0518
12201TIP3   OH258017   0.068   3.221   4.284 -0.0210 -0.1604 -0.7844
12201TIP3    H158018   0.125   3.146   4.302 -1.8885 -1.1849  1.4792
12201TIP3    H258019   0.128   3.294   4.270  1.8518 -1.3552  0.4872
12202TIP3   OH258020   2.153   4.765   5.509 -0.6631 -0.4841  0.1282
12202TIP3    H158021   2.121   4.854   5.520 -0.5941 -0.8019  4.3049
12202TIP3    H258022   2.244   4.768   5.539  0.3235 -1.4771 -2.4694
12203TIP3   OH258023   5.824   6.144   5.397 -0.1702 -0.4265 -0.4361
12203TIP3    H158024   5.894   6.080   5.385 -1.3259 -1.5717 -1.4511
12203TIP3    H258025   5.868   6.225   5.421  1.4092 -1.3686 -0.0466
12204TIP3   OH258026   6.525   6.438   4.976  0.1163 -0.1692  0.7977
12204TIP3    H158027   6.470   6.419   4.900  1.6341  0.0853 -0.3986
12204TIP3    H258028   6.490   6.519   5.012  1.6277  1.8261 -1.8984
12205TIP3   OH258029   0.860   0.935   2.748  0.1997 -0.1031  0.0891
12205TIP3    H158030   0.845   0.844   2.724  0.1781 -0.3645  1.0443
12205TIP3    H258031   0.791   0.954   2.813  1.3252  0.0105  1.2988
12206TIP3   OH258032   3.207   3.341   4.101 -0.1187  0.7544  0.2421
12206TIP3    H158033   3.252   3.257   4.112 -1.2403 -0.0592 -0.9991
12206TIP3    H258034   3.265   3.391   4.043  0.5635  0.8748  0.9999
12207TIP3   OH258035   1.891   5.185   3.560 -0.5542 -0.1086 -0.4175
12207TIP3    H158036   1.950   5.228   3.621  1.1942  0.1549 -2.1963
12207TIP3    H258037   1.804   5.211   3.589  0.1855  0.1669  1.7918
12208TIP3   OH258038   0.340   6.043  11.998  0.1859  0.0075 -0.7981
12208TIP3    H158039   0.373   6.133  11.995  0.3718  0.0284  0.8673
12208TIP3    H258040   0.312   6.025  11.908 -1.1064  2.1906 -0.9279
12209TIP3   OH258041   5.321   4.988   2.436 -0.1146  0.4620  0.7907
12209TIP3    H158042   5.232   5.011   2.464  0.2615  1.3669  1.2883
12209TIP3    H258043   5.369   4.973   2.517 -0.0451 -1.0106  0.4999
12210TIP3   OH258044   5.731   2.524  14.392 -0.7118 -0.1522  0.2315
12210TIP3    H158045   5.768   2.612  14.379  0.0813 -0.0428  2.7798
12210TIP3    H258046   5.716   2.492  14.303  1.9382  1.3354 -0.8832
12211TIP3   OH258047   5.660   2.191  12.411 -0.5851  0.1091 -0.0863
12211TIP3    H158048   5.706   2.186  12.495 -0.7391 -1.8043 -0.0721
12211TIP3    H258049   5.729   2.198  12.346 -0.1050 -3.1103 -0.0956
12212TIP3   OH258050   6.036   0.645  16.231 -0.0157  0.0331  0.0046
12212TIP3    H158051   5.975   0.716  16.250  0.6753  0.3540  1.0798
12212TIP3    H258052   5.989   0.565  16.257 -0.3507  0.1862 -0.1235
12213TIP3   OH258053   5.624   0.593  12.879 -0.0147  0.1294 -0.1752
12213TIP3    H158054   5.576   0.571  12.798 -0.8832  1.2349  0.0174
12213TIP3    H258055   5.694   0.652  12.850  1.3972 -1.5935 -0.4760
12214TIP3   OH258056   1.938   4.367  12.729 -0.1323 -0.4988  0.5539
12214TIP3    H158057   2.016   4.322  12.764  1.1067  1.8739  1.0199
12214TIP3    H258058   1.869   4.300  12.732  0.7015 -1.4150  4.5123
12215TIP3   OH258059   6.274   2.812   2.496 -0.1365  0.1826  0.6497
12215TIP3    H158060   6.263   2.745   2.428  0.7063 -0.5739  1.2335
12215TIP3    H258061   6.277   2.895   2.448  3.0922 -0.5014 -0.5992
12216TIP3   OH258062   2.272   4.900   2.526 -0.2310 -0.2341 -0.5696
12216TIP3    H158063   2.265   4.943   2.612  0.7337  3.5748 -2.1745
12216TIP3    H258064   2.182   4.894   2.495 -0.3946  0.8143 -0.3250
12217TIP3   OH258065   0.235   1.515  11.343  0.3377 -0.9569  0.0868
12217TIP3    H158066   0.201   1.427  11.326 -1.4284 -0.9425  2.8813
12217TIP3    H258067   0.316   1.500  11.393  0.2302 -1.0220  0.2451
12218TIP3   OH258068   3.599   3.652   4.882 -0.0795 -0.7284 -0.1678
12218TIP3    H158069   3.625   3.669   4.972 -1.1636 -0.1945  0.0512
12218TIP3    H258070   3.607   3.557   4.872  2.2717 -0.5882 -0.2363
12219TIP3   OH258071   4.169   0.897  13.359 -0.0744 -0.2106  0.1841
12219TIP3    H158072   4.244   0.900  13.419  0.2516  3.3130 -0.1898
12219TIP3    H258073   4.209   0.890  13.272 -0.0127  2.4086 -0.0727
12220TIP3   OH258074   2.719   6.621  13.977 -0.4710  0.8110 -0.2229
12220TIP3    H158075   2.800   6.620  13.926 -1.0433 -1.1003 -1.2159
12220TIP3    H258076   2.740   6.570  14.056 -0.8899 -0.4558 -0.8924
12221TIP3   OH258077   0.461   0.642   2.357  0.3369  0.3178  0.2705
12221TIP3    H158078   0.446   0.720   2.410  0.4914  0.1699  0.5372
12221TIP3    H258079   0.383   0.634   2.303 -0.1365  0.1003  0.9574
12222TIP3   OH258080   3.683   5.177   5.099 -0.1512 -0.2733  0.7230
12222TIP3    H158081   3.736   5.148   5.173  0.8811 -0.1989  0.0350
12222TIP3    H258082   3.621   5.239   5.137  2.1387  1.8989  1.1790
12223TIP3   OH258083   2.409   6.428   2.629 -0.8572 -0.4990 -0.5463
12223TIP3    H158084   2.392   6.355   2.689 -0.0663  0.6644  1.1592
12223TIP3    H258085   2.353   6.499   2.661  1.1041  0.8012  0.1657
12224TIP3   OH258086   3.156   1.346  16.486 -0.0674  0.4714 -0.2709
12224TIP3    H158087   3.139   1.399  16.564 -2.0093 -1.2646  0.6048
12224TIP3    H258088   3.246   1.315  16.497  0.2925  1.6805  0.3680
12225TIP3   OH258089   1.434   6.653  11.476 -0.0407 -0.2855 -0.1263
12225TIP3    H158090   1.444   6.639  11.381  0.3429  0.3299 -0.1815
12225TIP3    H258091   1.520   6.629  11.512  0.5751  1.6162 -0.2014
12226TIP3   OH258092   2.229   2.997   2.340  0.1843  0.6727 -0.2227
12226TIP3    H158093   2.278   3.040   2.269  1.7718  0.5835  0.7726
12226TIP3    H258094   2.164   2.943   2.295  0.7544  1.0834 -1.5958
12227TIP3   OH258095   6.653   1.396   4.647  0.1291 -0.1259 -0.2266
12227TIP3    H158096   6.628   1.487   4.635  2.3580  0.5567 -0.1419
12227TIP3    H258097   6.571   1.347   4.639 -1.1583  1.8888  0.0322
12228TIP3   OH258098   4.076   1.584  15.191 -0.0684 -0.4178 -0.6186
12228TIP3    H158099   4.105   1.595  15.101 -1.7978  1.7777 -1.0219
12228TIP3    H258100   3.983   1.563  15.184 -0.3914  0.4325  0.6251
12229TIP3   OH258101   5.777   5.062  10.996  1.0354 -0.3115 -0.8329
12229TIP3    H158102   5.854   5.077  11.051  1.3236 -0.5530 -1.1631
12229TIP3    H258103   5.771   5.140  10.941 -0.1479  0.6306  0.5668
12230TIP3   OH258104   5.867   0.835   1.063  0.2371  0.2545  0.3745
12230TIP3    H158105   5.803   0.862   1.130  0.1733 -0.6014  0.6715
12230TIP3    H258106   5.823   0.765   1.015  2.1005 -2.7694  2.7308
12231TIP3   OH258107   6.193   1.711  14.911 -0.4817  0.4225 -0.0611
12231TIP3    H158108   6.099   1.722  14.928 -0.9903 -0.0647 -2.2363
12231TIP3    H258109   6.211   1.770  14.838  0.2831 -1.3588 -1.3866
12232TIP3   OH258110   1.983   6.011   6.542 -0.4597  0.7203  0.1684
12232TIP3    H158111   1.998   5.961   6.623 -0.0317 -0.1900 -0.4601
12232TIP3    H258112   1.901   6.057   6.558 -2.3032 -2.1842 -0.1341
12233TIP3   OH258113   5.643   5.871  17.144 -0.7759 -0.4134 -0.1155
12233TIP3    H158114   5.702   5.938  17.108  1.3093 -0.6212  2.5903
12233TIP3    H258115   5.591   5.918  17.210  0.2488 -1.2595  1.3442
12234TIP3   OH258116   5.357   5.229   5.076  0.3627  0.5789 -0.1711
12234TIP3    H158117   5.352   5.134   5.069 -1.0019  0.7078 -1.3289
12234TIP3    H258118   5.411   5.245   5.154  0.6952 -1.1240 -0.0227
12235TIP3   OH258119   6.390   6.723   2.183 -0.0733  0.1313 -0.5103
12235TIP3    H158120   6.353   6.682   2.106  1.3498  0.4252 -1.3960
12235TIP3    H258121   6.474   6.760   2.153  1.0310 -0.6637  1.3901
12236TIP3   OH258122   2.894   5.496  17.323  0.1638  0.2190  0.4123
12236TIP3    H158123   2.966   5.436  17.342  1.4805  1.8002  0.6511
12236TIP3    H258124   2.851   5.458  17.247  2.5493  0.2624 -1.0558
12237TIP3   OH258125   4.985   0.555   5.250 -0.3775  0.5028 -0.5656
12237TIP3    H158126   4.991   0.528   5.342 -1.4692 -1.2933 -0.9770
12237TIP3    H258127   5.071   0.591   5.230  0.3729 -0.4669  0.7466
12238TIP3   OH258128   0.211   2.028  16.866 -0.4232 -0.5127 -0.1287
12238TIP3    H158129   0.294   2.038  16.913 -0.3649  1.0960 -0.5121
12238TIP3    H258130   0.144   2.028  16.935 -0.2730  0.9218  0.0454
12239TIP3   OH258131   6.257   4.090   1.103 -0.0140  0.0574 -0.1236
12239TIP3    H158132   6.203   4.036   1.045 -1.0346  0.9599 -0.0536
12239TIP3    H258133   6.212   4.174   1.106  0.8465  0.5107  0.7849
12240TIP3   OH258134   4.185   2.241   5.565 -0.6842  0.1834  0.0881
12240TIP3    H158135   4.270   2.199   5.577  0.2552  2.0971  0.5778
12240TIP3    H258136   4.121   2.174   5.588  0.7187 -1.0751  0.4358
12241TIP3   OH258137   6.637   2.168   3.863  0.5798 -0.5526 -0.0006
12241TIP3    H158138   6.562   2.108   3.857 -0.9665  1.3582 -0.7831
12241TIP3    H258139   6.653   2.177   3.957 -1.0120 -0.0362  0.2521
12242TIP3   OH258140   3.177   6.340  13.991  0.3283  0.3797 -0.0154
12242TIP3    H158141   3.266   6.363  13.964 -0.1866  1.1829 -1.0742
12242TIP3    H258142   3.169   6.378  14.079  1.0805  0.1427  0.1659
12243TIP3   OH258143   4.281   1.420  13.965  0.0354 -0.2763 -0.2654
12243TIP3    H158144   4.240   1.371  13.893  0.8025 -0.6052 -0.4857
12243TIP3    H258145   4.275   1.511  13.937 -0.4900 -0.3216 -0.3199
12244TIP3   OH258146   6.534   5.572  15.596 -0.9174  0.1285 -1.3208
12244TIP3    H158147   6.449   5.561  15.638 -0.0782 -0.9774  0.1940
12244TIP3    H258148   6.522   5.540  15.506 -2.1834  0.3826 -1.2504
12245TIP3   OH258149   4.934   6.408  14.546  0.2283  0.1147  0.7809
12245TIP3    H158150   4.947   6.313  14.543 -0.7886 -0.0298  0.6771
12245TIP3    H258151   4.877   6.422  14.621 -1.2267  0.4347 -0.3577
12246TIP3   OH258152   4.268   5.195  15.692 -0.0420  0.1209 -0.2636
12246TIP3    H158153   4.255   5.177  15.599 -2.3979 -0.0301  0.0237
12246TIP3    H258154   4.303   5.114  15.728 -2.7502 -1.2377 -0.4234
12247TIP3   OH258155   3.698   6.531  11.914 -0.1411 -0.5013 -0.3968
12247TIP3    H158156   3.696   6.550  12.008  0.1675  0.9840 -0.6677
12247TIP3    H258157   3.708   6.436  11.909  0.8758 -0.5101  1.0933
12248TIP3   OH258158   6.247   4.076  11.507 -0.3306 -0.1392  0.0598
12248TIP3    H158159   6.334   4.112  11.523 -0.2815 -0.0386 -0.4178
12248TIP3    H258160   6.253   3.985  11.536  0.0965 -0.2850 -0.4714
12249TIP3   OH258161   1.766   6.436   0.719  0.7193 -0.0971 -0.4580
12249TIP3    H158162   1.727   6.382   0.788  0.0385  1.0423  0.0625
12249TIP3    H258163   1.817   6.502   0.765  0.8080  0.2643 -1.0615
12250TIP3   OH258164   1.368   3.876  16.966 -0.2004  0.1185 -0.7828
12250TIP3    H158165   1.458   3.860  16.938 -0.5728  0.4993 -2.2900
12250TIP3    H258166   1.360   3.972  16.965 -0.1645  0.1655  0.9287
12251TIP3   OH258167   0.375   2.961   3.640  0.6459  0.1030 -0.4924
12251TIP3    H158168   0.354   2.893   3.576 -1.0469 -3.3704  3.3120
12251TIP3    H258169   0.462   2.936   3.674  1.5311  1.8927 -1.3016
12252TIP3   OH258170   3.091   6.152   2.744  0.0577  0.1776 -0.5595
12252TIP3    H158171   3.086   6.080   2.807 -0.6556  0.2908 -0.4724
12252TIP3    H258172   3.152   6.122   2.677 -0.6833 -0.7579 -0.8346
12253TIP3   OH258173   3.726   5.485   3.907  0.0662 -0.0444 -0.2822
12253TIP3    H158174   3.790   5.431   3.952  0.9129  2.3764  1.6354
12253TIP3    H258175   3.644   5.472   3.955  0.6044  1.3427  1.1052
12254TIP3   OH258176   4.392   4.101   3.237  0.3251 -0.4703  1.1323
12254TIP3    H158177   4.411   4.045   3.313  0.6520 -0.3492  1.1378
12254TIP3    H258178   4.434   4.057   3.163 -2.3174 -2.1161  0.4766
12255TIP3   OH258179   0.277   5.379   2.930 -0.4894  0.4038 -0.1020
12255TIP3    H158180   0.308   5.295   2.897 -2.1822  0.2871 -1.5412
12255TIP3    H258181   0.341   5.443   2.898  1.4464 -0.3902  1.9678
12256TIP3   OH258182   4.726   0.684   2.900 -0.4389  0.3318 -0.2857
12256TIP3    H158183   4.712   0.593   2.875 -2.1561  0.4272  0.1906
12256TIP3    H258184   4.646   0.709   2.947  0.9135  1.4125  1.5885
12257TIP3   OH258185   0.745   6.146   1.226 -0.3915  0.1778 -0.1455
12257TIP3    H158186   0.677   6.084   1.198 -0.5931 -0.2503  1.2031
12257TIP3    H258187   0.797   6.162   1.147 -2.5242  1.1710 -1.4491
12258TIP3   OH258188   1.789   6.450   2.642  0.3181  0.1290  0.3557
12258TIP3    H158189   1.749   6.400   2.713 -0.5400  1.2175  0.6801
12258TIP3    H258190   1.775   6.542   2.668  2.0437  0.5452 -0.0895
12259TIP3   OH258191   4.646   6.315   4.731  0.2793  0.3423 -0.1259
12259TIP3    H158192   4.718   6.366   4.696  0.1721  0.0427 -0.8050
12259TIP3    H258193   4.569   6.343   4.680  0.4376 -1.3405 -1.3867
12260TIP3   OH258194   2.229   5.501  13.943 -0.4698 -0.3995  0.5451
12260TIP3    H158195   2.240   5.406  13.944 -0.8345 -0.4473  1.9649
12260TIP3    H258196   2.311   5.536  13.978  0.2518 -0.0817 -1.3279
12261TIP3   OH258197   5.250   2.503  16.159  0.0371 -0.1812  0.8185
12261TIP3    H158198   5.155   2.513  16.152  0.2286  0.7992 -1.2195
12261TIP3    H258199   5.262   2.413  16.190 -1.5604 -0.8831 -0.4281
12262TIP3   OH258200   3.929   6.141  17.378 -0.3933 -0.2939  0.4211
12262TIP3    H158201   3.915   6.079  17.306 -0.3264  1.3529 -1.0696
12262TIP3    H258202   3.915   6.089  17.457 -1.1737 -2.0046 -0.7802
12263TIP3   OH258203   2.172   5.009  14.290  0.0711 -0.2139  0.1834
12263TIP3    H158204   2.200   5.062  14.215  1.1196 -2.7257 -1.3694
12263TIP3    H258205   2.249   5.005  14.347  0.1731 -0.4308  0.0355
12264TIP3   OH258206   5.170   6.531   0.452  0.1054  0.4521  0.2087
12264TIP3    H158207   5.138   6.572   0.532  2.0079  1.9406  0.2727
12264TIP3    H258208   5.174   6.602   0.388  2.3202  0.1513 -0.0499
12265TIP3   OH258209   1.571   0.663   4.866  0.1049  0.0563 -0.2935
12265TIP3    H158210   1.578   0.759   4.866 -2.0651  0.3679  2.4541
12265TIP3    H258211   1.546   0.642   4.956  0.2834 -3.1008 -0.8937
12266TIP3   OH258212   1.882   4.992  15.005 -0.2577  0.4620  0.0248
12266TIP3    H158213   1.931   4.954  14.932 -0.6886  0.4400 -0.2530
12266TIP3    H258214   1.831   4.919  15.041 -1.7624  0.9372 -1.0571
12267TIP3   OH258215   0.325   2.185  10.690 -0.3351  0.3959 -0.1161
12267TIP3    H158216   0.299   2.136  10.612  2.0539  0.7748 -1.2303
12267TIP3    H258217   0.299   2.129  10.763 -0.5847 -1.0364 -1.2638
12268TIP3   OH258218   0.159   5.333   3.182 -0.8061 -0.7916 -1.2300
12268TIP3    H158219   0.203   5.356   3.100  1.8946 -1.5917 -0.1300
12268TIP3    H258220   0.173   5.239   3.191 -0.4493 -0.6165  0.4292
12269TIP3   OH258221   5.333   3.221  15.728  0.1651  0.2689  0.2358
12269TIP3    H158222   5.249   3.197  15.766 -0.8152  0.7989 -1.4783
12269TIP3    H258223   5.367   3.290  15.784 -1.4656  1.3780 -0.0831
12270TIP3   OH258224   3.383   1.861   3.646 -0.4092  0.2396  0.4247
12270TIP3    H158225   3.307   1.919   3.640 -0.8319 -0.4631 -3.1547
12270TIP3    H258226   3.349   1.774   3.628  0.7546 -0.7116  2.4196
12271TIP3   OH258227   3.134   6.454   2.490 -0.6769  0.1677  0.2505
12271TIP3    H158228   3.102   6.445   2.400 -0.7777  2.5883 -0.0224
12271TIP3    H258229   3.206   6.518   2.484  0.1568 -0.5622  1.7313
12272TIP3   OH258230   2.885   6.103   0.802  0.4083 -0.0002 -0.0024
12272TIP3    H158231   2.929   6.094   0.887  1.9858 -1.3532 -0.9062
12272TIP3    H258232   2.826   6.177   0.813 -0.2940 -0.8451  2.6283
12273TIP3   OH258233   5.334   6.498  12.732  0.4788 -0.0193  0.7860
12273TIP3    H158234   5.427   6.508  12.747  1.3241 -0.4716 -3.0063
12273TIP3    H258235   5.321   6.404  12.718 -0.2624  0.1699  0.0656
12274TIP3   OH258236   0.856   1.211  14.618  1.0782  1.1498 -0.3925
12274TIP3    H158237   0.863   1.121  14.648 -0.3756  1.0659 -0.2456
12274TIP3    H258238   0.763   1.231  14.623  0.7938  1.4425 -3.9861
12275TIP3   OH258239   4.151   1.096   4.488  0.3838  0.2016  0.2052
12275TIP3    H158240   4.072   1.113   4.436 -0.1143 -1.0962  0.5074
12275TIP3    H258241   4.161   1.174   4.542 -0.6399  0.4267  0.0938
12276TIP3   OH258242   0.256   1.998  14.890  0.0745 -0.4207 -0.8725
12276TIP3    H158243   0.259   2.093  14.880 -1.1193 -0.0149  1.7599
12276TIP3    H258244   0.345   1.974  14.915  0.1362  0.1698 -0.5005
12277TIP3   OH258245   1.772   1.536   1.289 -0.9693  0.2186  0.4114
12277TIP3    H158246   1.721   1.551   1.209  1.6238  3.1652 -0.8986
12277TIP3    H258247   1.785   1.441   1.292 -3.3800 -0.2461 -1.1334
12278TIP3   OH258248   2.293   5.352  15.248  0.3145  0.4034 -0.4256
12278TIP3    H158249   2.326   5.441  15.253 -0.2077  0.6532 -1.1563
12278TIP3    H258250   2.205   5.361  15.210  0.0652 -0.3749 -0.0642
12279TIP3   OH258251   0.228   0.501  16.591 -0.4732  0.6373 -0.1683
12279TIP3    H158252   0.312   0.520  16.551 -0.2287 -1.1570 -0.5980
12279TIP3    H258253   0.163   0.536  16.530 -0.0991 -1.5242 -1.9148
12280TIP3   OH258254   5.303   2.393   4.467  0.0732  0.0377  0.1464
12280TIP3    H158255   5.345   2.439   4.540  1.3039  0.0991 -0.5680
12280TIP3    H258256   5.368   2.328   4.439 -0.4642 -0.1347 -0.7459
12281TIP3   OH258257   0.454   4.459  11.961 -0.6977 -0.2729  0.0673
12281TIP3    H158258   0.432   4.442  12.053 -0.7388  0.4361  0.1956
12281TIP3    H258259   0.382   4.420  11.912  0.0534 -1.9673  0.2416
12282TIP3   OH258260   5.729   1.494  14.863 -0.3965 -0.0432 -0.0072
12282TIP3    H158261   5.645   1.532  14.887  0.5363  0.7116  2.3716
12282TIP3    H258262   5.717   1.400  14.874 -1.0065  0.0271 -0.0204
12283TIP3   OH258263   0.576   0.982   1.765 -0.5917 -0.5975 -0.0054
12283TIP3    H158264   0.557   1.071   1.795 -0.8675 -0.7508  0.2803
12283TIP3    H258265   0.658   0.990   1.717  0.6683 -0.5870  2.0237
12284TIP3   OH258266   1.709   0.965   0.355 -0.8364 -0.4657 -0.1431
12284TIP3    H158267   1.793   1.010   0.340  0.1732 -2.0475  0.4584
12284TIP3    H258268   1.699   0.909   0.278 -0.9581 -0.8387  0.1438
12285TIP3   OH258269   4.492   1.081  16.430 -0.4936  0.6359 -0.0072
12285TIP3    H158270   4.447   1.058  16.511 -1.5472  1.8669 -0.2113
12285TIP3    H258271   4.561   1.141  16.458  1.3603 -1.4902  0.3478
12286TIP3   OH258272   3.533   4.211  15.003 -0.8243 -0.2475 -0.0385
12286TIP3    H158273   3.440   4.232  15.010 -0.9316 -1.2220  2.9315
12286TIP3    H258274   3.535   4.132  14.948 -1.7954 -0.4018  0.1229
12287TIP3   OH258275   0.070   6.061   0.278 -0.1685  0.6088  0.4705
12287TIP3    H158276   0.025   6.039   0.196 -0.1991  0.7840  0.4399
12287TIP3    H258277   0.081   6.156   0.274 -1.0458  0.7540  1.1119
12288TIP3   OH258278   4.344   1.280  17.379  0.4294 -0.5001 -0.0298
12288TIP3    H158279   4.350   1.257  17.472 -1.2112  1.3455  0.5942
12288TIP3    H258280   4.421   1.335  17.363 -0.3606  0.8991  0.8183
12289TIP3   OH258281   1.279   6.521  11.900 -0.0994 -0.0284 -0.5674
12289TIP3    H158282   1.299   6.491  11.811 -0.4017  0.4925 -0.8158
12289TIP3    H258283   1.232   6.448  11.940  0.7178 -0.5717 -0.5700
12290TIP3   OH258284   4.542   4.380   1.036  0.1004  0.2627 -0.1225
12290TIP3    H158285   4.577   4.419   1.117  2.0260 -1.2877 -0.1290
12290TIP3    H258286   4.500   4.453   0.990  1.8495  1.9068  0.7521
12291TIP3   OH258287   5.065   3.488  16.002 -0.0606  0.9572  0.6494
12291TIP3    H158288   5.072   3.497  16.097 -0.8838  1.1008  0.7085
12291TIP3    H258289   5.086   3.396  15.985  1.1169  1.1800  0.8490
12292TIP3   OH258290   5.113   6.482  11.574 -0.3928  0.3374  0.0142
12292TIP3    H158291   5.108   6.418  11.503 -2.5764  1.2971 -0.7910
12292TIP3    H258292   5.159   6.557  11.535 -0.1789  0.2630  0.1220
12293TIP3   OH258293   1.643   3.469   6.623 -0.3315  0.1587 -0.4324
12293TIP3    H158294   1.564   3.475   6.677 -0.0201 -0.0691  0.0485
12293TIP3    H258295   1.700   3.408   6.670  0.7782  1.4961  0.0259
12294TIP3   OH258296   2.923   0.244   2.569 -0.8064 -0.0014  0.1641
12294TIP3    H158297   2.878   0.313   2.618 -0.1420 -0.0921  0.9276
12294TIP3    H258298   2.874   0.164   2.589 -0.6202 -0.0141  0.5758
12295TIP3   OH258299   5.566   0.880  16.170  0.4377 -0.0718  0.6131
12295TIP3    H158300   5.487   0.845  16.210  0.1774  0.1886  0.3348
12295TIP3    H258301   5.585   0.821  16.096 -0.0666  0.4325  0.0729
12296TIP3   OH258302   2.553   0.098  13.514  0.1878  0.0801 -0.0950
12296TIP3    H158303   2.635   0.083  13.467  1.3259  0.8605  1.5622
12296TIP3    H258304   2.573   0.078  13.605 -1.9966 -1.5629  0.1289
12297TIP3   OH258305   1.125   2.128  14.843 -0.3538 -0.4593 -0.3181
12297TIP3    H158306   1.149   2.219  14.827  2.1305 -0.9359  0.1940
12297TIP3    H258307   1.054   2.110  14.781 -1.1831  1.9053 -0.1286
12298TIP3   OH258308   3.309   6.573   2.300 -0.0695 -0.2582 -0.0024
12298TIP3    H158309   3.347   6.497   2.256  0.8905  2.2881 -4.0851
12298TIP3    H258310   3.232   6.595   2.247 -1.0164  0.9798  1.7974
12299TIP3   OH258311   1.862   6.277   3.446  0.7418 -0.0973  0.2488
12299TIP3    H158312   1.907   6.352   3.485  0.1134  0.6753 -0.4874
12299TIP3    H258313   1.894   6.275   3.356 -0.9490  0.7051 -0.4080
12300TIP3   OH258314   0.605   5.683  15.499 -0.1008 -0.4312  0.7413
12300TIP3    H158315   0.579   5.744  15.430 -1.8514  0.1867  1.8681
12300TIP3    H258316   0.530   5.681  15.558  1.5392 -0.4553  2.9609
12301TIP3   OH258317   4.187   6.539  11.312  0.0650  0.1037 -0.1724
12301TIP3    H158318   4.132   6.472  11.354  0.6820 -0.3160 -0.0149
12301TIP3    H258319   4.187   6.515  11.220  0.8361 -0.5299 -0.0204
12302TIP3   OH258320   2.456   3.277  16.522 -0.6846  0.1001 -0.4438
12302TIP3    H158321   2.499   3.334  16.459  2.0468 -2.0478 -0.7189
12302TIP3    H258322   2.481   3.313  16.608  0.1427 -0.0616 -0.6122
12303TIP3   OH258323   4.341   0.662   4.974  0.0519 -0.4873  0.4123
12303TIP3    H158324   4.427   0.627   4.998  0.4664  0.1883 -0.0609
12303TIP3    H258325   4.359   0.750   4.941 -0.7782 -0.4759 -0.0409
12304TIP3   OH258326   2.283   5.340  16.763 -0.6707  0.4902 -0.2266
12304TIP3    H158327   2.237   5.380  16.689 -1.1755  0.0268 -0.1679
12304TIP3    H258328   2.316   5.258  16.728 -0.9270  0.2605  0.0686
12305TIP3   OH258329   5.869   2.549   0.328  0.3445  0.2518 -0.1088
12305TIP3    H158330   5.832   2.586   0.248  1.2213 -0.4728 -0.8711
12305TIP3    H258331   5.925   2.618   0.363  0.2918  0.4200 -0.3528
12306TIP3   OH258332   4.211   5.158  12.993  0.1471  0.2184  0.1492
12306TIP3    H158333   4.241   5.246  12.971  0.1593 -0.1361 -1.3497
12306TIP3    H258334   4.118   5.158  12.971  0.0437 -0.0235  0.5623
12307TIP3   OH258335   4.947   5.743  16.831 -0.0710 -0.0475 -0.0646
12307TIP3    H158336   5.040   5.757  16.817  0.0643 -1.2050 -0.3846
12307TIP3    H258337   4.921   5.815  16.890  1.0376  0.2003  0.1429
12308TIP3   OH258338   2.327   1.719  14.678  0.4519  0.1249  0.4929
12308TIP3    H158339   2.246   1.676  14.705 -0.3699  1.6880  0.6197
12308TIP3    H258340   2.384   1.647  14.650 -1.2110 -0.9605 -0.2712
12309TIP3   OH258341   4.985   2.968   3.352  0.3581  0.3072 -0.7517
12309TIP3    H158342   4.944   2.898   3.303 -0.2127  0.4559 -0.4948
12309TIP3    H258343   4.983   3.043   3.293 -0.0531  0.4054 -0.6139
12310TIP3   OH258344   4.151   1.301   4.684 -0.1753 -0.2632 -0.1661
12310TIP3    H158345   4.244   1.307   4.707  0.1007 -2.0891 -0.6527
12310TIP3    H258346   4.106   1.326   4.764  0.6490  2.7579 -0.5077
12311TIP3   OH258347   5.834   5.903   3.613 -0.5758 -0.3859 -0.3616
12311TIP3    H158348   5.927   5.917   3.596 -0.6190  1.6585  0.7988
12311TIP3    H258349   5.829   5.816   3.653  0.9809 -0.0539  0.6149
12312TIP3   OH258350   1.920   6.234   1.997  0.4006 -0.1955  0.3001
12312TIP3    H158351   1.924   6.198   2.085  1.0102  0.3763  0.5132
12312TIP3    H258352   1.995   6.293   1.991 -0.2787  0.6547 -0.2044
12313TIP3   OH258353   1.812   1.135   3.058 -0.5246 -0.7918  0.1304
12313TIP3    H158354   1.858   1.219   3.065  0.3602 -1.2234 -0.3191
12313TIP3    H258355   1.829   1.092   3.142  0.8174 -1.3849 -0.4086
12314TIP3   OH258356   5.569   2.646  13.009  0.0472  0.4977 -0.2321
12314TIP3    H158357   5.558   2.583  13.080  1.1332  0.2258 -0.2907
12314TIP3    H258358   5.579   2.592  12.930  2.1427  0.6732 -0.1303
12315TIP3   OH258359   0.288   3.585  16.619  0.2653  0.0943 -0.4658
12315TIP3    H158360   0.324   3.625  16.540  1.0019  1.3724  0.4700
12315TIP3    H258361   0.255   3.500  16.590  0.7152  0.4307 -2.0921
12316TIP3   OH258362   4.531   4.437  11.266  0.7276  0.1725  0.3235
12316TIP3    H158363   4.464   4.396  11.321  0.0520  0.0320 -0.5766
12316TIP3    H258364   4.499   4.424  11.176  0.9190  1.9401 -0.0238
12317TIP3   OH258365   0.030   3.727   6.194  0.2385 -0.1061 -0.0696
12317TIP3    H158366  -0.017   3.753   6.273  1.6104 -0.0953  0.7743
12317TIP3    H258367   0.023   3.632   6.192  0.0079 -0.0887 -0.0534
12318TIP3   OH258368   1.937   4.981   3.875  0.0390  0.0894 -0.3638
12318TIP3    H158369   2.003   4.986   3.943 -1.5702  0.5887  1.2452
12318TIP3    H258370   1.964   5.048   3.811  1.3331 -0.0805 -0.0248
12319TIP3   OH258371   5.417   5.354   5.755  0.3069 -0.0441 -0.7555
12319TIP3    H158372   5.424   5.376   5.847  3.6406  1.2650 -1.1902
12319TIP3    H258373   5.444   5.262   5.750 -0.8257 -0.4123 -0.3654
12320TIP3   OH258374   1.411   5.501  16.001  0.0781 -0.7699 -0.1128
12320TIP3    H158375   1.457   5.455  15.931 -0.3595 -1.1570 -0.1436
12320TIP3    H258376   1.479   5.520  16.066  0.5765 -0.0247 -0.8255
12321TIP3   OH258377   3.607   4.491  13.706  0.0509 -0.2992 -0.1621
12321TIP3    H158378   3.625   4.408  13.749 -0.3807 -0.5604 -0.4812
12321TIP3    H258379   3.511   4.497  13.705  0.0111  1.6471  2.6642
12322TIP3   OH258380   4.817   0.966   2.879 -0.0867  0.0674  0.4179
12322TIP3    H158381   4.731   0.999   2.852 -0.2592  0.7489  1.7179
12322TIP3    H258382   4.809   0.870   2.873 -1.0018  0.1191  0.6846
12323TIP3   OH258383   2.103   3.758  14.811 -0.1362 -0.4843 -0.1112
12323TIP3    H158384   2.151   3.700  14.753 -0.5425 -0.9488  0.0054
12323TIP3    H258385   2.024   3.782  14.761 -0.3909 -0.7313  0.1655
12324TIP3   OH258386   0.531   1.515  16.986 -0.1396  0.2325 -0.3642
12324TIP3    H158387   0.515   1.586  17.048  0.4131  1.3100 -1.4085
12324TIP3    H258388   0.465   1.527  16.918 -0.6340 -0.8330 -0.0859
12325TIP3   OH258389   6.655   4.874   0.165 -0.0246 -0.1748 -0.5168
12325TIP3    H158390   6.708   4.898   0.089  0.9101  2.6628  0.8848
12325TIP3    H258391   6.688   4.788   0.191  3.2827  0.9900 -0.3407
12326TIP3   OH258392   3.034   4.498  16.023 -0.0147  0.1177  0.1582
12326TIP3    H158393   3.017   4.535  15.936 -1.2244 -0.4353  0.1335
12326TIP3    H258394   3.064   4.409  16.006 -0.3744 -0.0346  0.2909
12327TIP3   OH258395   5.603   6.273   2.007  0.1238  0.0907  0.1529
12327TIP3    H158396   5.642   6.194   1.971 -0.5767  0.0441 -0.5269
12327TIP3    H258397   5.619   6.267   2.102 -0.8088 -1.3682  0.2408
12328TIP3   OH258398   4.055   6.098  14.494  0.3338  0.6313  0.0154
12328TIP3    H158399   4.084   6.098  14.403  0.0983  0.7947 -0.0607
12328TIP3    H258400   4.079   6.185  14.527 -0.1260  0.7942 -0.0686
12329TIP3   OH258401   1.811   0.654  12.714 -0.2956  0.1734  0.4204
12329TIP3    H158402   1.785   0.745  12.704 -0.3680 -0.0222 -1.7941
12329TIP3    H258403   1.755   0.620  12.784 -1.4958  1.3962  0.0854
12330TIP3   OH258404   5.145   6.027  12.867  0.1535 -0.8236  0.7909
12330TIP3    H158405   5.090   5.991  12.937  0.9621  1.2732  2.6176
12330TIP3    H258406   5.183   6.107  12.904 -0.4030  1.1644 -2.5103
12331TIP3   OH258407   0.855   6.427  14.225 -0.7012  0.6097 -0.5572
12331TIP3    H158408   0.820   6.515  14.237 -0.5500  0.3593  2.7863
12331TIP3    H258409   0.908   6.412  14.304 -0.4373 -2.3358 -1.1869
12332TIP3   OH258410   2.909   0.687  14.360 -0.1780 -0.5832  0.1601
12332TIP3    H158411   2.971   0.757  14.382 -0.0267 -0.6133 -0.1677
12332TIP3    H258412   2.901   0.636  14.441  0.4890 -0.7817  0.1079
12333TIP3   OH258413   1.285   2.586   0.426  0.0002  0.0829 -0.3221
12333TIP3    H158414   1.377   2.578   0.453  0.1827  0.6735 -0.7516
12333TIP3    H258415   1.274   2.679   0.406 -0.3792 -0.1668 -1.3629
12334TIP3   OH258416   5.066   6.008  14.936 -0.1192 -0.1118 -0.5517
12334TIP3    H158417   5.150   5.963  14.927 -0.9355 -1.5046 -1.7829
12334TIP3    H258418   5.014   5.950  14.992 -0.3517  0.6081 -0.0129
12335TIP3   OH258419   1.999   1.349   3.834  0.5683 -0.1520 -0.4257
12335TIP3    H158420   1.913   1.308   3.824  1.3134 -1.7048 -0.7312
12335TIP3    H258421   2.013   1.396   3.752 -0.1474  0.4697 -0.2079
12336TIP3   OH258422   5.507   3.319   4.835  0.2660  0.4443 -0.1903
12336TIP3    H158423   5.530   3.316   4.742 -0.9475 -0.2066 -0.4863
12336TIP3    H258424   5.512   3.228   4.864  0.6078  0.6384  0.3928
12337TIP3   OH258425   4.107   0.175   1.420  0.2332  0.3667 -0.1622
12337TIP3    H158426   4.142   0.238   1.483  1.8362 -0.3598 -0.2956
12337TIP3    H258427   4.175   0.109   1.411 -1.5555 -1.6426  0.2947
12338TIP3   OH258428   0.942   0.555   5.393  0.2559  0.6157  0.4595
12338TIP3    H158429   0.853   0.578   5.364 -0.3915  0.6715  2.2961
12338TIP3    H258430   0.934   0.464   5.423  1.0602  0.3168 -0.2239
12339TIP3   OH258431   3.668   1.702   0.968  0.2105 -0.8334 -0.2223
12339TIP3    H158432   3.721   1.749   0.903  0.5859 -1.7528 -0.6000
12339TIP3    H258433   3.665   1.761   1.043 -1.7608  1.1005 -1.6808
12340TIP3   OH258434   4.930   4.129   2.241 -0.0034  0.1254 -0.4377
12340TIP3    H158435   4.932   4.211   2.289 -0.0789  0.0875 -0.3699
12340TIP3    H258436   4.957   4.152   2.152 -0.1703  0.2505 -0.4575
12341TIP3   OH258437   3.395   5.398   4.332 -0.5754  0.0244 -0.6030
12341TIP3    H158438   3.394   5.304   4.351 -0.1970  0.3057  0.9362
12341TIP3    H258439   3.447   5.437   4.403 -2.5880  1.6570  0.0693
12342TIP3   OH258440   1.867   0.575  11.622  0.1727 -0.3525 -0.2804
12342TIP3    H158441   1.901   0.567  11.533  1.8883  2.3630  0.0029
12342TIP3    H258442   1.934   0.534  11.677 -0.0589 -0.5189 -0.1198
12343TIP3   OH258443   6.107   1.329   1.489  0.0431 -0.2264 -1.0230
12343TIP3    H158444   6.058   1.370   1.417 -0.2410 -0.9802 -1.2630
12343TIP3    H258445   6.044   1.325   1.561 -0.0644 -0.6430 -1.1399
12344TIP3   OH258446   6.008   6.500  10.945  0.0775 -0.1537  0.3520
12344TIP3    H158447   6.060   6.533  10.872 -0.4287  0.7437  0.3875
12344TIP3    H258448   5.936   6.452  10.904 -0.2629  0.4356  0.2513
12345TIP3   OH258449   0.100   6.355  11.760  0.2490 -0.7048  0.2251
12345TIP3    H158450   0.075   6.349  11.852 -0.6799 -0.3082  0.0054
12345TIP3    H258451   0.156   6.433  11.755 -0.0006 -0.5145  0.3889
12346TIP3   OH258452   5.364   3.148  14.123 -0.6311  0.0722 -0.0552
12346TIP3    H158453   5.334   3.107  14.204 -2.1699 -0.8641 -1.0368
12346TIP3    H258454   5.330   3.237  14.126  1.2728  0.8299  1.3107
12347TIP3   OH258455   3.454   4.807   2.779  0.1924  0.0026  0.0394
12347TIP3    H158456   3.381   4.865   2.757  1.1923  2.4843  2.6668
12347TIP3    H258457   3.508   4.806   2.700 -1.5773 -0.2047 -1.2312
12348TIP3   OH258458   1.142   2.543   2.959 -0.3900 -0.7558  0.6375
12348TIP3    H158459   1.197   2.565   2.885 -0.4111  1.1442  1.1467
12348TIP3    H258460   1.077   2.482   2.924 -1.5520  1.4951 -1.3865
12349TIP3   OH258461   3.661   3.776   0.546 -0.6204 -0.2953 -0.0910
12349TIP3    H158462   3.610   3.784   0.627 -0.0847 -0.8323  0.3137
12349TIP3    H258463   3.665   3.682   0.530  1.3064 -0.3906  0.6072
12350TIP3   OH258464   0.143   1.356  12.382 -0.9688  0.3200 -0.0548
12350TIP3    H158465   0.231   1.387  12.402 -1.1445  0.7616  0.0395
12350TIP3    H258466   0.123   1.294  12.453  0.4602 -2.1989 -1.7046
12351TIP3   OH258467   2.256   0.774  17.385  0.5145 -0.1506  0.2277
12351TIP3    H158468   2.284   0.699  17.334  0.9167 -0.0026  0.2285
12351TIP3    H258469   2.223   0.736  17.467  0.1856 -0.3616  0.0005
12352TIP3   OH258470   4.768   2.476   5.585 -0.1350  0.6663 -0.2520
12352TIP3    H158471   4.681   2.480   5.544  0.1448  0.5258 -0.8613
12352TIP3    H258472   4.776   2.386   5.616  0.8541 -0.1137 -2.5678
12353TIP3   OH258473   3.843   0.229  11.590 -0.7787  0.1181  0.7630
12353TIP3    H158474   3.850   0.186  11.675  3.6134 -0.5668  0.2973
12353TIP3    H258475   3.857   0.322  11.609  0.0000 -0.0084  0.8301
12354TIP3   OH258476   4.087   0.266  12.950 -0.1490  0.0697  0.2970
12354TIP3    H158477   4.097   0.172  12.963  0.6642  0.1688  0.4421
12354TIP3    H258478   4.164   0.305  12.993  0.1528  0.7064 -0.7661
12355TIP3   OH258479   4.631   5.330   5.499  0.0538 -0.2386 -0.0960
12355TIP3    H158480   4.619   5.411   5.549  0.2366 -0.3538  0.1342
12355TIP3    H258481   4.689   5.356   5.427 -3.2078  0.8744 -2.5412
12356TIP3   OH258482   5.179   5.701  17.119  0.4992 -1.1236  0.1021
12356TIP3    H158483   5.121   5.729  17.190  0.5274 -2.5448  0.7229
12356TIP3    H258484   5.234   5.777  17.101 -0.2431 -0.3945  0.8602
12357TIP3   OH258485   5.635   6.274   2.273  0.2318 -0.4945  0.0473
12357TIP3    H158486   5.605   6.355   2.316 -0.3600 -0.8692  0.3528
12357TIP3    H258487   5.564   6.212   2.287  0.4722 -0.9303 -0.6079
12358TIP3   OH258488   0.413   2.224   1.876 -0.4207  0.2105 -0.0443
12358TIP3    H158489   0.442   2.278   1.803 -0.8745  0.8279  0.2171
12358TIP3    H258490   0.361   2.155   1.836 -1.6215  1.1898 -0.2478
12359TIP3   OH258491   5.356   0.515  13.302  0.3905 -0.3028  0.5556
12359TIP3    H158492   5.273   0.551  13.271 -0.0790 -0.1909  1.8681
12359TIP3    H258493   5.422   0.579  13.275  0.0005 -0.2039 -0.1657
12360TIP3   OH258494   6.503   5.325   0.402 -0.7072  0.1075  0.0169
12360TIP3    H158495   6.482   5.406   0.356 -0.6160  0.0385 -0.1505
12360TIP3    H258496   6.454   5.257   0.354 -0.5323  0.0219 -0.0416
12361TIP3   OH258497   3.381   2.434  11.288  0.6749  0.3973  0.0537
12361TIP3    H158498   3.394   2.468  11.376 -0.9627 -1.0825  0.9199
12361TIP3    H258499   3.468   2.434  11.249  1.4327  1.0730  1.6610
12362TIP3   OH258500   6.190   5.861  13.056  0.1946  0.3024  0.3875
12362TIP3    H158501   6.233   5.843  13.140 -0.0115 -0.7929  0.2697
12362TIP3    H258502   6.191   5.777  13.010  0.3276  0.8919 -0.7261
12363TIP3   OH258503   0.211   4.288  13.441  0.3620 -0.1735  0.3595
12363TIP3    H158504   0.125   4.313  13.473  0.7967  1.5335  0.2951
12363TIP3    H258505   0.270   4.354  13.477  1.7984 -1.8090  1.1459
12364TIP3   OH258506   3.178   5.577   5.468 -0.4153  0.1881 -0.1781
12364TIP3    H158507   3.153   5.586   5.560  1.5430  3.7794  0.1909
12364TIP3    H258508   3.161   5.663   5.430  0.9555 -0.5093 -2.5980
12365TIP3   OH258509   6.719   3.296  11.641 -0.0043 -0.1333  0.5580
12365TIP3    H158510   6.712   3.341  11.557 -0.1185  0.5784  0.9439
12365TIP3    H258511   6.732   3.366  11.705  1.8182 -0.7671  0.9458
12366TIP3   OH258512   3.641   0.074  15.105  0.6868 -0.1545 -0.6922
12366TIP3    H158513   3.605   0.160  15.080  0.5637 -0.5251 -1.8475
12366TIP3    H258514   3.715   0.061  15.045 -0.3017 -1.5618 -1.6790
12367TIP3   OH258515   0.384   5.182   5.486  0.2184 -0.2437 -0.0133
12367TIP3    H158516   0.306   5.145   5.528  0.5735  0.8944  1.7811
12367TIP3    H258517   0.411   5.115   5.423 -3.5515  0.3484 -2.5382
12368TIP3   OH258518   3.408   4.455   0.523 -0.4055 -0.1196 -0.3511
12368TIP3    H158519   3.449   4.484   0.442  2.8063  1.7233  1.7314
12368TIP3    H258520   3.456   4.376   0.548  0.2113  0.5880  0.8151
12369TIP3   OH258521   1.053   2.387  15.966 -0.0168  0.6419  0.6776
12369TIP3    H158522   1.093   2.446  16.031 -0.1605  0.9466  0.4940
12369TIP3    H258523   1.124   2.365  15.907  0.0162  0.7080  0.6918
12370TIP3   OH258524   1.531   0.106  12.029  0.2241  0.6684  0.3521
12370TIP3    H158525   1.550   0.101  12.123 -0.4342  1.2644  0.5226
12370TIP3    H258526   1.473   0.182  12.020 -2.1065 -1.0753 -0.1545
12371TIP3   OH258527   5.136   3.792  14.262 -0.1559 -0.2482  0.2477
12371TIP3    H158528   5.166   3.874  14.222  1.5289 -1.2362 -0.6354
12371TIP3    H258529   5.042   3.803  14.271 -0.4244  0.6802 -2.6124
12372TIP3   OH258530   6.472   2.872  14.719 -0.1821 -0.1350 -0.0445
12372TIP3    H158531   6.526   2.925  14.778 -0.8253  1.2369 -0.6406
12372TIP3    H258532   6.534   2.837  14.655  0.1693  0.4622 -0.0423
12373TIP3   OH258533   0.540   5.722   5.646 -0.1941 -0.2399 -0.5166
12373TIP3    H158534   0.567   5.813   5.656  1.3100 -0.4988 -1.7394
12373TIP3    H258535   0.608   5.672   5.692 -1.2184 -0.7541  0.4871
12374TIP3   OH258536   2.391   1.454   3.360  0.6796 -0.8276 -0.2679
12374TIP3    H158537   2.438   1.423   3.436 -0.1643 -1.7074 -0.0770
12374TIP3    H258538   2.423   1.400   3.288 -1.4535 -2.9553  0.2237
12375TIP3   OH258539   0.023   0.571   1.982  0.1346  0.1473 -0.4767
12375TIP3    H158540   0.011   0.630   1.907 -0.5177  0.1132 -0.4054
12375TIP3    H258541  -0.064   0.564   2.021 -0.0468 -1.7631 -1.1449
12376TIP3   OH258542   4.432   2.803   5.767  0.1534  0.8828  0.0998
12376TIP3    H158543   4.347   2.800   5.811  0.8302  0.6995  1.4612
12376TIP3    H258544   4.435   2.725   5.712 -0.3231  0.5744  0.5112
12377TIP3   OH258545   0.673   0.465   2.287 -0.6950 -0.0543  0.8240
12377TIP3    H158546   0.601   0.505   2.335 -0.8344  1.1792 -0.3452
12377TIP3    H258547   0.738   0.443   2.354 -1.4237  0.4140  1.7013
12378TIP3   OH258548   0.150   1.618  15.530 -0.1994  0.3227 -0.8159
12378TIP3    H158549   0.166   1.595  15.621 -0.5192  1.5909 -0.4206
12378TIP3    H258550   0.137   1.534  15.486  0.6258 -0.3384  0.1693
12379TIP3   OH258551   0.097   3.190   4.783  0.4330 -0.5980 -0.4184
12379TIP3    H158552   0.012   3.201   4.742  0.3795  0.6552 -0.0197
12379TIP3    H258553   0.083   3.126   4.853 -0.4479  0.4194  0.3582
12380TIP3   OH258554   3.450   5.375  12.818  0.2705  0.6429 -0.6130
12380TIP3    H158555   3.482   5.459  12.785 -0.5738  1.1952 -0.0368
12380TIP3    H258556   3.506   5.310  12.774  3.0497  1.5819  1.2655
12381TIP3   OH258557   4.109   2.788  12.977  0.1894  0.3548 -0.0285
12381TIP3    H158558   4.151   2.705  12.999 -0.3831  0.2786  0.8360
12381TIP3    H258559   4.031   2.791  13.032  0.1639  1.4380 -0.0903
12382TIP3   OH258560   6.451   5.780  10.873  0.2064 -1.2432  0.0975
12382TIP3    H158561   6.476   5.721  10.945  1.2913  0.8017  1.4924
12382TIP3    H258562   6.523   5.773  10.811  2.1538  1.0521  1.8859
12383TIP3   OH258563   3.539   5.662  12.471 -0.4268 -0.0761  0.8431
12383TIP3    H158564   3.598   5.588  12.460 -0.8971 -0.5564  1.5187
12383TIP3    H258565   3.582   5.734  12.424  0.5135 -0.5099  1.0275
12384TIP3   OH258566   5.072   4.197   4.830  0.2655  0.0402 -0.5173
12384TIP3    H158567   5.161   4.232   4.827 -0.1969  1.2633 -0.5715
12384TIP3    H258568   5.083   4.105   4.855  1.5994 -0.1016 -1.5169
12385TIP3   OH258569   5.723   5.597  15.999  0.1020 -0.2828  0.0052
12385TIP3    H158570   5.636   5.593  16.037  0.0267 -1.6223 -0.2646
12385TIP3    H258571   5.710   5.636  15.912 -0.4878 -1.9712 -0.6942
12386TIP3   OH258572   4.513   3.994   6.642  0.2891 -0.0972  0.5073
12386TIP3    H158573   4.530   3.901   6.628  1.4238  0.4965 -3.3380
12386TIP3    H258574   4.428   4.010   6.601  0.0621  0.5717  1.2019
12387TIP3   OH258575   1.964   4.707  13.832 -0.2571  0.0219 -0.5216
12387TIP3    H158576   1.935   4.655  13.907 -1.3686 -0.3375 -1.1710
12387TIP3    H258577   2.039   4.756  13.864 -0.4353 -0.4651  0.6913
12388TIP3   OH258578   3.183   3.372  15.018 -0.2914 -0.2384  0.3277
12388TIP3    H158579   3.150   3.342  14.933  1.5312 -1.9044  0.1352
12388TIP3    H258580   3.276   3.385  15.004 -0.4330  2.5159  1.3267
12389TIP3   OH258581   2.047   4.954  12.463  0.3108 -0.2272  0.0412
12389TIP3    H158582   2.039   4.862  12.442 -3.2939 -0.6643  2.4440
12389TIP3    H258583   2.040   4.958  12.559  2.1774  2.4510  0.1958
12390TIP3   OH258584   3.625   6.081   0.535  0.5285 -0.0970 -0.0343
12390TIP3    H158585   3.698   6.071   0.595 -0.1036 -0.3441  0.6999
12390TIP3    H258586   3.645   6.161   0.486  1.1396 -0.0093  0.3506
12391TIP3   OH258587   3.476   1.737  14.957 -0.1101 -0.7649 -0.3445
12391TIP3    H158588   3.430   1.770  14.880  0.5042 -0.6077 -0.6522
12391TIP3    H258589   3.556   1.698  14.921 -0.0194 -1.0630  0.1786
12392TIP3   OH258590   2.986   1.468  16.713 -0.2113 -0.4674  0.1998
12392TIP3    H158591   3.002   1.506  16.799  2.0132  0.0720 -0.4085
12392TIP3    H258592   2.972   1.375  16.730  1.2549 -0.5478  1.0517
12393TIP3   OH258593   2.820   0.507   3.869  0.1171  0.6553  0.2330
12393TIP3    H158594   2.888   0.566   3.835 -0.5468  0.8249 -0.8575
12393TIP3    H258595   2.752   0.566   3.901  1.1403  0.5368  2.9245
12394TIP3   OH258596   6.277   0.964  12.962  0.9352 -0.1649  0.6883
12394TIP3    H158597   6.335   1.040  12.969 -0.1217  0.6161  1.2945
12394TIP3    H258598   6.250   0.962  12.870 -0.8173  1.6064  1.0960
12395TIP3   OH258599   5.557   2.961   5.008  0.1094 -0.3652 -0.1620
12395TIP3    H158600   5.561   2.867   4.993  1.3129 -0.4387  0.5211
12395TIP3    H258601   5.646   2.993   4.994 -0.5454  0.9167 -1.7448
12396TIP3   OH258602   6.667   0.778  15.221  1.1797 -0.0896 -0.3659
12396TIP3    H158603   6.626   0.864  15.213  3.1180  1.0124  0.6275
12396TIP3    H258604   6.604   0.725  15.270  0.5389  1.2108  0.2435
12397TIP3   OH258605   0.778   3.168   1.938  0.2217  0.7369  0.7323
12397TIP3    H158606   0.807   3.077   1.938 -0.4506  0.5180  0.5729
12397TIP3    H258607   0.754   3.185   2.029  1.4675  1.1287  1.0051
12398TIP3   OH258608   5.189   5.065   2.865  0.0301  0.6170  0.6581
12398TIP3    H158609   5.196   5.160   2.861 -0.5320  0.6361 -0.1820
12398TIP3    H258610   5.213   5.043   2.955  0.2785  1.5398  0.8283
12399TIP3   OH258611   5.600   5.667  12.191  0.2506 -0.0231 -0.2037
12399TIP3    H158612   5.671   5.626  12.142 -0.3584  0.2220 -1.3155
12399TIP3    H258613   5.568   5.597  12.249  2.4383  0.3156  1.5279
12400TIP3   OH258614   6.015   2.522   0.029 -0.0857 -0.3330 -0.2662
12400TIP3    H158615   5.956   2.497  -0.042 -1.3059  0.5433  0.4041
12400TIP3    H258616   6.039   2.612   0.009 -1.6025  0.4367  1.1425
12401TIP3   OH258617   1.745   2.695  15.003 -0.1941  0.2717 -0.1237
12401TIP3    H158618   1.654   2.672  14.985 -0.2523 -0.4289  0.9576
12401TIP3    H258619   1.748   2.790  14.990 -1.1456  0.3410  0.0523
12402TIP3   OH258620   6.737   4.068   5.396  0.4064  0.3439 -0.5639
12402TIP3    H158621   6.782   4.127   5.456  0.5734 -0.4417  0.1056
12402TIP3    H258622   6.806   4.036   5.338  0.5985 -0.3348  0.0275
12403TIP3   OH258623   4.972   3.317   1.640  0.6174 -0.0398 -0.1573
12403TIP3    H158624   4.948   3.282   1.726 -1.4769 -0.6422 -0.9149
12403TIP3    H258625   4.950   3.410   1.646 -3.0592 -0.7037 -1.0715
12404TIP3   OH258626   0.471   6.536   0.780 -0.0131  0.4466 -0.0370
12404TIP3    H158627   0.560   6.570   0.777  0.8008 -1.6251 -1.2411
12404TIP3    H258628   0.431   6.580   0.856  1.9307  1.5664  0.4005
12405TIP3   OH258629   4.867   4.864   2.266  0.5210 -0.5291  0.6643
12405TIP3    H158630   4.919   4.944   2.260 -1.6209  0.9162  0.3703
12405TIP3    H258631   4.890   4.815   2.187  3.9116 -1.6422  2.1470
12406TIP3   OH258632   5.903   5.683  16.362 -0.8260  0.4175  0.7688
12406TIP3    H158633   5.980   5.732  16.334 -0.3715 -0.5514  0.2689
12406TIP3    H258634   5.833   5.714  16.306 -0.6129  0.7135  0.6636
12407TIP3   OH258635   2.184   1.899   2.837 -0.4741 -0.4612 -0.1674
12407TIP3    H158636   2.132   1.877   2.914 -0.6600 -0.9664 -0.4312
12407TIP3    H258637   2.270   1.922   2.872 -0.7669  0.0172  0.2429
12408TIP3   OH258638   6.265   5.256   1.316 -0.2907  0.2025  0.4643
12408TIP3    H158639   6.314   5.174   1.310  0.2252  0.5920 -2.5681
12408TIP3    H258640   6.188   5.235   1.368  0.7902 -1.6619  1.3988
12409TIP3   OH258641   3.767   5.352   0.538 -0.1733  0.2811 -0.4257
12409TIP3    H158642   3.754   5.412   0.464 -0.7286 -0.9210 -1.3420
12409TIP3    H258643   3.829   5.287   0.505  0.6393  0.5007  0.6449
12410TIP3   OH258644   5.556   5.021   6.190  0.5530  0.3742 -0.3691
12410TIP3    H158645   5.541   5.029   6.096 -0.1523 -0.0115 -0.3015
12410TIP3    H258646   5.470   5.037   6.229  0.5216 -0.8437  0.1261
12411TIP3   OH258647   3.958   4.271  10.734 -0.0215  0.2610 -0.2440
12411TIP3    H158648   3.928   4.193  10.688 -1.3791  0.2017  0.6856
12411TIP3    H258649   4.053   4.271  10.721  0.2172 -2.2715  0.7570
12412TIP3   OH258650   4.276   5.960   5.494 -0.1066 -0.5488  0.4642
12412TIP3    H158651   4.230   5.942   5.576  1.0498  1.2332  1.5916
12412TIP3    H258652   4.362   5.920   5.506 -0.1904 -0.9428 -0.2159
12413TIP3   OH258653   4.251   3.546   2.040 -0.1013 -0.4056 -0.3388
12413TIP3    H158654   4.334   3.499   2.030  0.8218  1.1553 -0.3411
12413TIP3    H258655   4.227   3.572   1.951  1.0411  1.7698 -0.0755
12414TIP3   OH258656   0.465   0.291  11.734 -0.3533 -0.4670  0.1221
12414TIP3    H158657   0.557   0.318  11.736 -1.2708  3.1522  1.2943
12414TIP3    H258658   0.442   0.288  11.641  1.0371 -2.0606 -0.2167
12415TIP3   OH258659   2.120   1.210   0.814  0.2947  0.1883  0.2880
12415TIP3    H158660   2.083   1.195   0.902  0.9100  1.3671  0.7656
12415TIP3    H258661   2.169   1.291   0.822 -0.6791  1.0129 -1.4894
12416TIP3   OH258662   2.334   3.206   0.107  0.2188 -0.2375  0.1696
12416TIP3    H158663   2.340   3.168   0.020  0.2632 -0.7037  0.3761
12416TIP3    H258664   2.409   3.170   0.155 -1.4685 -2.4195  1.3460
12417TIP3   OH258665   1.011   5.580   6.223  0.4355  0.3306 -0.3564
12417TIP3    H158666   1.071   5.551   6.292  0.4141  2.2947  0.5413
12417TIP3    H258667   0.924   5.569   6.261  0.4134  1.2116 -0.1401
12418TIP3   OH258668   0.861   6.447   2.859  0.0707 -0.5189  0.3305
12418TIP3    H158669   0.867   6.473   2.951  1.6896 -0.9561  0.3818
12418TIP3    H258670   0.833   6.526   2.813  0.9171  0.1756  0.9868
12419TIP3   OH258671   1.576   1.591  14.054  0.2062  0.2058 -0.4301
12419TIP3    H158672   1.636   1.614  14.125  1.5570  0.5831 -1.6244
12419TIP3    H258673   1.537   1.509  14.081 -1.3415  1.5996  1.9223
12420TIP3   OH258674   2.341   2.520  13.826 -0.5009  0.3270  0.2319
12420TIP3    H158675   2.410   2.472  13.780 -0.8077  0.5464 -0.4657
12420TIP3    H258676   2.262   2.504  13.774 -0.7068  1.1559  0.2850
12421TIP3   OH258677   1.364   1.772  11.757  0.0057  0.2335 -0.6617
12421TIP3    H158678   1.309   1.813  11.824  0.3064 -1.0074  0.3786
12421TIP3    H258679   1.434   1.836  11.741  2.6085 -1.1804  3.6253
12422TIP3   OH258680   6.388   1.030   4.227 -0.5530  0.2697 -0.2614
12422TIP3    H158681   6.408   1.059   4.139 -1.5125 -2.5144 -1.5147
12422TIP3    H258682   6.295   1.008   4.225 -0.4932 -0.3073  1.3039
12423TIP3   OH258683   0.728   3.539   2.866 -0.4421 -0.4319  0.1454
12423TIP3    H158684   0.635   3.531   2.887 -0.0852 -0.3103  1.9316
12423TIP3    H258685   0.767   3.457   2.897  0.2903  0.1985  0.9230
12424TIP3   OH258686   3.804   0.714   1.591 -0.1100  0.4580  0.0086
12424TIP3    H158687   3.864   0.641   1.606 -0.6189  0.2781  1.2434
12424TIP3    H258688   3.861   0.790   1.579  0.4477 -0.2018 -1.8868
12425TIP3   OH258689   6.125   0.563  15.335 -0.1337  0.1338 -0.3293
12425TIP3    H158690   6.120   0.659  15.335  1.7027  0.3564 -3.4920
12425TIP3    H258691   6.212   0.544  15.369  0.5013 -0.2013 -2.0386
12426TIP3   OH258692   0.440   3.468   2.923  0.1440 -0.2537  0.7568
12426TIP3    H158693   0.465   3.414   2.998  0.0090 -1.0764  0.2264
12426TIP3    H258694   0.346   3.481   2.934 -0.2788 -2.0622 -0.2872
12427TIP3   OH258695   0.847   0.570  11.999 -0.7722  0.4129  0.3319
12427TIP3    H158696   0.753   0.582  12.009 -0.8125  0.6618 -0.3073
12427TIP3    H258697   0.872   0.631  11.929 -0.3094 -0.3449 -0.1857
12428TIP3   OH258698   0.259   1.411  13.073 -0.0520  0.0830  0.4807
12428TIP3    H158699   0.321   1.399  13.001 -1.2201 -0.3702 -0.4636
12428TIP3    H258700   0.306   1.467  13.135  0.7683  0.9758 -0.8901
12429TIP3   OH258701   0.686   1.476   3.505 -0.9776 -0.1039 -0.0560
12429TIP3    H158702   0.777   1.462   3.478 -1.3598  0.0103 -1.4734
12429TIP3    H258703   0.691   1.539   3.577  0.0751 -0.3054  0.0554
12430TIP3   OH258704   6.684   2.395   5.920  0.0643  0.0564 -0.1116
12430TIP3    H158705   6.762   2.450   5.924  0.7848 -0.9157 -0.4806
12430TIP3    H258706   6.612   2.456   5.904  0.5889  1.0852  1.2875
12431TIP3   OH258707   3.877   4.494  12.632  0.2066  0.5124 -0.1830
12431TIP3    H158708   3.807   4.547  12.592 -0.0937  0.0481 -0.2860
12431TIP3    H258709   3.926   4.556  12.686  0.9525  1.2825 -1.6749
12432TIP3   OH258710   3.328   1.187   4.057  0.2563  0.3606  0.2278
12432TIP3    H158711   3.290   1.106   4.024  1.4947 -0.1207 -0.0940
12432TIP3    H258712   3.380   1.221   3.984 -0.5858  1.6884  0.2115
12433TIP3   OH258713   2.372   3.201  15.121  0.2167  0.2408  0.0101
12433TIP3    H158714   2.321   3.204  15.202  0.1474 -0.8507  0.0240
12433TIP3    H258715   2.311   3.233  15.054 -0.2985 -0.4420  0.1325
12434TIP3   OH258716   0.038   1.660  14.279  0.4014  0.0615  0.0024
12434TIP3    H158717   0.100   1.587  14.275  0.1310 -0.1708 -0.0159
12434TIP3    H258718   0.086   1.734  14.242 -0.2016 -0.7514 -2.6255
12435TIP3   OH258719   0.245   1.672  12.245 -0.0218 -0.1498  0.4411
12435TIP3    H158720   0.194   1.683  12.325  1.1223 -1.1049  1.3425
12435TIP3    H258721   0.208   1.595  12.203 -0.7304  0.4477 -0.0629
12436TIP3   OH258722   1.128   0.119  14.111 -0.0031  0.5391  0.0422
12436TIP3    H158723   1.205   0.138  14.058  0.6917 -1.3838  0.3096
12436TIP3    H258724   1.077   0.200  14.108 -0.0236  0.5426 -3.5333
12437TIP3   OH258725   6.460   0.881  12.537  0.6964 -0.9781  0.3485
12437TIP3    H158726   6.500   0.949  12.483  0.6847 -0.7138  0.6735
12437TIP3    H258727   6.424   0.819  12.474  1.2571 -1.0097  0.0480
12438TIP3   OH258728   5.838   0.500  16.761 -0.3556 -0.3981 -0.5172
12438TIP3    H158729   5.749   0.500  16.797 -0.8205  0.4290 -1.6260
12438TIP3    H258730   5.840   0.424  16.703 -0.2682 -0.5433 -0.3243
12439TIP3   OH258731   0.277   5.737  13.900 -0.9849  0.1010  0.3498
12439TIP3    H158732   0.195   5.703  13.865 -0.2919 -1.2331 -0.0304
12439TIP3    H258733   0.262   5.747  13.994 -0.7204 -2.9092  0.7983
12440TIP3   OH258734   3.548   6.626  17.173 -0.3997  0.4940 -0.0370
12440TIP3    H158735   3.634   6.584  17.165  0.5745  2.2173  0.8957
12440TIP3    H258736   3.525   6.650  17.083 -1.1747 -2.2635 -0.6624
12441TIP3   OH258737   1.305   3.295  17.172 -0.3783  0.5200 -0.3282
12441TIP3    H158738   1.272   3.379  17.140  0.7260  1.2461  0.3491
12441TIP3    H258739   1.293   3.236  17.098 -1.9943  1.0309 -0.5208
12442TIP3   OH258740   4.914   2.656   3.387 -0.0893  0.2432  0.5301
12442TIP3    H158741   4.847   2.724   3.388  0.7704  1.3437 -2.9350
12442TIP3    H258742   4.904   2.614   3.302  2.3636 -0.8830  0.7120
12443TIP3   OH258743   1.966   1.721   0.020 -0.2338 -0.5297 -0.2180
12443TIP3    H158744   1.905   1.757  -0.045  1.3784 -2.6343 -3.1108
12443TIP3    H258745   1.928   1.637   0.045  0.8985 -1.4077 -1.3078
12444TIP3   OH258746   5.266   6.156   5.906  0.3302  0.4852 -0.1906
12444TIP3    H158747   5.243   6.192   5.992  0.5807 -1.8334  0.9128
12444TIP3    H258748   5.279   6.062   5.922  0.6360  0.0378 -2.7251
12445TIP3   OH258749   3.226   6.242  16.459 -0.2672  0.3755 -0.3803
12445TIP3    H158750   3.143   6.229  16.505  1.0412  0.3441  2.2011
12445TIP3    H258751   3.235   6.337  16.450 -0.1541  0.4281  0.2478
12446TIP3   OH258752   1.767   0.866   5.755 -1.7975  0.1020 -0.1529
12446TIP3    H158753   1.824   0.858   5.678 -1.2154 -0.8059  0.3491
12446TIP3    H258754   1.689   0.816   5.732 -0.6394 -2.2753  0.6952
12447TIP3   OH258755   0.728   2.348   5.641  0.2754 -0.5194  0.2513
12447TIP3    H158756   0.764   2.260   5.624 -0.4026 -0.9003  0.7204
12447TIP3    H258757   0.804   2.406   5.639  0.6228 -0.9700 -1.0037
12448TIP3   OH258758   2.701   3.261  17.370  0.2097 -0.0797 -0.5080
12448TIP3    H158759   2.659   3.347  17.368  0.7490  0.1880 -0.4215
12448TIP3    H258760   2.723   3.243  17.278  1.0382  0.3537 -0.4108
12449TIP3   OH258761   1.433   4.254  16.739 -0.1836 -0.0109  0.1895
12449TIP3    H158762   1.460   4.315  16.670 -1.2129  2.4125  1.8177
12449TIP3    H258763   1.492   4.273  16.812 -0.3280 -1.2244  0.6479
12450TIP3   OH258764   1.872   3.837   2.155  0.0509 -0.3072  0.1701
12450TIP3    H158765   1.874   3.913   2.098  2.3071  0.6670  1.3952
12450TIP3    H258766   1.843   3.871   2.240  1.7183 -0.6148  0.9025
12451TIP3   OH258767   4.642   6.118   3.911 -0.1576 -0.4117  0.4639
12451TIP3    H158768   4.686   6.151   3.989 -0.8685 -1.2669  1.2440
12451TIP3    H258769   4.632   6.024   3.927 -0.0432 -0.6601 -0.7938
12452TIP3   OH258770   1.456   3.947  16.066  0.3312  0.4272 -0.2020
12452TIP3    H158771   1.434   4.015  16.003  0.5287  0.6370 -0.0451
12452TIP3    H258772   1.509   3.885  16.017 -1.0782 -0.4050 -0.7591
12453TIP3   OH258773   5.077   1.587   6.453  0.1959 -0.2731  0.0207
12453TIP3    H158774   5.009   1.554   6.394  0.3379  0.2333 -0.4411
12453TIP3    H258775   5.063   1.541   6.535 -1.9709  1.2732  0.5841
12454TIP3   OH258776   5.654   1.905  14.234 -0.1747  0.1323  0.2607
12454TIP3    H158777   5.667   1.996  14.209 -1.2750  0.3375  0.3926
12454TIP3    H258778   5.588   1.872  14.173 -0.7415 -0.1886  1.0276
12455TIP3   OH258779   4.688   3.176  14.253  0.3284  0.0124 -0.5931
12455TIP3    H158780   4.719   3.086  14.257  0.3978  0.0846  2.4120
12455TIP3    H258781   4.765   3.229  14.274 -0.5065  0.5135  1.3810
12456TIP3   OH258782   4.338   3.549   2.717 -0.0428 -0.2117  0.3966
12456TIP3    H158783   4.320   3.477   2.777  0.7521 -0.7630 -0.0161
12456TIP3    H258784   4.269   3.543   2.650  0.1300 -0.7029  0.2627
12457TIP3   OH258785   3.409   3.730  14.250 -0.0812 -0.1265 -0.1831
12457TIP3    H158786   3.415   3.766  14.161  0.2887  1.0086  0.2850
12457TIP3    H258787   3.500   3.719  14.277  0.0240 -4.6749 -1.5105
12458TIP3   OH258788   0.887   5.871   0.059 -0.4837  0.5573  0.1303
12458TIP3    H158789   0.794   5.849   0.061 -0.6628  1.3053  1.5496
12458TIP3    H258790   0.931   5.796   0.099 -0.4554  0.1359 -0.6851
12459TIP3   OH258791   1.945   5.924  16.225  0.3257 -0.2702 -0.3936
12459TIP3    H158792   1.852   5.931  16.205  0.4575 -0.6470 -1.1682
12459TIP3    H258793   1.974   6.014  16.243 -0.0952 -0.1066 -0.5454
12460TIP3   OH258794   1.422   0.933   1.592 -0.2134  0.3568  0.1208
12460TIP3    H158795   1.440   0.918   1.499  0.0277  1.3270  0.0047
12460TIP3    H258796   1.503   0.906   1.637  0.2213  1.2875 -0.0876
12461TIP3   OH258797   6.207   2.709  11.872 -0.2976 -0.6098 -0.0642
12461TIP3    H158798   6.131   2.765  11.860  0.7136  1.3884  2.1447
12461TIP3    H258799   6.204   2.682  11.964  1.4139 -0.8350 -0.0319
12462TIP3   OH258800   1.138   3.396   6.440  0.2985  0.6845  0.3125
12462TIP3    H158801   1.209   3.379   6.378 -0.3684 -3.9623  0.5120
12462TIP3    H258802   1.093   3.473   6.404  1.2995 -0.3829 -3.7291
12463TIP3   OH258803   1.029   3.585   6.257 -0.2369 -0.5106 -0.5852
12463TIP3    H158804   1.084   3.625   6.189  0.4477  1.0131  0.7967
12463TIP3    H258805   0.942   3.583   6.218 -0.1179  1.4958 -1.1103
12464TIP3   OH258806   4.353   2.898   3.528 -0.3983 -0.1878 -0.5994
12464TIP3    H158807   4.441   2.926   3.554 -0.3121 -0.6420 -0.3916
12464TIP3    H258808   4.305   2.889   3.611 -0.6080 -0.0587 -0.7038
12465TIP3   OH258809   6.419   3.030  15.353  0.1385 -0.4418 -0.3195
12465TIP3    H158810   6.464   3.061  15.431  0.1735  1.6262 -1.1001
12465TIP3    H258811   6.483   3.040  15.282 -1.1367  1.5695 -1.2671
12466TIP3   OH258812   3.379   5.423   3.880 -0.3868  0.9848 -0.0967
12466TIP3    H158813   3.340   5.500   3.920  1.2047  1.8747 -0.1935
12466TIP3    H258814   3.450   5.398   3.939 -2.0967 -1.6753  1.0165
12467TIP3   OH258815   4.202   5.915  10.873  0.4220  0.0372 -0.3602
12467TIP3    H158816   4.225   5.986  10.813 -0.8393  0.5221 -0.2965
12467TIP3    H258817   4.264   5.924  10.945  1.3753  0.0005 -1.1549
12468TIP3   OH258818   0.644   0.885   0.229 -0.7697  0.3087  0.2454
12468TIP3    H158819   0.555   0.849   0.236 -0.1400 -1.8000 -1.3441
12468TIP3    H258820   0.695   0.832   0.290  0.1510 -1.5840 -2.0159
12469TIP3   OH258821   5.851   6.153  16.160  0.3101  0.0235  0.7999
12469TIP3    H158822   5.900   6.105  16.093  1.0286  0.9013  0.6758
12469TIP3    H258823   5.894   6.128  16.243 -1.1536 -1.7811  1.0898
12470TIP3   OH258824   5.119   5.352   4.008  0.2626  0.3305  0.1279
12470TIP3    H158825   5.039   5.391   4.044  1.2315  2.0460  0.5316
12470TIP3    H258826   5.182   5.358   4.080  0.8925 -0.6138 -0.3281
12471TIP3   OH258827   6.540   5.560  16.468  0.5363  0.2808 -0.2524
12471TIP3    H158828   6.591   5.618  16.411 -0.5554  0.6029 -0.9337
12471TIP3    H258829   6.453   5.559  16.429 -0.0252 -0.1456  0.9705
12472TIP3   OH258830   4.006   5.608  12.886 -0.3439 -0.2974  0.5093
12472TIP3    H158831   4.028   5.697  12.859  0.8138 -0.2195  1.6309
12472TIP3    H258832   3.993   5.614  12.980 -1.0219 -1.1791  0.4828
12473TIP3   OH258833   1.978   2.032  15.234  0.3080  0.6437 -0.1079
12473TIP3    H158834   2.011   2.013  15.321 -1.0989  1.2149  0.5877
12473TIP3    H258835   1.888   2.062  15.248 -0.4547 -0.6146 -1.8753
12474TIP3   OH258836   3.317   0.867   5.411  0.0386  0.0151 -0.2175
12474TIP3    H158837   3.297   0.861   5.318 -1.5361  1.2540  0.0026
12474TIP3    H258838   3.329   0.960   5.428  1.1940 -0.2582  0.6746
12475TIP3   OH258839   3.987   3.634   4.836  0.3694  0.1049 -0.2551
12475TIP3    H158840   3.978   3.729   4.844  0.7524  0.1999 -0.8595
12475TIP3    H258841   3.953   3.615   4.748  1.7064 -0.1193 -0.7360
12476TIP3   OH258842   2.475   1.623   1.145  0.7649 -0.7703 -0.4677
12476TIP3    H158843   2.391   1.587   1.117  1.4747 -2.1981 -0.8634
12476TIP3    H258844   2.457   1.715   1.166 -0.9142 -1.1011 -0.3788
12477TIP3   OH258845   1.559   6.303  17.354 -0.0616  0.1733 -0.5373
12477TIP3    H158846   1.495   6.373  17.359  0.7278  0.8953 -0.3697
12477TIP3    H258847   1.515   6.228  17.395 -0.1780  1.1398  1.1958
12478TIP3   OH258848   4.182   5.449  13.460  0.3615 -0.2020  0.2330
12478TIP3    H158849   4.185   5.414  13.549 -0.8321 -1.2266 -0.1102
12478TIP3    H258850   4.269   5.430  13.423  0.2758 -1.3605  0.6002
12479TIP3   OH258851   2.473   0.099   4.535 -0.3879  0.0894  0.7514
12479TIP3    H158852   2.487   0.157   4.609 -0.5036 -0.2738  1.0585
12479TIP3    H258853   2.521   0.019   4.556 -1.8268 -0.6843  1.2412
12480TIP3   OH258854   2.391   0.791  10.812  0.1997 -0.6034 -0.1639
12480TIP3    H158855   2.388   0.728  10.741 -3.6063 -0.2137 -0.5536
12480TIP3    H258856   2.467   0.846  10.791  1.3382 -2.6449 -1.8814
12481TIP3   OH258857   2.567   1.480  16.536 -0.1235  0.2548 -0.1547
12481TIP3    H158858   2.529   1.456  16.452  0.5503 -1.6932  0.0498
12481TIP3    H258859   2.662   1.473  16.524 -0.0238 -0.3687  0.8323
12482TIP3   OH258860   6.024   1.999  12.438  0.2449  0.2060 -0.1113
12482TIP3    H158861   6.083   2.000  12.362  1.3511  0.9395  0.7232
12482TIP3    H258862   6.067   2.057  12.501  0.1995 -1.6712  1.7205
12483TIP3   OH258863   6.720   1.764  15.999  0.3198  0.4805 -0.1143
12483TIP3    H158864   6.671   1.771  15.917 -0.8677  0.4672  0.5672
12483TIP3    H258865   6.741   1.855  16.023  0.2922  0.5114 -0.2096
12484TIP3   OH258866   2.932   5.871  17.272 -0.2525  0.1908 -0.1574
12484TIP3    H158867   2.999   5.837  17.212 -0.2867 -0.7425  0.3197
12484TIP3    H258868   2.911   5.797  17.329 -2.4859  0.1236 -0.9865
12485TIP3   OH258869   3.097   6.341   0.918 -0.0369 -0.5024  0.1763
12485TIP3    H158870   3.165   6.390   0.964  0.3821  2.0056 -2.7440
12485TIP3    H258871   3.126   6.250   0.922  0.7535 -0.2192  3.3046
12486TIP3   OH258872   2.660   3.102   3.319 -0.6929  0.2894  0.2978
12486TIP3    H158873   2.734   3.044   3.337  0.5894  2.2943  1.9687
12486TIP3    H258874   2.687   3.187   3.356 -2.7663  1.7721 -1.3644
12487TIP3   OH258875   3.076   3.705   0.676 -0.2652  0.1313 -0.8822
12487TIP3    H158876   3.158   3.688   0.630 -0.0821 -0.5777 -0.3163
12487TIP3    H258877   3.103   3.751   0.756 -0.4686  0.3153 -0.9191
12488TIP3   OH258878   2.303   0.383   0.502 -0.0076 -0.4683 -0.5504
12488TIP3    H158879   2.389   0.414   0.471 -0.5303  0.9032 -0.7008
12488TIP3    H258880   2.295   0.295   0.466  1.2543 -0.5490 -0.6972
12489TIP3   OH258881   5.510   2.564  12.528 -0.9962 -0.2014  0.5607
12489TIP3    H158882   5.494   2.630  12.596 -1.9233 -2.2656  2.4939
12489TIP3    H258883   5.424   2.525  12.512 -0.6668 -0.2192 -1.3687
12490TIP3   OH258884   4.425   0.570   5.299 -0.1716  0.0012 -0.8668
12490TIP3    H158885   4.446   0.630   5.228 -1.5661 -2.5721 -3.6952
12490TIP3    H258886   4.329   0.571   5.304 -0.1097  0.0234  0.9403
12491TIP3   OH258887   4.608   2.092  12.585  0.1371  0.0122 -0.0393
12491TIP3    H158888   4.680   2.042  12.623 -0.5279 -0.7833  0.1906
12491TIP3    H258889   4.561   2.127  12.661 -1.0394 -1.3609 -0.0998
12492TIP3   OH258890   3.759   5.955   4.374  0.0814  0.1300  0.5353
12492TIP3    H158891   3.745   6.032   4.429  0.8252 -0.2609  1.3009
12492TIP3    H258892   3.847   5.924   4.398  0.2622 -0.2839 -0.6011
12493TIP3   OH258893   0.721   4.612  15.069 -0.1980  0.3800  0.3430
12493TIP3    H158894   0.791   4.659  15.115 -0.4296  2.0109 -0.8670
12493TIP3    H258895   0.750   4.608  14.978 -1.3575  0.4599 -0.0455
12494TIP3   OH258896   2.337   3.515   3.950  0.8977  0.2855  0.4000
12494TIP3    H158897   2.308   3.544   4.036  0.8678 -0.9758  0.8359
12494TIP3    H258898   2.397   3.443   3.968 -1.1456 -1.8107 -0.6542
12495TIP3   OH258899   6.215   0.001  14.116 -0.3719 -0.1197 -0.2874
12495TIP3    H158900   6.121   0.012  14.101 -0.7304  0.0515  1.7393
12495TIP3    H258901   6.253   0.085  14.090 -0.8500 -0.0238 -0.6936
12496TIP3   OH258902   0.333   4.371  12.799 -0.0184  0.0826 -0.0785
12496TIP3    H158903   0.287   4.312  12.858  0.1970  0.8826  0.9047
12496TIP3    H258904   0.274   4.381  12.724 -0.1514 -1.1831 -0.1623
12497TIP3   OH258905   1.220   2.824  13.765 -0.0975 -0.3626  0.2102
12497TIP3    H158906   1.182   2.903  13.802 -1.6730 -0.9751  0.0068
12497TIP3    H258907   1.308   2.820  13.800 -0.2791  1.0458  0.8701
12498TIP3   OH258908   4.223   5.497  11.791  0.1252 -0.4863 -0.0383
12498TIP3    H158909   4.160   5.542  11.846  0.2538  1.1902 -1.1894
12498TIP3    H258910   4.206   5.404  11.806 -2.6012 -0.0987 -0.3104
12499TIP3   OH258911   2.121   1.244  12.458  0.3162 -0.5229 -0.7881
12499TIP3    H158912   2.099   1.291  12.538 -1.9934 -1.1077 -1.0167
12499TIP3    H258913   2.199   1.193  12.482 -0.0863 -0.3944  0.9759
12500TIP3   OH258914   1.495   5.647   0.054 -0.1532 -0.0296 -0.3652
12500TIP3    H158915   1.558   5.586   0.015 -0.2318  0.3995 -1.1878
12500TIP3    H258916   1.529   5.734   0.033 -2.3743  0.2980 -3.2812
12501TIP3   OH258917   1.212   5.529   1.142  0.4438 -0.4174  0.1781
12501TIP3    H158918   1.171   5.553   1.225  0.4662  1.8866 -0.4080
12501TIP3    H258919   1.226   5.612   1.097  0.3036 -1.6020 -2.2172
12502TIP3   OH258920   2.788   6.390  12.953  0.6310  0.1764 -0.1809
12502TIP3    H158921   2.853   6.346  13.008 -0.5938 -1.4675  0.0196
12502TIP3    H258922   2.802   6.353  12.866 -0.1717 -0.3897 -0.0841
12503TIP3   OH258923   1.284   3.134  12.037 -0.0918  0.3576 -0.2165
12503TIP3    H158924   1.290   3.129  12.132  0.3710  1.2783 -0.1801
12503TIP3    H258925   1.253   3.223  12.020 -0.5872  0.0548 -0.9121
12504TIP3   OH258926   3.825   3.396  13.553 -0.3571  0.1138  0.0945
12504TIP3    H158927   3.746   3.346  13.530 -0.0868 -0.5487  0.5774
12504TIP3    H258928   3.829   3.466  13.488 -0.4660 -0.7982 -0.9079
12505TIP3   OH258929   1.803   3.157  13.978 -0.3387  0.1283  0.3718
12505TIP3    H158930   1.890   3.124  13.957 -0.6433 -0.8951  0.6228
12505TIP3    H258931   1.797   3.241  13.934  0.6567  0.0570  0.0843
12506TIP3   OH258932   1.859   3.674   0.110 -0.0537 -0.0806  0.0730
12506TIP3    H158933   1.840   3.581   0.100 -1.4287  0.3143 -1.5053
12506TIP3    H258934   1.839   3.694   0.201  1.7238 -1.5999  0.8653
12507TIP3   OH258935   1.731   3.049   0.634  0.2517 -0.0477 -0.5915
12507TIP3    H158936   1.703   3.140   0.626 -1.1839 -0.4061 -0.0765
12507TIP3    H258937   1.792   3.048   0.707  1.4103  0.7187 -1.5262
12508TIP3   OH258938   5.962   6.546  16.448 -0.0061  0.3908  0.0263
12508TIP3    H158939   6.022   6.476  16.422  2.2604  2.1476  0.2163
12508TIP3    H258940   5.887   6.500  16.486  0.8200 -1.9390 -0.9575
12509TIP3   OH258941   2.413   4.993   4.455 -0.0373  0.3708  0.2579
12509TIP3    H158942   2.497   4.988   4.502  0.4860  0.2768 -0.6543
12509TIP3    H258943   2.435   4.970   4.365 -1.6242 -3.2989  0.6087
12510TIP3   OH258944   3.031   1.336  14.054 -0.0660 -0.5150 -0.4980
12510TIP3    H158945   2.943   1.350  14.021 -0.1782  1.1165  0.3703
12510TIP3    H258946   3.080   1.414  14.029  0.9227 -1.0203 -0.2449
12511TIP3   OH258947   0.651   3.948  16.077 -0.6658  0.4142 -0.0091
12511TIP3    H158948   0.680   3.907  15.995 -2.2121  1.6434 -1.2267
12511TIP3    H258949   0.557   3.929  16.081 -0.8015  1.2226  0.9896
12512TIP3   OH258950   0.365   2.793   1.452  0.6081 -0.4531  0.6355
12512TIP3    H158951   0.366   2.755   1.364 -0.5493  0.3165  0.2631
12512TIP3    H258952   0.433   2.746   1.499  1.8623 -0.2845 -0.9242
12513TIP3   OH258953   0.347   2.747   5.435  0.6226 -0.2647 -0.3455
12513TIP3    H158954   0.421   2.768   5.377 -0.2652 -0.0340 -1.4448
12513TIP3    H258955   0.292   2.825   5.432  0.5420 -0.2631  0.8259
12514TIP3   OH258956   4.952   2.700   2.672 -0.2236 -0.2207  0.6896
12514TIP3    H158957   4.998   2.668   2.750 -0.8162 -0.1762  1.0675
12514TIP3    H258958   4.931   2.621   2.622 -1.9602 -0.5102  1.7716
12515TIP3   OH258959   4.158   0.780   1.366  0.5595  0.2973 -0.2613
12515TIP3    H158960   4.105   0.818   1.296  2.6216 -2.9928 -3.9744
12515TIP3    H258961   4.248   0.804   1.345  1.3927 -2.1365  0.1653
12516TIP3   OH258962   6.071   4.286  14.203  0.8606  0.0268 -0.0972
12516TIP3    H158963   6.121   4.332  14.271 -0.3174  0.5948  0.4135
12516TIP3    H258964   6.121   4.301  14.123  1.6394  0.3737  0.4357
12517TIP3   OH258965   6.472   3.862  11.593 -0.3754  0.1151 -0.8259
12517TIP3    H158966   6.556   3.840  11.634  1.0528 -1.7919 -4.2817
12517TIP3    H258967   6.484   3.951  11.561  0.3670 -0.1179 -1.2381
12518TIP3   OH258968   6.384   3.354  15.589  0.0723  0.6989 -0.5380
12518TIP3    H158969   6.422   3.268  15.608 -0.6191  0.3405 -0.7133
12518TIP3    H258970   6.377   3.396  15.674 -0.8367  0.0349 -0.2659
12519TIP3   OH258971   2.038   3.486   2.318  0.0995  0.4625  0.4399
12519TIP3    H158972   2.040   3.571   2.276 -0.3997  0.0701 -0.4049
12519TIP3    H258973   1.946   3.474   2.344 -0.0858 -0.2900 -0.4872
12520TIP3   OH258974   0.857   1.186   2.405  0.2912 -0.7877 -0.3147
12520TIP3    H158975   0.819   1.257   2.353  2.4600  0.0122 -0.9147
12520TIP3    H258976   0.783   1.128   2.425 -1.7002  1.9127  0.7313
12521TIP3   OH258977   3.142   3.942  13.860  0.2293 -0.6872  0.0212
12521TIP3    H158978   3.139   3.932  13.765  2.4717 -0.6982 -0.0861
12521TIP3    H258979   3.075   3.881  13.892 -0.1542 -1.1164 -1.5159
12522TIP3   OH258980   5.401   5.588   2.981 -0.6734  0.4490  0.0555
12522TIP3    H158981   5.449   5.582   2.899  1.0793  2.4383  0.8390
12522TIP3    H258982   5.457   5.542   3.044 -1.4687 -0.1137  0.3636
12523TIP3   OH258983   6.278   1.694  11.514 -0.2009 -0.5304 -0.2940
12523TIP3    H158984   6.353   1.639  11.490 -0.9004 -1.9313  0.5929
12523TIP3    H258985   6.242   1.653  11.592 -0.8188  1.1742  0.3688
12524TIP3   OH258986   5.057   4.204  17.045 -0.0929 -0.6478  0.5465
12524TIP3    H158987   5.115   4.277  17.070 -1.7837  1.0481 -0.2915
12524TIP3    H258988   5.077   4.135  17.109  1.7261  0.4441  1.2285
12525TIP3   OH258989   4.990   6.367   5.169  0.0985 -0.2912  0.4492
12525TIP3    H158990   4.941   6.403   5.095  0.3547 -1.4771 -0.3346
12525TIP3    H258991   5.042   6.296   5.131  0.6485 -0.5762  1.6746
12526TIP3   OH258992   4.991   5.176   4.206 -0.3326  0.4840  0.2649
12526TIP3    H158993   5.083   5.151   4.213 -0.0863  1.5819  1.2928
12526TIP3    H258994   4.972   5.221   4.288 -1.1372  2.3553 -0.8879
12527TIP3   OH258995   0.450   4.100  16.849 -0.0870  0.5464 -0.6123
12527TIP3    H158996   0.474   4.185  16.813 -0.1214  1.3995  1.2801
12527TIP3    H258997   0.387   4.064  16.785 -0.4916  2.1612 -1.1798
12528TIP3   OH258998   0.102   2.515  15.316  0.2485 -0.5898 -0.2579
12528TIP3    H158999   0.162   2.585  15.341 -0.3568  0.2905 -1.1584
12528TIP3    H259000   0.158   2.438  15.304  0.8730 -0.3856  1.1505
12529TIP3   OH259001   4.777   1.078  16.804  0.3429  0.5120 -0.2763
12529TIP3    H159002   4.811   1.068  16.715  0.9677 -0.4825  0.0507
12529TIP3    H259003   4.686   1.105  16.792 -0.1735 -1.4336 -1.2954
12530TIP3   OH259004   0.723   2.034  13.149  0.0587 -0.7001  0.8435
12530TIP3    H159005   0.696   1.971  13.083 -2.6046  0.3723  0.7798
12530TIP3    H259006   0.732   2.117  13.101 -0.7046 -0.1700  1.5821
12531TIP3   OH259007   4.366   6.636  16.193 -0.4015 -0.4327 -0.1094
12531TIP3    H159008   4.275   6.666  16.194 -0.6907 -1.0326  3.1769
12531TIP3    H259009   4.361   6.547  16.158 -1.0507 -0.3435 -0.2595
12532TIP3   OH259010   2.489   1.033   3.289  0.2706  0.2984 -0.4400
12532TIP3    H159011   2.571   1.007   3.331 -0.6123 -1.3216  0.3701
12532TIP3    H259012   2.481   0.976   3.213 -0.5668 -0.2311  0.0344
12533TIP3   OH259013   0.065   2.058   2.806  0.0352 -0.2376  0.2108
12533TIP3    H159014   0.136   2.047   2.743  0.0921 -2.8200  0.6147
12533TIP3    H259015  -0.015   2.055   2.754  0.1293 -0.6085  0.0869
12534TIP3   OH259016   2.229   5.665  12.601 -0.0989 -0.1533  0.0326
12534TIP3    H159017   2.320   5.682  12.578 -0.0725 -1.0052 -0.5477
12534TIP3    H259018   2.215   5.573  12.577 -1.1118 -0.0272  0.0928
12535TIP3   OH259019   6.075   2.066  14.847 -0.2223  0.3729  0.2556
12535TIP3    H159020   6.018   2.032  14.916  0.4958  0.1936  0.7743
12535TIP3    H259021   6.121   2.139  14.888 -0.8076  1.1639 -0.4658
12536TIP3   OH259022   2.535   3.795  13.328  0.9120 -0.3455  0.0431
12536TIP3    H159023   2.494   3.848  13.397 -0.0945 -0.3182 -0.5580
12536TIP3    H259024   2.583   3.859  13.275  1.1878 -0.2847  0.3604
12537TIP3   OH259025   0.303   2.261  14.815  0.6920  0.0554  0.3823
12537TIP3    H159026   0.347   2.335  14.772 -1.7103  1.4039  0.0863
12537TIP3    H259027   0.237   2.302  14.871  0.3870 -1.8518  1.4869
12538TIP3   OH259028   3.325   3.815   0.136 -0.0028 -0.0508  0.1836
12538TIP3    H159029   3.411   3.804   0.094 -0.9114  3.9934 -3.4430
12538TIP3    H259030   3.265   3.764   0.081 -0.1507 -3.7143  3.2787
12539TIP3   OH259031   5.119   1.012  12.800 -0.3939  0.7031  0.3073
12539TIP3    H159032   5.179   1.084  12.781 -0.7429  0.9719  0.2174
12539TIP3    H259033   5.032   1.049  12.788 -0.5849  0.3604  0.5963
12540TIP3   OH259034   3.579   2.965  12.236 -0.0759 -0.0713 -0.4401
12540TIP3    H159035   3.629   2.899  12.284 -1.6577 -1.3242 -0.4237
12540TIP3    H259036   3.507   2.989  12.295 -2.3122 -1.9533 -2.2197
12541TIP3   OH259037   6.409   0.814   2.030  0.1370  0.1063  0.1250
12541TIP3    H159038   6.325   0.857   2.014 -0.3445  0.3015  2.7754
12541TIP3    H259039   6.461   0.879   2.078  0.2083 -1.4401  2.2478
12542TIP3   OH259040   3.686   6.099  10.575  0.3640  0.0612  0.4077
12542TIP3    H159041   3.642   6.067  10.654  1.1075 -2.1078  0.0027
12542TIP3    H259042   3.703   6.021  10.524  0.0737  1.3964 -1.8597
12543TIP3   OH259043   3.172   3.516  15.381 -0.1193  0.2825  0.5374
12543TIP3    H159044   3.173   3.423  15.359  0.2380 -0.0197  1.7692
12543TIP3    H259045   3.084   3.545  15.360 -0.2370 -0.3335  0.1573
12544TIP3   OH259046   4.242   0.788  13.100 -0.1540  0.1628 -0.3525
12544TIP3    H159047   4.188   0.841  13.041 -0.2554  0.6815  0.2005
12544TIP3    H259048   4.196   0.704  13.105 -0.2838  0.2022 -0.8039
12545TIP3   OH259049   6.161   5.206   5.222  0.1261 -0.2551 -0.5427
12545TIP3    H159050   6.070   5.196   5.250  0.4449  0.0949  0.7280
12545TIP3    H259051   6.157   5.255   5.140 -0.8121  0.0160 -0.3388
12546TIP3   OH259052   2.785   4.176  13.334  0.1000  0.1833  0.4042
12546TIP3    H159053   2.739   4.099  13.299  0.6919 -0.3726  0.8413
12546TIP3    H259054   2.718   4.245  13.333  0.0132  0.1371 -1.5641
12547TIP3   OH259055   1.746   5.529   5.116 -0.3701 -0.9658  0.5730
12547TIP3    H159056   1.681   5.599   5.110 -0.3767 -1.0645 -0.8223
12547TIP3    H259057   1.702   5.452   5.078  0.3444 -1.1836  0.1628
12548TIP3   OH259058   5.033   5.278   3.485  0.4154  0.5161 -0.4958
12548TIP3    H159059   5.109   5.323   3.446  1.0311  1.8363  2.0066
12548TIP3    H259060   5.043   5.292   3.579 -1.4446 -1.7457  0.1263
12549TIP3   OH259061   4.758   6.157   1.931  0.2443  0.2199 -0.4645
12549TIP3    H159062   4.682   6.204   1.965  0.3436 -1.6600  2.7711
12549TIP3    H259063   4.831   6.186   1.986  1.1034 -0.7884 -1.0315
12550TIP3   OH259064   4.665   2.702  15.725 -0.0225  0.1602 -0.0770
12550TIP3    H159065   4.740   2.646  15.706 -1.1754 -1.6295  0.3318
12550TIP3    H259066   4.596   2.641  15.752 -2.0462  1.6003 -1.6560
12551TIP3   OH259067   2.677   0.668  12.834  0.4345  0.2718  0.2883
12551TIP3    H159068   2.679   0.590  12.889  0.1672 -1.5274 -2.0652
12551TIP3    H259069   2.594   0.710  12.855 -0.2060 -1.0152  0.4382
12552TIP3   OH259070   6.638   4.921   1.624  0.2753 -0.2190  0.1876
12552TIP3    H159071   6.668   5.010   1.640  0.7717  0.3309 -3.1327
12552TIP3    H259072   6.719   4.869   1.622  0.5056  0.1057 -2.1425
12553TIP3   OH259073   0.355   2.557  14.213 -0.5746  0.3182 -0.1650
12553TIP3    H159074   0.283   2.494  14.221  0.8284 -1.3566  0.0372
12553TIP3    H259075   0.408   2.523  14.141 -1.4179  3.1034 -2.2834
12554TIP3   OH259076   1.754   6.343   4.651  0.2772 -0.2088 -0.1585
12554TIP3    H159077   1.805   6.416   4.687 -0.7967 -0.0537  1.1556
12554TIP3    H259078   1.724   6.296   4.728 -1.4374 -0.3674 -0.8899
12555TIP3   OH259079   4.482   2.525   5.725 -0.3081  0.3938 -0.5819
12555TIP3    H159080   4.481   2.489   5.636  0.5942  1.5709 -1.0905
12555TIP3    H259081   4.546   2.472   5.772 -1.6886 -1.0570 -0.2303
12556TIP3   OH259082   0.046   0.451   1.103 -0.1560 -0.0045  0.2067
12556TIP3    H159083   0.075   0.462   1.193 -0.3353 -0.0831  0.2751
12556TIP3    H259084  -0.046   0.476   1.104 -0.8155 -2.2138  0.5464
12557TIP3   OH259085   3.134   2.494   2.393  0.2211 -0.4302  0.0722
12557TIP3    H159086   3.070   2.530   2.332  0.2577 -1.7817 -0.8180
12557TIP3    H259087   3.099   2.513   2.480 -0.2363  0.8168 -0.3730
12558TIP3   OH259088   4.099   5.929   2.888 -0.4346  0.5152 -0.2495
12558TIP3    H159089   4.179   5.980   2.881 -0.6742  0.9661  0.2557
12558TIP3    H259090   4.070   5.941   2.978 -1.3184  0.7307 -0.5568
12559TIP3   OH259091   4.406   3.168  16.029  0.4984 -0.2105  0.1482
12559TIP3    H159092   4.495   3.146  16.057  1.0934  2.4995  0.7149
12559TIP3    H259093   4.414   3.179  15.934  0.0086 -2.8828 -0.2724
12560TIP3   OH259094   1.203   6.450  12.429  0.0292  0.0922 -0.0008
12560TIP3    H159095   1.248   6.416  12.352 -1.3501 -2.8463  0.3717
12560TIP3    H259096   1.110   6.441  12.410 -0.3512 -0.2314  1.7989
12561TIP3   OH259097   2.245   3.116  16.552 -0.2326 -0.3939 -0.3760
12561TIP3    H159098   2.243   3.041  16.612  1.3472  0.1843  0.4543
12561TIP3    H259099   2.338   3.140  16.547 -0.8334  2.4958  0.6399
12562TIP3   OH259100   0.349   0.220   1.327  0.0970  1.0208 -0.1678
12562TIP3    H159101   0.332   0.133   1.364 -0.2737  0.6426 -1.1910
12562TIP3    H259102   0.443   0.233   1.341 -0.1587  1.2664  1.6400
12563TIP3   OH259103   5.885   6.384   2.190  0.3329  0.5571  0.3511
12563TIP3    H159104   5.802   6.350   2.225 -0.0676  0.3874 -0.7210
12563TIP3    H259105   5.946   6.378   2.263 -0.2512 -0.5916  0.7714
12564TIP3   OH259106   2.040   4.446   3.103 -0.3764 -0.1356  0.2210
12564TIP3    H159107   2.096   4.371   3.083  0.0507  0.8717 -2.7174
12564TIP3    H259108   1.954   4.421   3.068 -1.1491 -0.5238  2.2212
12565TIP3   OH259109   1.695   6.050   3.484  0.9536 -0.1476  0.2982
12565TIP3    H159110   1.738   6.135   3.470 -0.6926  0.4717 -1.3772
12565TIP3    H259111   1.628   6.069   3.551  0.7967 -0.2029  0.1561
12566TIP3   OH259112   3.046   0.599  11.294 -0.2770 -0.3799 -0.1374
12566TIP3    H159113   3.077   0.522  11.247 -1.5956  0.0463 -1.7888
12566TIP3    H259114   2.954   0.609  11.267 -0.1325  1.8010 -0.0395
12567TIP3   OH259115   3.756   4.624   2.281  0.1250  0.3698  0.0334
12567TIP3    H159116   3.745   4.716   2.259 -1.6058  0.2437  0.2176
12567TIP3    H259117   3.829   4.622   2.343 -0.3405  1.7143  0.6527
12568TIP3   OH259118   6.090   1.242  12.180  0.0864 -0.6193  0.4013
12568TIP3    H159119   6.153   1.205  12.243  0.7215 -1.3297 -0.6163
12568TIP3    H259120   6.072   1.329  12.213  2.3460 -0.0263  0.2617
12569TIP3   OH259121   6.001   4.028  11.384  0.2417 -0.1282  0.1342
12569TIP3    H159122   6.095   4.011  11.385  0.2304 -0.1702  0.3465
12569TIP3    H259123   5.962   3.951  11.426  0.1583  0.2126  0.6782
12570TIP3   OH259124   2.709   3.208   1.201 -0.0619  0.4521  0.2763
12570TIP3    H159125   2.777   3.276   1.200 -0.4443  0.8478  0.8705
12570TIP3    H259126   2.746   3.138   1.254  1.7502 -1.3286 -2.9978
12571TIP3   OH259127   0.773   6.533   2.538 -0.3602 -0.7624 -0.1241
12571TIP3    H159128   0.772   6.605   2.602  0.9461 -1.3380  0.5989
12571TIP3    H259129   0.717   6.466   2.577  1.7732 -1.8037  1.3461
12572TIP3   OH259130   6.052   2.723   5.557  0.1212  0.4411 -0.1634
12572TIP3    H159131   6.035   2.801   5.504  2.0480 -0.0859 -1.6849
12572TIP3    H259132   6.087   2.659   5.494  0.2230 -1.0468  1.3556
12573TIP3   OH259133   1.002   6.699   3.135 -0.1937  0.2435  0.0747
12573TIP3    H159134   1.034   6.621   3.181  1.3972  0.4514 -0.6023
12573TIP3    H259135   1.067   6.766   3.157 -1.3058  1.2740  0.2970
12574TIP3   OH259136   1.936   3.376  10.668  0.2781  0.1968 -0.2764
12574TIP3    H159137   1.918   3.469  10.657  0.3857  0.3543  0.7670
12574TIP3    H259138   1.929   3.361  10.762  6.0370  0.4418  0.5451
12575TIP3   OH259139   0.084   4.270  12.879 -0.3224 -0.1750  0.1431
12575TIP3    H159140   0.006   4.244  12.831 -0.5086 -0.3329  0.5249
12575TIP3    H259141   0.117   4.189  12.916 -0.4701  0.0143  0.7004
12576TIP3   OH259142   1.668   4.925  14.383  0.1585 -0.2988  0.1184
12576TIP3    H159143   1.745   4.869  14.392  1.0946  1.1123  1.2680
12576TIP3    H259144   1.699   5.003  14.338 -1.1628 -0.6994 -1.5961
12577TIP3   OH259145   0.920   3.986  12.163  0.2843 -0.1020 -0.2316
12577TIP3    H159146   1.015   3.980  12.171  0.3748  1.8766  0.8619
12577TIP3    H259147   0.905   4.068  12.117 -0.9010 -0.4439 -0.4779
12578TIP3   OH259148   1.468   6.580  15.116 -0.2659  0.5868  0.2559
12578TIP3    H159149   1.443   6.594  15.208 -1.7837 -1.2550  0.1880
12578TIP3    H259150   1.475   6.669  15.080  1.7560  1.4192  2.4430
12579TIP3   OH259151   6.308   2.058   1.315 -0.3902  0.5232  0.1116
12579TIP3    H159152   6.257   1.978   1.315 -0.4496  0.3835 -3.4650
12579TIP3    H259153   6.248   2.125   1.283  0.5092  1.2629 -0.0930
12580TIP3   OH259154   0.526   4.716  11.896  0.4642  0.2501  0.6668
12580TIP3    H159155   0.515   4.638  11.951 -1.1539  0.3844  0.5891
12580TIP3    H259156   0.614   4.707  11.859  1.3257 -0.1891  2.6948
12581TIP3   OH259157   0.420   1.117   0.436 -0.6599 -0.0822  0.1227
12581TIP3    H159158   0.388   1.099   0.347  0.9706 -0.7857 -0.3527
12581TIP3    H259159   0.340   1.134   0.486 -1.7818 -1.4888 -1.0629
12582TIP3   OH259160   4.042   5.318  10.565 -0.6661 -0.2381  0.2361
12582TIP3    H159161   4.099   5.290  10.493 -2.7455  0.9247 -2.0504
12582TIP3    H259162   4.014   5.237  10.607  0.8834 -0.9359 -0.0042
12583TIP3   OH259163   2.818   0.679  12.522  0.6397 -0.4932 -0.4790
12583TIP3    H159164   2.874   0.756  12.533  0.6659 -0.5825  0.0413
12583TIP3    H259165   2.825   0.632  12.605  0.1023 -0.7094 -0.5502
12584TIP3   OH259166   1.032   4.155   0.556  0.1425  0.1077  0.5590
12584TIP3    H159167   1.039   4.215   0.481 -0.3327  0.8565  1.0921
12584TIP3    H259168   1.066   4.072   0.524 -1.1188  0.0888 -0.8442
12585TIP3   OH259169   6.198   0.500   0.386  0.0094  0.1842 -0.8165
12585TIP3    H159170   6.115   0.481   0.429 -0.4180 -0.1466 -1.7633
12585TIP3    H259171   6.220   0.589   0.415 -0.2876 -0.0063  0.0196
12586TIP3   OH259172   6.249   2.701  13.022 -0.4712 -0.6012 -0.0393
12586TIP3    H159173   6.278   2.643  12.951  0.2600 -0.9224  0.5248
12586TIP3    H259174   6.278   2.788  12.995  0.1702 -0.7829  0.0634
12587TIP3   OH259175   2.408   4.116  16.422 -0.6470 -0.1324  0.3534
12587TIP3    H159176   2.432   4.164  16.501 -2.4754  1.1216  0.1897
12587TIP3    H259177   2.473   4.143  16.357 -1.6316  2.2252  0.2567
12588TIP3   OH259178   2.239   6.682  13.318  0.2279 -0.2934  0.3375
12588TIP3    H159179   2.168   6.617  13.321 -0.0232 -0.0744  4.5437
12588TIP3    H259180   2.310   6.637  13.273 -1.5814 -1.5146 -1.5186
12589TIP3   OH259181   5.225   2.613  16.741  0.6192 -0.6084 -0.4505
12589TIP3    H159182   5.204   2.685  16.799  2.3659 -1.0811  0.8316
12589TIP3    H259183   5.287   2.649  16.678  2.4305 -1.2115  0.9147
12590TIP3   OH259184   0.498   2.502   0.324 -0.0532  0.2313 -0.6115
12590TIP3    H159185   0.429   2.565   0.301 -0.7788 -0.5208 -0.5761
12590TIP3    H259186   0.464   2.458   0.402  0.1902 -0.5719 -0.9513
12591TIP3   OH259187   2.826   4.452   3.748 -0.2692 -0.3787  0.0283
12591TIP3    H159188   2.772   4.411   3.816  0.4566 -0.4340  0.5858
12591TIP3    H259189   2.842   4.541   3.781 -1.2217  0.1327 -0.8250
12592TIP3   OH259190   5.968   0.921   6.008 -0.3390  0.4207  0.1546
12592TIP3    H159191   5.925   0.945   6.090 -1.2031  0.7521 -0.3834
12592TIP3    H259192   6.060   0.945   6.021 -0.5234  0.7312  0.9244
12593TIP3   OH259193   5.622   0.633   5.442 -0.2206 -0.2236  0.1463
12593TIP3    H159194   5.621   0.672   5.354 -0.5641 -2.0235 -0.7096
12593TIP3    H259195   5.561   0.559   5.435  1.0745 -1.4547  1.3850
12594TIP3   OH259196   0.472   4.326   3.906 -0.1601 -0.3504  0.2376
12594TIP3    H159197   0.453   4.310   3.814 -1.7526 -1.1792  0.6743
12594TIP3    H259198   0.506   4.416   3.909  3.1967 -1.3968 -1.5402
12595TIP3   OH259199   4.955   1.795  12.263  0.2603 -0.1598 -0.3688
12595TIP3    H159200   4.909   1.838  12.191 -1.0739  0.5390  0.8567
12595TIP3    H259201   4.899   1.720  12.286 -0.0839  0.4491  0.8595
12596TIP3   OH259202   4.053   3.574   2.256  0.5939 -0.1146  0.6212
12596TIP3    H159203   4.077   3.562   2.164 -0.5439 -0.9512  0.4081
12596TIP3    H259204   3.987   3.644   2.255 -0.6935 -1.2767  0.5542
12597TIP3   OH259205   5.266   5.815  12.681  0.2222  0.9097  0.0821
12597TIP3    H159206   5.221   5.854  12.757 -0.2014  0.8736 -0.1460
12597TIP3    H259207   5.239   5.870  12.607 -0.5591  0.0665 -0.2840
12598TIP3   OH259208   0.197   2.491  15.006  0.0750  0.9913  0.6254
12598TIP3    H159209   0.135   2.562  15.025  1.4204  2.3423  0.2034
12598TIP3    H259210   0.262   2.531  14.949  0.2139 -0.9517 -0.6633
12599TIP3   OH259211   5.909   2.345  15.518 -0.1192  0.1405 -0.1897
12599TIP3    H159212   5.814   2.335  15.531 -0.2158  0.5372 -0.5726
12599TIP3    H259213   5.928   2.293  15.440 -0.0848  0.3663 -0.3305
12600TIP3   OH259214   2.958   4.178   5.069  0.6878  0.4547  0.1809
12600TIP3    H159215   3.030   4.119   5.093 -0.2622 -1.1167 -0.6367
12600TIP3    H259216   2.896   4.121   5.023 -1.0222  1.7970  0.7506
12601TIP3   OH259217   2.501   3.576  16.521  0.0218  0.0641  0.2776
12601TIP3    H159218   2.477   3.661  16.558  2.1533  1.1244 -0.6577
12601TIP3    H259219   2.588   3.558  16.555  0.2959 -0.9465 -0.8837
12602TIP3   OH259220   5.076   4.479   2.489  0.6852  0.1737  0.3393
12602TIP3    H159221   5.010   4.447   2.426  1.3587  0.2582 -0.4260
12602TIP3    H259222   5.086   4.572   2.469  1.0715  0.1512  0.4238
12603TIP3   OH259223   4.805   4.677   3.853  0.0903 -0.1671  0.3441
12603TIP3    H159224   4.733   4.667   3.790  0.1876 -0.2162  0.2390
12603TIP3    H259225   4.884   4.667   3.800  0.2000  1.0295  0.2527
12604TIP3   OH259226   1.845   5.574   1.493 -0.1586  0.3800  0.2126
12604TIP3    H159227   1.887   5.503   1.542 -2.3971 -0.1434  1.5023
12604TIP3    H259228   1.906   5.647   1.500  2.1734 -1.2953 -1.0468
12605TIP3   OH259229   0.697   6.182   4.954  0.1823 -0.1134 -0.0061
12605TIP3    H159230   0.615   6.133   4.959 -1.0031  1.6820 -0.8036
12605TIP3    H259231   0.717   6.186   4.861 -0.2656  1.6784 -0.0567
12606TIP3   OH259232   2.116   5.918  15.635  0.3509  0.2281  0.1570
12606TIP3    H159233   2.099   5.960  15.551  2.3261 -1.2298 -1.0461
12606TIP3    H259234   2.035   5.930  15.685 -0.3750  2.3397 -1.4034
12607TIP3   OH259235   2.075   3.457  14.530  0.4995  0.0602  0.4091
12607TIP3    H159236   2.066   3.390  14.597  0.1456 -1.7124 -1.3385
12607TIP3    H259237   1.998   3.446  14.474  0.4479  1.9289  0.0268
12608TIP3   OH259238   3.238   2.515  12.261 -0.5378  0.2342  0.0792
12608TIP3    H159239   3.181   2.439  12.280 -2.0863  0.9114 -1.5708
12608TIP3    H259240   3.327   2.479  12.263 -1.2081 -1.5955 -0.4378
12609TIP3   OH259241   5.992   2.402   4.156 -0.7262 -0.5578  0.3188
12609TIP3    H159242   6.085   2.379   4.151 -0.4950  0.5857 -2.5497
12609TIP3    H259243   5.990   2.488   4.196 -0.4267 -0.2135 -0.3791
12610TIP3   OH259244   1.751   4.444   4.210 -0.2594  0.0486 -0.2679
12610TIP3    H159245   1.722   4.370   4.264  1.9771 -0.0589  0.9190
12610TIP3    H259246   1.807   4.495   4.268 -1.5566  2.6091 -1.1293
12611TIP3   OH259247   1.032   0.724  17.370  0.5085  0.1084 -0.6132
12611TIP3    H159248   1.073   0.741  17.285 -0.5816 -1.0112 -1.4027
12611TIP3    H259249   0.955   0.781  17.371 -0.4095 -1.0485 -1.1518
12612TIP3   OH259250   2.956   1.470  14.426  0.4223  0.0957 -0.0424
12612TIP3    H159251   2.998   1.385  14.430  0.8637  0.3098 -0.1071
12612TIP3    H259252   3.027   1.533  14.439  0.3390  0.4938 -1.3648
12613TIP3   OH259253   2.468   5.130  10.800 -0.3547  0.2615  0.2672
12613TIP3    H159254   2.493   5.215  10.764 -0.1537 -0.5000 -1.5169
12613TIP3    H259255   2.533   5.069  10.764 -1.7878 -0.9734 -0.3412
12614TIP3   OH259256   6.710   5.494  17.381 -0.1571 -0.6103  0.2629
12614TIP3    H159257   6.684   5.409  17.346 -0.1684 -1.1252  1.4515
12614TIP3    H259258   6.630   5.547  17.378 -0.1882 -0.6854 -0.3350
12615TIP3   OH259259   2.147   5.912   0.613 -0.3966 -0.3503  0.3849
12615TIP3    H159260   2.154   5.997   0.568 -0.1250 -0.3984  0.3343
12615TIP3    H259261   2.061   5.879   0.588 -0.9538  0.3881  1.2374
12616TIP3   OH259262   3.422   0.552   4.988 -0.3708 -0.1654  0.1209
12616TIP3    H159263   3.427   0.478   4.929  1.6041  0.0263  0.0014
12616TIP3    H259264   3.390   0.515   5.071  0.0611 -1.0449 -0.1023
12617TIP3   OH259265   4.819   4.454   2.659 -0.5776 -0.1781 -0.3777
12617TIP3    H159266   4.727   4.480   2.650  0.0546  1.7609 -2.5126
12617TIP3    H259267   4.864   4.504   2.590  2.2625 -0.1626  1.3463
12618TIP3   OH259268   0.906   6.193   5.757 -0.0375  0.1553 -0.1251
12618TIP3    H159269   0.941   6.270   5.800 -0.8298  0.0766  0.6887
12618TIP3    H259270   0.841   6.159   5.818  0.1865 -1.0674 -0.5441
12619TIP3   OH259271   6.220   3.571  14.513 -0.4749 -0.0704  0.6604
12619TIP3    H159272   6.130   3.547  14.534  0.2240 -1.9469  1.7550
12619TIP3    H259273   6.267   3.487  14.510  1.3065  0.8866  0.4438
12620TIP3   OH259274   6.429   1.316  16.739 -0.4030  0.2487 -0.2448
12620TIP3    H159275   6.427   1.371  16.661  1.0351 -2.2873 -2.2383
12620TIP3    H259276   6.347   1.268  16.737  0.1261 -0.6489 -0.8852
12621TIP3   OH259277   6.279   0.015  17.253 -0.5762 -0.1021 -0.1193
12621TIP3    H159278   6.247  -0.053  17.193  0.0002 -0.5132  0.0300
12621TIP3    H259279   6.362   0.043  17.214 -1.9183  2.2623 -1.5140
12622TIP3   OH259280   2.796   2.373   2.967  0.2665  0.1705  0.6240
12622TIP3    H159281   2.740   2.446   2.938  2.2055  1.1186 -0.9008
12622TIP3    H259282   2.772   2.300   2.910  0.6962  0.6224 -0.1442
12623TIP3   OH259283   0.920   6.245  17.248 -0.5883  0.4942  0.4024
12623TIP3    H159284   0.863   6.170  17.231 -1.3759  1.5505 -1.9840
12623TIP3    H259285   1.003   6.206  17.275 -1.8216 -1.1182  2.2103
12624TIP3   OH259286   6.451   2.459   0.558  0.8157  0.0281 -0.2379
12624TIP3    H159287   6.468   2.466   0.652 -0.9975 -2.4179  0.3846
12624TIP3    H259288   6.387   2.388   0.551  2.5979 -1.4643 -3.5261
12625TIP3   OH259289   4.375   1.511   4.554 -0.1262  0.2641 -0.2691
12625TIP3    H159290   4.357   1.535   4.463  0.6099  0.2734 -0.4224
12625TIP3    H259291   4.430   1.433   4.548  0.1794  0.4410  0.1558
12626TIP3   OH259292   4.420   0.849   2.871 -0.1638  0.0812 -0.2235
12626TIP3    H159293   4.350   0.901   2.911  0.3218 -0.5493  1.5376
12626TIP3    H259294   4.381   0.764   2.854  0.1392 -0.2574  0.7207
12627TIP3   OH259295   1.334   6.609   0.310  0.1371  0.1060  0.2694
12627TIP3    H159296   1.274   6.554   0.361  2.1207 -1.4547  1.0410
12627TIP3    H259297   1.403   6.633   0.372  0.9985  0.7653 -0.9137
12628TIP3   OH259298   1.855   5.921  12.851 -0.0931 -0.1192 -0.2317
12628TIP3    H159299   1.887   5.998  12.804 -1.0962 -0.6266 -1.8177
12628TIP3    H259300   1.917   5.852  12.828 -2.0303 -1.0710 -3.2052
12629TIP3   OH259301   4.542   1.225  16.718 -0.2645 -0.4770  0.2627
12629TIP3    H159302   4.533   1.318  16.699  1.9759 -0.6344 -2.1068
12629TIP3    H259303   4.452   1.193  16.725 -1.0907  1.9889  2.1802
12630TIP3   OH259304   6.379   6.629  14.778 -0.7818 -0.5401  0.1484
12630TIP3    H159305   6.463   6.630  14.734 -0.0239  0.5097  1.5311
12630TIP3    H259306   6.390   6.689  14.852 -1.0186 -4.2115  3.4932
12631TIP3   OH259307   5.026   0.224   6.700 -0.6862  0.3096  0.1146
12631TIP3    H159308   5.102   0.208   6.758 -1.2796  1.4731  1.2708
12631TIP3    H259309   5.057   0.198   6.613  0.2633 -1.4539  0.9264
12632TIP3   OH259310   4.748   2.962   0.665  0.0076 -0.5478 -0.0292
12632TIP3    H159311   4.724   3.047   0.629 -0.5879 -0.5237  0.3964
12632TIP3    H259312   4.664   2.919   0.681  0.3152 -2.1348 -2.3512
12633TIP3   OH259313   1.401   1.589   0.722  0.0256  0.3334  0.0789
12633TIP3    H159314   1.369   1.523   0.783 -2.6912 -1.0706 -2.5683
12633TIP3    H259315   1.327   1.647   0.707  0.0902 -0.1479 -2.7364
12634TIP3   OH259316   3.433   1.994  14.511 -0.0206 -0.4603 -0.3542
12634TIP3    H159317   3.479   2.054  14.570 -0.6486 -0.0374 -0.2801
12634TIP3    H259318   3.502   1.959  14.454  0.4931 -0.3822  0.2078
12635TIP3   OH259319   1.781   1.304  16.439  0.2530 -0.3438  0.3448
12635TIP3    H159320   1.739   1.373  16.490 -1.5254 -0.4031 -0.9801
12635TIP3    H259321   1.722   1.229  16.447 -0.1264 -0.3327 -1.8356
12636TIP3   OH259322   5.469   1.480  16.804 -0.1047 -0.5509  0.2642
12636TIP3    H159323   5.407   1.450  16.737 -0.3394 -0.7716  0.5787
12636TIP3    H259324   5.413   1.515  16.874  0.1279 -0.6918  0.5213
12637TIP3   OH259325   0.699   2.700  14.929 -0.4248 -0.3804 -0.1618
12637TIP3    H159326   0.757   2.641  14.976 -0.4287 -0.9602 -0.8666
12637TIP3    H259327   0.710   2.676  14.837 -0.6103  0.5517 -0.4398
12638TIP3   OH259328   4.869   3.409  12.463  0.1085  0.3654 -0.1414
12638TIP3    H159329   4.910   3.472  12.522  0.5481 -0.5607  0.5775
12638TIP3    H259330   4.917   3.327  12.479 -0.2751 -0.0897 -1.2346
12639TIP3   OH259331   5.398   2.349  12.840 -0.6201  0.3311  0.1138
12639TIP3    H159332   5.475   2.406  12.836 -0.8444  0.6033 -0.4540
12639TIP3    H259333   5.351   2.377  12.919  0.2228 -0.3190  0.8726
12640TIP3   OH259334   1.738   3.024  11.524 -0.6299  0.8072 -0.3157
12640TIP3    H159335   1.660   2.968  11.518 -0.9007  1.1581 -0.1636
12640TIP3    H259336   1.778   3.019  11.438 -0.0027 -0.5372  0.0347
12641TIP3   OH259337   0.588   5.328   4.808  0.1277 -0.5015 -0.0892
12641TIP3    H159338   0.576   5.413   4.850  1.0294 -0.2707 -0.2853
12641TIP3    H259339   0.556   5.265   4.873 -1.9408  0.0316 -0.5073
12642TIP3   OH259340   3.301   4.838  13.068 -0.5521 -0.2780  0.5181
12642TIP3    H159341   3.253   4.775  13.122 -1.6345  0.8738  0.9384
12642TIP3    H259342   3.388   4.842  13.109 -0.3136 -1.7725  0.2364
12643TIP3   OH259343   4.457   3.298  13.470  0.0009  0.0709 -0.0583
12643TIP3    H159344   4.417   3.283  13.556 -0.3684  0.8677 -0.0860
12643TIP3    H259345   4.389   3.278  13.407  0.1703 -0.1945 -0.1578
12644TIP3   OH259346   6.286   4.914   4.854 -0.0932  0.1965 -0.3952
12644TIP3    H159347   6.319   4.830   4.885  0.4570  0.0452 -1.3485
12644TIP3    H259348   6.191   4.903   4.849  0.0406 -0.6484 -1.3073
12645TIP3   OH259349   3.882   5.060  16.095 -0.0187 -0.1483 -0.2719
12645TIP3    H159350   3.861   5.085  16.005 -0.3462 -0.9260 -0.4241
12645TIP3    H259351   3.817   5.106  16.149 -1.0344 -1.1365 -0.5989
12646TIP3   OH259352   1.958   0.661   2.627  0.5166  0.2147 -0.0478
12646TIP3    H159353   1.884   0.637   2.682  0.5025  1.1578  0.3612
12646TIP3    H259354   2.035   0.643   2.680  0.5501  0.0728 -0.1429
12647TIP3   OH259355   0.997   5.353   4.783  0.0988 -0.0433 -0.4387
12647TIP3    H159356   0.957   5.310   4.707  1.6191 -0.8188 -0.8420
12647TIP3    H259357   1.084   5.380   4.751  1.0941 -1.1149  1.2243
12648TIP3   OH259358   3.861   3.934  14.532  0.5564  0.5147  0.1689
12648TIP3    H159359   3.820   3.966  14.612  1.6869 -1.7457  1.7763
12648TIP3    H259360   3.873   4.012  14.477 -1.9364  1.8649  1.3647
12649TIP3   OH259361   3.319   1.567  16.120  0.0475 -0.7034 -0.0477
12649TIP3    H159362   3.230   1.530  16.122  0.1723 -0.9820  1.7693
12649TIP3    H259363   3.318   1.627  16.045 -1.6801 -0.6828 -0.0518
12650TIP3   OH259364   1.419   3.378  13.995 -0.4483 -0.7033 -0.0627
12650TIP3    H159365   1.485   3.408  14.057  1.0091 -0.4838 -1.6305
12650TIP3    H259366   1.335   3.404  14.033  0.4643  0.3916  1.2565
12651TIP3   OH259367   0.892   1.748  15.025 -0.2709 -0.2444 -0.1006
12651TIP3    H159368   0.959   1.792  14.972  1.5807 -1.1618  1.3589
12651TIP3    H259369   0.873   1.811  15.095  0.5931 -0.7642  0.6215
12652TIP3   OH259370   1.591   2.691   5.602 -0.7932  0.3126 -1.3171
12652TIP3    H159371   1.523   2.754   5.626  0.5328  0.8944  1.2602
12652TIP3    H259372   1.671   2.742   5.594 -0.0574 -0.7667 -1.1469
12653TIP3   OH259373   6.414   4.043  17.387 -0.5173  0.1866  0.0026
12653TIP3    H159374   6.427   4.099  17.464  3.5815 -0.5712  0.1017
12653TIP3    H259375   6.478   4.075  17.323 -0.7714 -1.9477 -1.4247
12654TIP3   OH259376   3.232   2.933   1.909 -0.2850  0.4452 -0.2409
12654TIP3    H159377   3.225   2.859   1.849  2.1701  0.9911 -1.3060
12654TIP3    H259378   3.143   2.967   1.915 -0.9629 -0.8805 -1.9301
12655TIP3   OH259379   4.596   6.511  14.181 -0.2332  0.0251 -0.0480
12655TIP3    H159380   4.590   6.574  14.252  1.8162  0.7540 -0.4719
12655TIP3    H259381   4.677   6.532  14.136  0.0131 -2.2796 -0.8293
12656TIP3   OH259382   0.946   2.127  16.391 -0.3551  0.3590 -0.1816
12656TIP3    H159383   0.876   2.120  16.326  0.3782  1.4178 -1.1120
12656TIP3    H259384   0.966   2.036  16.414 -1.4637  0.0157 -0.5102
12657TIP3   OH259385   5.615   5.618   5.495 -0.0329 -0.0567  0.3608
12657TIP3    H159386   5.620   5.696   5.441  0.1509 -0.0379  0.4018
12657TIP3    H259387   5.693   5.568   5.473  1.0847  0.8643  1.9845
12658TIP3   OH259388   1.892   3.080   2.617  0.4956  0.2804 -0.2862
12658TIP3    H159389   1.933   2.995   2.632  0.8077  0.5249  0.2569
12658TIP3    H259390   1.963   3.143   2.623  0.1920  0.6246 -0.2349
12659TIP3   OH259391   6.172   5.651   3.549 -0.1028 -0.5049  0.4427
12659TIP3    H159392   6.209   5.571   3.511  1.9730 -0.0933  1.4607
12659TIP3    H259393   6.077   5.640   3.539  0.2271 -1.1161 -3.2977
12660TIP3   OH259394   0.061   2.252  10.537  0.3406 -0.5729  0.3064
12660TIP3    H159395   0.147   2.293  10.528 -0.4554  0.6058 -3.8107
12660TIP3    H259396   0.074   2.161  10.509  0.0367 -0.0078 -1.7586
12661TIP3   OH259397   0.846   0.961  10.644  0.2684  0.3650 -0.1025
12661TIP3    H159398   0.916   0.897  10.657  0.5425  0.5559 -0.6232
12661TIP3    H259399   0.833   0.964  10.549 -0.5895  0.1769  0.0039
12662TIP3   OH259400   5.494   6.444   4.722 -0.2312  0.4124 -0.2609
12662TIP3    H159401   5.460   6.376   4.780  0.1994 -0.6747 -1.2359
12662TIP3    H259402   5.537   6.506   4.781 -1.3627  0.3038  0.7240
12663TIP3   OH259403   1.456   0.595  15.202 -0.2768 -0.2356  0.1196
12663TIP3    H159404   1.460   0.505  15.232 -1.8145 -0.2575  0.2984
12663TIP3    H259405   1.511   0.596  15.123  2.4872 -0.5327  1.8777
12664TIP3   OH259406   0.550   0.777  11.406 -0.0328 -0.1203  0.2643
12664TIP3    H159407   0.603   0.810  11.333 -0.1844  1.9422  1.0039
12664TIP3    H259408   0.460   0.783  11.375 -0.0956  0.7328  0.5817
12665TIP3   OH259409   2.984   3.636  17.163  0.3892 -0.0315  0.1897
12665TIP3    H159410   2.965   3.692  17.088  1.6209 -0.8417 -0.7757
12665TIP3    H259411   2.901   3.631  17.211 -0.2550  1.0174 -0.7639
12666TIP3   OH259412   1.690   4.255  11.341  0.3360 -0.0638  0.2615
12666TIP3    H159413   1.640   4.302  11.276  1.3741  0.9881  0.1972
12666TIP3    H259414   1.672   4.162  11.323 -1.2566  0.2717  0.0194
12667TIP3   OH259415   0.507   3.303   3.236  0.1805  0.2847 -0.3069
12667TIP3    H159416   0.553   3.262   3.163  2.2404 -1.3318  1.7699
12667TIP3    H259417   0.509   3.238   3.306 -1.5304  1.8398  1.2947
12668TIP3   OH259418   6.472   1.096   2.219 -0.2176 -0.2763 -0.2845
12668TIP3    H159419   6.392   1.135   2.254  0.6171  0.6692  0.6365
12668TIP3    H259420   6.489   1.022   2.277  0.0475  0.0570  0.0700
12669TIP3   OH259421   5.610   4.973  16.428 -0.0138 -0.2369  0.2598
12669TIP3    H159422   5.605   5.056  16.381 -0.4218  0.0546  0.8076
12669TIP3    H259423   5.692   4.934  16.399 -0.4405 -0.2440 -0.9831
12670TIP3   OH259424   4.063   3.136   3.283 -0.7704 -0.3479 -0.3404
12670TIP3    H159425   4.122   3.062   3.297 -0.1333  0.4230  1.1826
12670TIP3    H259426   3.987   3.097   3.238  1.1390 -1.2373 -3.0557
12671TIP3   OH259427   6.729   3.728  10.569  0.7558  0.1093 -0.0033
12671TIP3    H159428   6.817   3.697  10.593 -0.1693 -2.0625  0.8316
12671TIP3    H259429   6.721   3.812  10.613  1.6514 -0.6524  1.7303
12672TIP3   OH259430   4.862   0.082  15.889  0.1496  0.7494  0.2027
12672TIP3    H159431   4.919   0.043  15.956 -0.4641 -1.4357 -0.4601
12672TIP3    H259432   4.915   0.085  15.810 -0.4909 -1.0687 -0.3542
12673TIP3   OH259433   0.039   5.153  12.778 -0.2725 -0.2827 -0.0934
12673TIP3    H159434  -0.054   5.138  12.795  0.0944 -1.8345  0.6802
12673TIP3    H259435   0.073   5.185  12.861 -0.1498  0.5346 -0.4513
12674TIP3   OH259436   2.653   3.333  16.806 -0.3033  0.0099  0.9785
12674TIP3    H159437   2.575   3.313  16.858 -1.3563  2.4710  0.5208
12674TIP3    H259438   2.716   3.368  16.869  0.3153 -1.6000  1.2876
12675TIP3   OH259439   4.159   1.877   1.547 -0.1833  0.2305 -0.1329
12675TIP3    H159440   4.231   1.930   1.513 -0.0430 -1.1895 -2.2784
12675TIP3    H259441   4.105   1.858   1.470 -1.4537 -0.8630  0.9648
12676TIP3   OH259442   2.473   2.387   4.882  0.4419  0.2866  0.2555
12676TIP3    H159443   2.384   2.366   4.911  0.5802 -1.5184 -0.4814
12676TIP3    H259444   2.505   2.306   4.844  1.9839  1.2495 -0.5975
12677TIP3   OH259445   2.851   0.806   5.576 -0.0523  0.4738 -0.0167
12677TIP3    H159446   2.873   0.761   5.495  1.3977  0.5928  0.2844
12677TIP3    H259447   2.814   0.890   5.548 -1.6744 -0.3879 -0.5588
12678TIP3   OH259448   3.421   3.866  13.992 -0.6339 -0.5512 -0.4216
12678TIP3    H159449   3.338   3.908  14.016  0.6129  1.0337  1.3890
12678TIP3    H259450   3.478   3.939  13.966  1.6991 -0.9044  3.0385
12679TIP3   OH259451   1.633   6.428   4.958  0.0568 -0.3442 -0.1023
12679TIP3    H159452   1.562   6.460   4.903  0.2979 -0.9748 -0.7856
12679TIP3    H259453   1.712   6.469   4.923 -0.2018  2.5236  2.3000
12680TIP3   OH259454   6.328   1.871   5.933  0.2812  0.4881  0.4068
12680TIP3    H159455   6.345   1.853   6.025 -0.0041 -0.2558  0.3211
12680TIP3    H259456   6.412   1.903   5.899  0.0458  1.9945  1.2043
12681TIP3   OH259457   0.168   6.153  12.184 -0.1527  0.2469  0.2145
12681TIP3    H159458   0.232   6.108  12.129  0.7194  1.4049  0.2408
12681TIP3    H259459   0.131   6.084  12.239 -0.0861 -0.7048 -0.8982
12682TIP3   OH259460   6.681   0.749   0.770  0.1745  0.0181 -0.1063
12682TIP3    H159461   6.690   0.756   0.675  1.0158 -1.0256 -0.1244
12682TIP3    H259462   6.643   0.662   0.785  0.0001  0.1913  0.5073
12683TIP3   OH259463   6.682   4.018   5.847  0.3288  0.2280  0.2183
12683TIP3    H159464   6.742   4.011   5.921  1.2500  2.7456 -0.1971
12683TIP3    H259465   6.737   3.997   5.771  0.4164  1.3726 -0.0546
12684TIP3   OH259466   2.914   2.506   5.925  0.8098 -0.6152 -0.4974
12684TIP3    H159467   2.897   2.542   6.012  1.0962 -0.1740 -0.6184
12684TIP3    H259468   2.839   2.534   5.873  2.5090  2.7193 -1.4470
12685TIP3   OH259469   5.022   2.419   1.546  0.3295 -0.2163  0.6554
12685TIP3    H159470   4.940   2.412   1.496  0.5287  0.3871  0.2244
12685TIP3    H259471   5.009   2.362   1.622 -0.1408 -0.8240  0.1258
12686TIP3   OH259472   5.408   3.681  15.975  0.3714  0.1343 -0.2731
12686TIP3    H159473   5.373   3.666  16.063  0.8027  0.1831 -0.0868
12686TIP3    H259474   5.501   3.701  15.990  0.0669  1.9527 -0.5864
12687TIP3   OH259475   5.100   0.035   5.426 -0.1464 -0.7670 -0.2388
12687TIP3    H159476   5.070  -0.002   5.343  1.3905 -0.5607 -0.9215
12687TIP3    H259477   5.024   0.081   5.461 -0.7084 -0.4988 -1.7523
12688TIP3   OH259478   6.538   6.026  17.145 -0.5550  0.1520  0.3675
12688TIP3    H159479   6.495   6.036  17.230  1.7113 -0.9109  1.7406
12688TIP3    H259480   6.529   5.933  17.124 -1.6877  0.5228 -0.9485
12689TIP3   OH259481   5.679   0.366   4.124  0.8627 -0.0438 -0.0485
12689TIP3    H159482   5.687   0.321   4.208  2.5304  1.1925  0.4977
12689TIP3    H259483   5.766   0.360   4.085  0.3117  0.0837 -1.3378
12690TIP3   OH259484   3.301   2.889  15.155  0.0616  0.0059  0.0550
12690TIP3    H159485   3.289   2.815  15.215 -0.8028 -1.5553 -1.9173
12690TIP3    H259486   3.213   2.906  15.121  0.4576  1.1109 -0.4473
12691TIP3   OH259487   1.831   0.849   2.102  0.2217 -0.6808 -0.4278
12691TIP3    H159488   1.857   0.812   2.186  0.6724 -0.6199 -0.5356
12691TIP3    H259489   1.878   0.933   2.098 -1.7995  0.5607  0.4068
12692TIP3   OH259490   3.554   0.457  11.653  0.0482 -0.5729  0.0501
12692TIP3    H159491   3.556   0.471  11.559  1.1914  0.9811  0.2738
12692TIP3    H259492   3.643   0.430  11.676 -0.4560 -1.8865  0.5825
12693TIP3   OH259493   2.404   1.551  15.058 -0.2218  0.0144  0.1985
12693TIP3    H159494   2.340   1.487  15.027 -1.8127  1.0058  1.2948
12693TIP3    H259495   2.385   1.631  15.008 -0.0286  0.3972  0.7287
12694TIP3   OH259496   4.640   6.280   5.054  0.1352 -0.1113 -0.2941
12694TIP3    H159497   4.549   6.288   5.024  0.1927  2.1320 -0.0547
12694TIP3    H259498   4.691   6.332   4.991  1.1606 -0.7367 -0.0088
12695TIP3   OH259499   6.661   2.263   0.531  0.0371  0.0509 -0.8605
12695TIP3    H159500   6.602   2.336   0.548  0.0998 -0.1121  0.1536
12695TIP3    H259501   6.628   2.193   0.587 -0.0865 -0.7411 -1.9021
12696TIP3   OH259502   2.373   4.201   2.912  0.3030  0.2010  0.2385
12696TIP3    H159503   2.347   4.155   2.992  0.2691 -0.6791 -0.2676
12696TIP3    H259504   2.369   4.134   2.844 -0.4134  1.1154 -0.6461
12697TIP3   OH259505   6.130   0.164  11.655 -0.0011 -0.6408  0.0133
12697TIP3    H159506   6.210   0.146  11.606  0.2990  4.3229 -1.9536
12697TIP3    H259507   6.159   0.216  11.730 -1.2002  1.2684 -0.7429
12698TIP3   OH259508   5.734   5.308   0.922 -0.6378  0.6192 -0.4541
12698TIP3    H159509   5.650   5.348   0.942 -0.6966  0.6687 -0.7861
12698TIP3    H259510   5.712   5.235   0.863 -0.9570 -2.1532  2.7612
12699TIP3   OH259511   3.399   2.930   5.950  0.0336 -0.0034 -0.4484
12699TIP3    H159512   3.470   2.973   5.902 -0.4107  2.1350  0.7005
12699TIP3    H259513   3.320   2.952   5.900  0.1110 -2.9368 -2.1090
12700TIP3   OH259514   2.306   3.807   0.936 -0.4144  0.4906  0.5945
12700TIP3    H159515   2.226   3.793   0.987 -0.1843 -0.4893  0.7001
12700TIP3    H259516   2.278   3.797   0.845 -0.3676 -0.1508  0.6432
12701TIP3   OH259517   0.459   1.130   5.649 -0.0191  0.5718  0.3294
12701TIP3    H159518   0.498   1.158   5.567  2.6664  0.1016  1.3129
12701TIP3    H259519   0.393   1.197   5.669  1.5666  2.5350 -0.6052
12702TIP3   OH259520   4.692   1.051   0.287  0.2449  0.7955  0.4861
12702TIP3    H159521   4.700   0.981   0.222  1.1195  0.8659  0.5020
12702TIP3    H259522   4.777   1.051   0.332  0.0281  1.4534  0.9057
12703TIP3   OH259523   1.760   3.297  17.256 -0.0916  0.1346  0.1974
12703TIP3    H159524   1.801   3.331  17.176 -0.0273 -0.9022 -0.2274
12703TIP3    H259525   1.707   3.223  17.226 -0.5633  0.1162  1.0407
12704TIP3   OH259526   4.386   6.022   4.151  0.0160  0.4401 -0.1533
12704TIP3    H159527   4.291   6.021   4.157  0.0636 -0.1585  0.6029
12704TIP3    H259528   4.409   6.114   4.146 -0.6997  0.5719 -2.2260
12705TIP3   OH259529   4.475   1.521   5.473  0.0621  0.0071  0.7905
12705TIP3    H159530   4.393   1.480   5.500 -0.1889 -0.6221 -0.7724
12705TIP3    H259531   4.543   1.460   5.503 -0.0841  0.1859  1.4930
12706TIP3   OH259532   2.902   3.423  11.288 -0.3588 -0.2966  0.1494
12706TIP3    H159533   2.849   3.430  11.209  0.2448  2.0431 -0.1050
12706TIP3    H259534   2.991   3.406  11.256  0.1878  2.2034  0.1473
12707TIP3   OH259535   6.529   4.770   0.604  0.5061  0.5287 -0.5943
12707TIP3    H159536   6.550   4.847   0.551 -1.1910  1.1049 -0.4956
12707TIP3    H259537   6.530   4.802   0.695  1.4234  0.0122 -0.3985
12708TIP3   OH259538   6.521   2.740   4.115 -0.6297  0.1940  0.0447
12708TIP3    H159539   6.505   2.803   4.044 -0.8120 -1.6292 -1.6067
12708TIP3    H259540   6.497   2.655   4.077  0.2652 -0.9711  1.9777
12709TIP3   OH259541   2.078   3.676   7.155 -0.0887  0.2598  0.3169
12709TIP3    H159542   2.123   3.672   7.070  0.1781 -1.5683  0.5161
12709TIP3    H259543   2.146   3.658   7.219 -0.9588 -2.3343  0.6357
12710TIP3   OH259544   4.850   1.229   6.701 -0.1072  0.4664  0.2232
12710TIP3    H159545   4.867   1.200   6.612 -1.4602 -0.3535  0.1994
12710TIP3    H259546   4.754   1.235   6.706 -0.0667  0.2790  1.6773
12711TIP3   OH259547   5.620   6.468  16.276 -0.2858 -0.3443  0.7763
12711TIP3    H159548   5.649   6.532  16.211 -0.8691 -1.2117 -0.4064
12711TIP3    H259549   5.525   6.480  16.280 -0.3151 -0.6611  1.0483
12712TIP3   OH259550   4.238   1.163  13.179 -0.5162  0.9104  0.0171
12712TIP3    H159551   4.156   1.208  13.159 -0.5538  0.0969 -1.9316
12712TIP3    H259552   4.290   1.226  13.227 -1.3374  2.3334 -0.8955
12713TIP3   OH259553   3.069   0.128  11.512 -0.1593 -0.0621  0.2076
12713TIP3    H159554   3.141   0.161  11.457 -1.9971  3.4813 -0.3973
12713TIP3    H259555   3.044   0.045  11.472  2.6679 -0.7600 -0.3389
12714TIP3   OH259556   3.778   0.807  12.158  0.1225 -0.1866 -0.0557
12714TIP3    H159557   3.800   0.801  12.251 -0.1193 -0.0770  0.0117
12714TIP3    H259558   3.861   0.798  12.112  0.1682 -0.8403  0.1528
12715TIP3   OH259559   2.823   1.933   0.111  0.1150  0.1426  0.7661
12715TIP3    H159560   2.832   1.989   0.034 -1.4613 -0.0931  0.3513
12715TIP3    H259561   2.729   1.934   0.129  0.0056 -2.4094  0.6786
12716TIP3   OH259562   5.157   3.176   0.172 -0.5150 -0.3995 -0.9094
12716TIP3    H159563   5.156   3.089   0.210 -2.1258 -1.6536 -3.5295
12716TIP3    H259564   5.241   3.182   0.126 -0.5250 -0.6980 -0.9657
12717TIP3   OH259565   3.739   1.098   2.241 -0.6807  0.0216 -0.2649
12717TIP3    H159566   3.726   1.160   2.313  1.5083 -0.6140  0.7358
12717TIP3    H259567   3.728   1.012   2.280 -1.0763 -0.3112 -1.0762
12718TIP3   OH259568   3.941   4.423   5.696 -0.4007  0.5024 -0.5623
12718TIP3    H159569   3.979   4.403   5.610 -0.2261 -1.5903 -0.0423
12718TIP3    H259570   3.929   4.338   5.737  1.6425  1.4858  2.4215
12719TIP3   OH259571   3.597   1.520  14.284  0.0702  0.1738  0.0796
12719TIP3    H159572   3.639   1.593  14.239  2.3553 -1.1437 -0.0865
12719TIP3    H259573   3.626   1.442  14.236  0.0210 -1.0593  1.9299
12720TIP3   OH259574   4.975   5.564  13.638 -0.2236 -0.1887 -0.9685
12720TIP3    H159575   4.904   5.502  13.653  0.1619 -0.4343 -0.0906
12720TIP3    H259576   4.955   5.604  13.553 -1.3222 -0.3680 -0.8058
12721TIP3   OH259577   4.218   0.158  15.548 -0.1645 -0.1496  0.2364
12721TIP3    H159578   4.169   0.088  15.591  0.2059 -0.7629 -0.3109
12721TIP3    H259579   4.296   0.169  15.601 -1.2167  1.3945  1.5824
12722TIP3   OH259580   4.073   3.202  11.783 -0.4268 -0.4460 -0.2576
12722TIP3    H159581   4.006   3.258  11.821  1.3514  1.8796 -0.3540
12722TIP3    H259582   4.045   3.188  11.692 -0.9098  0.2944 -0.2253
12723TIP3   OH259583   5.192   4.606  11.879 -0.0507 -0.2062  0.1705
12723TIP3    H159584   5.147   4.649  11.952  0.4182  1.8147 -0.6617
12723TIP3    H259585   5.125   4.595  11.812 -0.0968 -0.4867  0.2616
12724TIP3   OH259586   2.772   3.889  11.891  0.2885 -0.1782 -0.4891
12724TIP3    H159587   2.697   3.831  11.902  0.9275 -0.8022  0.8427
12724TIP3    H259588   2.735   3.977  11.887 -0.5020 -0.4680  0.2908
12725TIP3   OH259589   2.230   4.857  13.868  0.4306 -0.2531 -0.0847
12725TIP3    H159590   2.312   4.851  13.918 -1.2619 -0.7740  2.8929
12725TIP3    H259591   2.206   4.950  13.874 -0.2748 -0.4909  1.0201
12726TIP3   OH259592   2.642   5.671   3.220 -0.3353 -0.2949  0.5445
12726TIP3    H159593   2.598   5.726   3.155  0.7416  0.5573  0.5140
12726TIP3    H259594   2.576   5.605   3.243 -1.8377  1.2818  0.9616
12727TIP3   OH259595   2.950   6.004   1.059  0.4085  0.2319  0.2483
12727TIP3    H159596   2.894   5.941   1.013  1.0309 -0.0587 -0.1359
12727TIP3    H259597   2.937   5.985   1.151 -0.1963  0.2319  0.1647
12728TIP3   OH259598   3.748   6.495  12.827 -0.2003  0.3851 -0.1054
12728TIP3    H159599   3.777   6.544  12.904  0.3414 -0.5506  0.2960
12728TIP3    H259600   3.692   6.557  12.780 -0.4754  1.0047  0.9931
12729TIP3   OH259601   0.550   2.939  15.957 -0.4576  0.1582 -0.0647
12729TIP3    H159602   0.490   2.890  16.013 -0.7669 -0.8698 -1.2478
12729TIP3    H259603   0.632   2.942  16.006 -0.7867 -0.5347  0.5437
12730TIP3   OH259604   3.770   0.901  15.608 -0.5458  0.3819 -0.0196
12730TIP3    H159605   3.854   0.902  15.654 -0.8925  1.7912  0.6304
12730TIP3    H259606   3.766   0.815  15.567  1.1473  0.2422  0.0614
12731TIP3   OH259607   3.195   5.831   1.593  0.0610  0.0031  0.1963
12731TIP3    H159608   3.188   5.914   1.546  0.0803  0.4700  0.9924
12731TIP3    H259609   3.191   5.764   1.525  1.0347  0.6825 -0.5527
12732TIP3   OH259610   4.153   1.839   3.705 -0.4336 -0.4696  0.0595
12732TIP3    H159611   4.163   1.932   3.722  0.7924 -0.3512 -1.1144
12732TIP3    H259612   4.089   1.809   3.769  0.1249  0.9139  1.3057
12733TIP3   OH259613   4.179   1.748   4.002  0.4353  0.3652  0.2505
12733TIP3    H159614   4.199   1.745   4.095  1.4693 -0.2661  0.0178
12733TIP3    H259615   4.250   1.800   3.963 -0.6375  1.6861 -0.0401
12734TIP3   OH259616   4.410   2.333  13.595 -0.0843 -0.7391  0.7228
12734TIP3    H159617   4.425   2.408  13.651  0.0754 -0.3807  0.2023
12734TIP3    H259618   4.497   2.306  13.566 -0.0978 -1.4169  1.2780
12735TIP3   OH259619   2.160   1.643  15.710  0.0647  0.9255 -0.6209
12735TIP3    H159620   2.125   1.703  15.775 -0.7850  0.0139 -0.2106
12735TIP3    H259621   2.231   1.691  15.669  1.1409  1.2529  1.4952
12736TIP3   OH259622   5.600   2.911  14.129 -0.6237  0.2177  0.2716
12736TIP3    H159623   5.694   2.928  14.132 -0.5219 -0.2355 -0.1584
12736TIP3    H259624   5.566   2.945  14.212 -0.3583  1.9728 -0.2900
12737TIP3   OH259625   1.811   6.190  14.641  0.0157  0.2462  0.5905
12737TIP3    H159626   1.729   6.230  14.673 -0.1533 -0.3085  0.8598
12737TIP3    H259627   1.794   6.096  14.642  1.3025 -0.0426  2.5637
12738TIP3   OH259628   3.742   5.582   6.418 -0.5448  0.0337 -1.0919
12738TIP3    H159629   3.741   5.629   6.501 -0.8612 -1.5037 -0.1773
12738TIP3    H259630   3.651   5.560   6.401 -1.1331  3.5927 -3.9065
12739TIP3   OH259631   0.017   6.580   0.079  0.2231 -0.2569 -0.4231
12739TIP3    H159632  -0.071   6.587   0.116 -0.0325  1.0858 -1.2065
12739TIP3    H259633   0.009   6.513   0.011  0.2774 -1.4893  0.7663
12740TIP3   OH259634   4.345   1.200   5.251  0.5823 -0.8004 -0.1216
12740TIP3    H159635   4.318   1.226   5.339  1.1778 -0.6835  0.0312
12740TIP3    H259636   4.334   1.279   5.198  0.4062 -0.8181 -0.1123
12741TIP3   OH259637   1.851   5.535   2.260 -0.1533  0.0732  0.0527
12741TIP3    H159638   1.902   5.607   2.298  1.1176 -0.8388  0.1108
12741TIP3    H259639   1.863   5.545   2.165  0.0357 -0.0689  0.0614
12742TIP3   OH259640   0.165   1.538  17.190 -0.5026 -0.2408  0.1281
12742TIP3    H159641   0.216   1.483  17.130 -0.3719  0.3816 -0.3375
12742TIP3    H259642   0.116   1.597  17.133 -0.0437  0.6574  0.6432
12743TIP3   OH259643   4.894   3.865   2.290  0.4297 -0.5637  0.0450
12743TIP3    H159644   4.913   3.946   2.243  0.0165 -0.1975  0.4951
12743TIP3    H259645   4.805   3.877   2.324  0.6603 -0.8813  0.7810
12744TIP3   OH259646   4.537   0.480   3.484 -0.7209 -0.2920  0.8150
12744TIP3    H159647   4.568   0.423   3.554  0.1704 -0.8863 -0.0368
12744TIP3    H259648   4.599   0.467   3.413 -1.2457  0.7731  0.1308
12745TIP3   OH259649   5.044   4.503  16.550  0.1173  1.0873  0.3733
12745TIP3    H159650   5.054   4.542  16.463  0.8607  2.0969  0.8838
12745TIP3    H259651   5.063   4.575  16.610  0.5697  0.1687  1.3587
12746TIP3   OH259652   1.652   2.301  16.766  0.3913  0.4308  0.3707
12746TIP3    H159653   1.570   2.347  16.782  1.1177  1.1937  2.1072
12746TIP3    H259654   1.685   2.340  16.685  0.1419  1.7737  0.8823
12747TIP3   OH259655   3.677   1.766   1.605  0.1107 -0.1188 -0.2425
12747TIP3    H159656   3.708   1.856   1.592  1.5665 -0.4581  0.5829
12747TIP3    H259657   3.638   1.742   1.522  1.2787  0.6969 -1.0657
12748TIP3   OH259658   0.502   4.881  16.250 -0.5149 -0.5793  0.2423
12748TIP3    H159659   0.463   4.807  16.296 -1.2664  1.2509  2.8329
12748TIP3    H259660   0.428   4.939  16.232  0.2044  0.1198 -0.5186
12749TIP3   OH259661   5.662   5.988   0.952  0.6760 -0.2786  0.3020
12749TIP3    H159662   5.703   5.912   0.993 -1.5051 -0.8199  1.6241
12749TIP3    H259663   5.717   6.062   0.979  2.0549 -1.1932  0.1059
12750TIP3   OH259664   5.948   3.943  15.371 -0.2550 -0.6190 -0.0674
12750TIP3    H159665   5.894   3.969  15.297 -1.3621 -0.4536  0.7753
12750TIP3    H259666   6.035   3.929  15.333 -0.8424 -0.7782 -1.4360
12751TIP3   OH259667   4.061   1.166  17.311 -0.2175 -0.2421  0.2207
12751TIP3    H159668   4.110   1.215  17.377 -0.6199  1.9858 -1.0228
12751TIP3    H259669   3.989   1.225  17.287  0.6618 -0.3550 -3.1335
12752TIP3   OH259670   2.421   0.939   5.157  0.2851  0.7318 -0.4641
12752TIP3    H159671   2.451   0.860   5.113  0.1324  0.5888 -0.3133
12752TIP3    H259672   2.500   0.993   5.167  0.2977  0.8169 -1.0138
12753TIP3   OH259673   0.014   6.350   1.578 -0.4296  0.0162 -0.0686
12753TIP3    H159674   0.073   6.327   1.650  0.2459 -0.9135 -0.9046
12753TIP3    H259675  -0.072   6.320   1.609  0.1854 -2.4754 -0.5135
12754TIP3   OH259676   3.089   0.521   2.354  0.9477  0.0489 -0.6048
12754TIP3    H159677   3.170   0.489   2.395  0.5805 -0.6421 -0.4126
12754TIP3    H259678   3.112   0.609   2.323  1.5750  0.1346  0.0558
12755TIP3   OH259679   5.295   3.953  15.968  0.3006  0.0947  0.2326
12755TIP3    H159680   5.333   3.867  15.952 -1.6591 -0.9126  0.6982
12755TIP3    H259681   5.254   3.977  15.885 -2.5627 -1.2953  1.1176
12756TIP3   OH259682   6.504   2.999   2.939 -0.1352  0.8159 -0.0698
12756TIP3    H159683   6.590   3.038   2.955 -1.1748  3.4999 -0.5571
12756TIP3    H259684   6.522   2.927   2.879  1.7159  1.7268 -0.7002
12757TIP3   OH259685   4.827   6.444   6.026  0.6577 -0.2028 -0.6300
12757TIP3    H159686   4.911   6.481   6.054  0.0466  0.6972  0.0889
12757TIP3    H259687   4.771   6.521   6.011 -0.0199 -0.7821 -1.1686
12758TIP3   OH259688   4.986   2.776  13.958  0.0100  0.1459 -0.3078
12758TIP3    H159689   4.975   2.685  13.931  1.9589  0.1986 -1.4590
12758TIP3    H259690   4.933   2.785  14.038  0.6444 -2.2962  0.4597
12759TIP3   OH259691   5.873   4.120   3.892  0.3048 -0.0232  0.0823
12759TIP3    H159692   5.921   4.125   3.810 -0.6907 -1.3379 -0.6095
12759TIP3    H259693   5.931   4.072   3.951  0.8574  0.5852  0.0522
12760TIP3   OH259694   5.518   2.845   0.177 -0.0445  1.0180 -0.1434
12760TIP3    H159695   5.465   2.912   0.221 -0.8180  0.3638 -0.0546
12760TIP3    H259696   5.486   2.844   0.087 -0.7070  0.1155  0.0886
12761TIP3   OH259697   3.323   3.108  13.461 -0.2481  0.4028 -0.8554
12761TIP3    H159698   3.287   3.019  13.468  0.3255  0.2155 -0.1002
12761TIP3    H259699   3.246   3.163  13.447 -0.5709 -0.2503 -1.7101
12762TIP3   OH259700   4.821   6.248   3.688  0.4388  0.4616 -0.6566
12762TIP3    H159701   4.741   6.217   3.730  1.4906 -2.4897 -0.5648
12762TIP3    H259702   4.892   6.209   3.738  1.9310  1.7757 -1.6172
12763TIP3   OH259703   6.721   4.396  13.588  0.1748 -0.1063 -0.0810
12763TIP3    H159704   6.741   4.469  13.646  1.0584 -0.5070  0.1353
12763TIP3    H259705   6.678   4.436  13.512 -0.9482  0.4219  0.8103
12764TIP3   OH259706   4.965   3.835  15.939 -0.8410 -0.4375 -0.1580
12764TIP3    H159707   4.915   3.803  16.015 -1.2120 -0.3101 -0.3460
12764TIP3    H259708   5.056   3.836  15.969 -0.9932 -0.3257  0.3064
12765TIP3   OH259709   1.772   1.395   5.637  0.3060 -0.0870 -0.4856
12765TIP3    H159710   1.699   1.336   5.658  0.8903 -0.7586 -0.2903
12765TIP3    H259711   1.819   1.350   5.567  0.3074  0.5329 -0.8841
12766TIP3   OH259712   1.888   2.390  14.750  0.2287 -0.2792  0.4896
12766TIP3    H159713   1.905   2.455  14.818  0.2591 -0.5816  0.7708
12766TIP3    H259714   1.951   2.320  14.766 -1.8916 -1.9415  2.2249
12767TIP3   OH259715   1.902   2.822  11.946 -0.2368  0.0038  0.5301
12767TIP3    H159716   1.940   2.772  12.018 -0.2787  0.1191  0.6306
12767TIP3    H259717   1.826   2.770  11.918 -0.1739 -0.0812  0.5145
12768TIP3   OH259718   3.010   4.759   4.424 -0.5889  0.3952 -0.3888
12768TIP3    H159719   2.965   4.761   4.509 -2.4454 -1.4548 -1.2535
12768TIP3    H259720   2.945   4.791   4.362 -0.3227 -1.1104 -1.5041
12769TIP3   OH259721   4.077   5.697   2.341  0.2760  0.6234  0.4797
12769TIP3    H159722   4.169   5.722   2.356  0.6070 -0.0716 -0.2991
12769TIP3    H259723   4.058   5.728   2.253  0.1407 -0.3113  0.1773
12770TIP3   OH259724   4.516   0.471  11.640 -0.7175 -0.5331 -0.3015
12770TIP3    H159725   4.501   0.544  11.580 -0.9336 -1.2065 -1.0864
12770TIP3    H259726   4.611   0.462  11.643 -0.4851  1.6168  2.0855
12771TIP3   OH259727   1.835   1.610   6.302  0.2107  0.3648 -0.1543
12771TIP3    H159728   1.844   1.554   6.380 -0.4542  1.2054  0.5469
12771TIP3    H259729   1.875   1.693   6.328  0.9734  0.3169 -1.1045
12772TIP3   OH259730   3.034   2.647  13.256 -0.8535 -0.0583  0.1216
12772TIP3    H159731   3.106   2.659  13.195  0.2663  0.1146  1.4344
12772TIP3    H259732   3.076   2.635  13.341 -2.3578 -0.5337  0.8329
12773TIP3   OH259733   3.455   5.542   1.085  0.3085 -0.2465  0.1042
12773TIP3    H159734   3.433   5.521   1.176 -0.5256 -1.3035 -0.3086
12773TIP3    H259735   3.386   5.500   1.034  1.1684 -0.3099 -1.0577
12774TIP3   OH259736   1.051   1.033  16.378 -0.2716 -0.0143 -0.1639
12774TIP3    H159737   1.071   1.053  16.469 -0.1878 -1.9856  0.2898
12774TIP3    H259738   1.096   0.950  16.361 -0.9529 -0.0932 -1.7483
12775TIP3   OH259739   2.844   1.756   5.638  0.1217  0.1084  0.2767
12775TIP3    H159740   2.812   1.845   5.655 -2.4272 -0.6798 -0.0048
12775TIP3    H259741   2.825   1.741   5.546  1.9247 -0.2386 -0.0666
12776TIP3   OH259742   0.755   4.638   0.999  0.5815  0.6414  0.5092
12776TIP3    H159743   0.681   4.684   0.959  0.6907 -1.5933 -2.6937
12776TIP3    H259744   0.824   4.640   0.932  1.4907 -1.8420  1.2344
12777TIP3   OH259745   1.347   1.264  14.387  0.1153  0.1637 -0.0982
12777TIP3    H159746   1.373   1.284  14.477  0.0339  0.1630 -0.0738
12777TIP3    H259747   1.264   1.218  14.396 -0.3376  0.9433 -0.2122
12778TIP3   OH259748   3.130   1.076  13.882  0.3884  0.1872 -0.0170
12778TIP3    H159749   3.057   1.058  13.941  0.5675 -1.4557 -0.2477
12778TIP3    H259750   3.088   1.098  13.798  0.1627 -0.2064 -0.0057
12779TIP3   OH259751   3.284   0.203   2.717  0.3242  0.0999  0.1952
12779TIP3    H159752   3.195   0.222   2.745  0.5255  0.8286  0.3563
12779TIP3    H259753   3.329   0.288   2.721  1.4116 -0.4911  1.5440
12780TIP3   OH259754   1.048   3.511  10.620  0.3003  0.3059  0.0130
12780TIP3    H159755   1.101   3.484  10.546 -0.0192 -2.0805  0.5767
12780TIP3    H259756   1.010   3.595  10.593  1.2261  0.1376 -1.9678
12781TIP3   OH259757   5.967   1.907  16.626  0.5068  0.6067  0.4854
12781TIP3    H159758   5.967   1.961  16.548 -1.2714 -1.8748 -1.3836
12781TIP3    H259759   6.010   1.825  16.599 -0.3281 -0.3934  2.0167
12782TIP3   OH259760   4.279   0.982  16.549  0.1284 -0.5948 -0.2210
12782TIP3    H159761   4.280   1.046  16.620  2.0478  0.4834 -1.1295
12782TIP3    H259762   4.251   1.033  16.472 -0.0637 -1.2926 -0.6214
12783TIP3   OH259763   5.445   5.601   1.646  0.3420  0.1481 -0.0212
12783TIP3    H159764   5.402   5.686   1.657 -1.5088 -0.4914 -1.7017
12783TIP3    H259765   5.407   5.546   1.714 -1.0359 -0.2099 -1.0396
12784TIP3   OH259766   0.571   4.855  12.745  0.0617 -0.0480 -0.3418
12784TIP3    H159767   0.610   4.884  12.827  0.5751  0.9639 -0.9295
12784TIP3    H259768   0.521   4.776  12.769 -2.1506  1.7637  1.4958
12785TIP3   OH259769   5.113   4.611  15.287  0.2223  0.3215  0.3854
12785TIP3    H159770   5.095   4.639  15.377  0.4354 -0.4829  0.6869
12785TIP3    H259771   5.125   4.517  15.293 -0.4486  0.1474 -0.5978
12786TIP3   OH259772   2.887   5.164   1.055 -0.3787 -0.1751 -0.9851
12786TIP3    H159773   2.823   5.127   1.115  0.0281  0.7823  0.0851
12786TIP3    H259774   2.972   5.136   1.089 -0.1566  0.0816 -1.3167
12787TIP3   OH259775   5.372   6.417  17.368  0.1640  0.3374  0.1838
12787TIP3    H159776   5.460   6.450  17.347  0.4378 -0.6308 -0.2803
12787TIP3    H259777   5.344   6.374  17.287 -0.5804  0.3031  0.4584
12788TIP3   OH259778   0.725   0.475   1.076  0.3861  0.2079 -0.4060
12788TIP3    H159779   0.756   0.471   1.166  0.8130  1.0444 -0.5012
12788TIP3    H259780   0.638   0.435   1.078  0.7743 -0.6258  0.1940
12789TIP3   OH259781   3.444   3.997  10.684  0.3561  0.1548  0.2015
12789TIP3    H159782   3.419   4.049  10.607  1.2533 -0.7881 -0.7637
12789TIP3    H259783   3.372   4.008  10.745 -0.4004  0.9048 -0.7920
12790TIP3   OH259784   1.221   2.782  11.536 -0.1443  0.6641 -0.2951
12790TIP3    H159785   1.205   2.820  11.622  0.1472 -2.4232  1.2451
12790TIP3    H259786   1.156   2.712  11.529  1.0877 -0.3744 -1.7773
12791TIP3   OH259787   4.375   0.767  10.963 -0.1787 -0.0440  0.1640
12791TIP3    H159788   4.329   0.718  10.895 -0.5212  1.0611 -0.4312
12791TIP3    H259789   4.465   0.771  10.933 -0.6555  1.9896 -1.2145
12792TIP3   OH259790   3.395   5.782   2.725 -0.0852  0.1644  0.2245
12792TIP3    H159791   3.399   5.779   2.629 -0.6891  0.9650  0.1690
12792TIP3    H259792   3.302   5.775   2.745  0.0616 -0.2883  0.7754
12793TIP3   OH259793   1.186   1.891   4.508  0.3995  1.3898  0.0750
12793TIP3    H159794   1.126   1.922   4.440 -0.9352  0.5229  0.8278
12793TIP3    H259795   1.145   1.917   4.590  1.4480  1.4457  0.5965
12794TIP3   OH259796   1.935   5.127   2.886 -0.0461  0.3608 -0.1407
12794TIP3    H159797   1.856   5.179   2.896  0.1822  0.7237 -0.1870
12794TIP3    H259798   1.960   5.103   2.975 -1.4890 -1.7487 -0.2148
12795TIP3   OH259799   2.588   1.286   6.553 -0.2800  0.6977 -0.0344
12795TIP3    H159800   2.593   1.298   6.458  0.3552  1.2342  0.0578
12795TIP3    H259801   2.657   1.343   6.588  1.9974 -2.1529  0.5589
12796TIP3   OH259802   0.336   4.080  13.980  0.7186  0.6353  0.2367
12796TIP3    H159803   0.307   4.009  14.038 -0.0305  0.5367 -0.2510
12796TIP3    H259804   0.377   4.143  14.039  0.7237  0.1461  0.7730
12797TIP3   OH259805   5.020   0.601  14.616 -0.3275 -0.1387 -0.1020
12797TIP3    H159806   4.939   0.585  14.568 -1.9344  2.7316  1.3751
12797TIP3    H259807   5.079   0.639  14.550 -1.4279  0.9261 -0.5262
12798TIP3   OH259808   6.705   3.017  14.857 -0.1498  0.1756  0.4468
12798TIP3    H159809   6.772   3.085  14.852  0.1323 -0.1639 -0.9106
12798TIP3    H259810   6.738   2.947  14.800 -2.0239  0.3514 -0.9595
12799TIP3   OH259811   2.531   4.116   2.317 -0.1179 -0.0694  0.1601
12799TIP3    H159812   2.478   4.189   2.348 -0.8946 -0.6686  0.2662
12799TIP3    H259813   2.603   4.111   2.381  0.2924  0.9719 -0.1931
12800TIP3   OH259814   5.249   0.167   3.447  0.2301 -0.3804 -0.2597
12800TIP3    H159815   5.329   0.187   3.497 -0.7177 -1.7022  1.9303
12800TIP3    H259816   5.243   0.071   3.449 -0.0244 -0.4949 -2.7652
12801TIP3   OH259817   0.496   4.751  10.906  0.1860  0.4673  0.2874
12801TIP3    H159818   0.472   4.792  10.823 -0.7947  1.2144  0.9217
12801TIP3    H259819   0.434   4.678  10.915 -1.4496  1.9344  1.5578
12802TIP3   OH259820   6.105   3.257  13.219 -0.1797  0.3907  0.1932
12802TIP3    H159821   6.169   3.223  13.282 -0.1215  2.3075  1.2732
12802TIP3    H259822   6.105   3.352  13.235 -3.0072  0.5078 -0.0459
12803TIP3   OH259823   0.985   4.624  14.490 -0.0133  0.4036  0.2604
12803TIP3    H159824   1.032   4.583  14.417  0.7538  1.9148 -0.1505
12803TIP3    H259825   0.911   4.567  14.507  0.2927 -0.4429 -1.1262
12804TIP3   OH259826   1.982   5.066   4.817  0.3803 -0.2350  0.6055
12804TIP3    H159827   2.014   5.104   4.899  1.4445 -0.9207  0.5160
12804TIP3    H259828   2.057   5.067   4.759 -0.4116  0.4121 -0.4501
12805TIP3   OH259829   2.195   2.041   1.136  0.0370 -0.2878  0.9192
12805TIP3    H159830   2.192   2.123   1.185 -0.0339  0.0506  0.3669
12805TIP3    H259831   2.227   1.977   1.198  2.2837  0.6075  0.7685
12806TIP3   OH259832   6.338   3.631  14.271 -0.1539  0.1942  0.4327
12806TIP3    H159833   6.283   3.641  14.349  0.5515  2.0601  0.7418
12806TIP3    H259834   6.279   3.647  14.197 -0.9575 -2.1438  0.4934
12807TIP3   OH259835   6.736   0.270  11.609 -0.0167 -0.0117 -0.1488
12807TIP3    H159836   6.719   0.278  11.703  0.3865  1.8782 -0.1839
12807TIP3    H259837   6.814   0.214  11.604  0.8541  1.0461  0.7725
12808TIP3   OH259838   5.592   5.923   0.298 -0.0233  0.3724 -0.2259
12808TIP3    H159839   5.499   5.902   0.290 -0.3578  1.3458  0.7818
12808TIP3    H259840   5.595   5.993   0.364  1.5234 -0.3912  0.5612
12809TIP3   OH259841   2.532   2.190  15.461 -0.3431 -0.7965  0.8430
12809TIP3    H159842   2.525   2.140  15.380 -2.1352 -1.7821  1.5527
12809TIP3    H259843   2.491   2.275  15.440 -1.9892 -1.5062  1.0213
12810TIP3   OH259844   2.149   3.758  11.404  0.2684  0.3205  0.0977
12810TIP3    H159845   2.209   3.685  11.389  1.5855  1.8633 -3.1531
12810TIP3    H259846   2.065   3.726  11.372  0.4589 -0.2575  0.1464
12811TIP3   OH259847   3.720   2.065  13.842 -0.7482 -0.3521 -0.3485
12811TIP3    H159848   3.648   2.064  13.905 -0.1554  0.8140  0.3920
12811TIP3    H259849   3.705   2.145  13.791 -0.0830 -0.1970 -0.3053
12812TIP3   OH259850   2.608   4.789  14.226 -0.0559 -0.2725 -0.3487
12812TIP3    H159851   2.616   4.716  14.164  1.1665  0.2562 -0.8362
12812TIP3    H259852   2.638   4.753  14.310 -0.5919 -0.6529 -0.3116
12813TIP3   OH259853   3.802   2.222   5.017  0.5861  0.2774  0.4888
12813TIP3    H159854   3.839   2.234   4.930  1.4756 -0.5241  0.7422
12813TIP3    H259855   3.874   2.186   5.069  0.0101  0.5569  1.5041
12814TIP3   OH259856   1.175   3.390   4.904  0.2648  0.2424  0.0024
12814TIP3    H159857   1.251   3.418   4.956  2.1914 -1.1724 -1.8918
12814TIP3    H259858   1.106   3.376   4.969  1.7163  1.2347  1.8604
12815TIP3   OH259859   0.548   6.590   3.850  0.4665 -0.0179  0.0799
12815TIP3    H159860   0.632   6.583   3.896 -0.0466  2.0309  1.4794
12815TIP3    H259861   0.487   6.539   3.903  0.6126 -0.6892 -0.3897
12816TIP3   OH259862   4.181   6.271  17.302  0.3114  0.2578  0.2011
12816TIP3    H159863   4.204   6.357  17.337  0.8026 -0.4753  1.7753
12816TIP3    H259864   4.092   6.255  17.332  0.6238 -0.2405  0.9043
12817TIP3   OH259865   6.422   0.302   5.664 -0.1474 -0.7121 -0.0554
12817TIP3    H159866   6.472   0.234   5.708  0.3644 -0.9840 -1.0247
12817TIP3    H259867   6.353   0.254   5.618 -0.7161 -0.4270  0.4914
12818TIP3   OH259868   2.623   0.829  12.429  0.3242 -0.2466  0.0751
12818TIP3    H159869   2.608   0.899  12.493  1.5028 -0.7790  0.9884
12818TIP3    H259870   2.675   0.765  12.477 -2.5964 -2.8847  0.0155
12819TIP3   OH259871   2.763   5.888  11.335 -0.4713  0.1158 -0.4089
12819TIP3    H159872   2.832   5.936  11.381 -1.7874  0.3599  1.4260
12819TIP3    H259873   2.803   5.803  11.316  0.7871  0.7343 -0.6848
12820TIP3   OH259874   0.234   5.323   1.907  0.2070 -0.2100  0.7233
12820TIP3    H159875   0.301   5.281   1.854 -1.2571 -0.1833 -1.2715
12820TIP3    H259876   0.255   5.416   1.904 -0.0094 -0.1768 -0.0906
12821TIP3   OH259877   5.809   2.029  11.901  0.6383 -0.0740  0.1158
12821TIP3    H159878   5.792   1.939  11.877  2.1153 -0.7938  1.5576
12821TIP3    H259879   5.726   2.061  11.936 -0.4405 -0.1980 -2.1452
12822TIP3   OH259880   0.012   2.705   4.263 -0.3089  0.3111 -0.0076
12822TIP3    H159881   0.072   2.738   4.195  0.6367  0.0206  0.6663
12822TIP3    H259882  -0.069   2.685   4.216 -1.0511  3.7023 -0.4775
12823TIP3   OH259883   3.102   0.372   4.672 -0.1543  0.0496  0.0091
12823TIP3    H159884   3.180   0.322   4.650 -0.6316 -0.6711 -0.0912
12823TIP3    H259885   3.102   0.377   4.768 -1.0129 -1.6775  0.1307
12824TIP3   OH259886   6.266   5.510  15.596 -0.1085 -0.2664 -0.1536
12824TIP3    H159887   6.244   5.418  15.586  1.3374 -0.5689 -0.7144
12824TIP3    H259888   6.181   5.554  15.605 -0.7869 -1.7771  1.4952
12825TIP3   OH259889   2.713   0.782   5.290 -0.3021 -0.1595 -0.5980
12825TIP3    H159890   2.692   0.856   5.346  1.3016 -0.5674  0.6328
12825TIP3    H259891   2.643   0.719   5.306  0.2568 -0.3962  1.2850
12826TIP3   OH259892   0.596   0.438  15.168 -0.8056 -0.3102  0.1300
12826TIP3    H159893   0.689   0.436  15.149 -0.8263  0.0936 -0.0193
12826TIP3    H259894   0.589   0.408  15.259 -0.6939 -2.1011 -0.4240
12827TIP3   OH259895   6.750   5.132   2.645 -0.1373 -0.0982 -0.6278
12827TIP3    H159896   6.820   5.118   2.708 -1.2276  0.4589  0.7716
12827TIP3    H259897   6.782   5.201   2.588  0.9351 -0.7177 -0.7895
12828TIP3   OH259898   4.390   1.647   3.793  0.2482  0.0346  0.0598
12828TIP3    H159899   4.396   1.741   3.808  0.9282  0.1236 -0.7366
12828TIP3    H259900   4.355   1.638   3.705 -2.6372 -0.4916  1.1707
12829TIP3   OH259901   3.143   3.984  14.621  0.6078  0.2729 -0.2606
12829TIP3    H159902   3.227   4.025  14.645  0.6830 -1.0134  1.8846
12829TIP3    H259903   3.168   3.911  14.564  0.7052  1.2942 -1.5861
12830TIP3   OH259904   6.507   0.026  15.319  0.3707 -0.4963  0.2538
12830TIP3    H159905   6.457  -0.033  15.375 -1.1476  2.2149  2.0006
12830TIP3    H259906   6.582  -0.026  15.290  0.5243 -2.5414  3.7325
12831TIP3   OH259907   5.510   3.246  13.401 -0.2610 -0.1898 -0.3717
12831TIP3    H159908   5.589   3.221  13.353 -0.0244 -0.8698  0.3512
12831TIP3    H259909   5.541   3.278  13.485 -0.7257  0.0962 -0.3050
12832TIP3   OH259910   4.705   3.242   5.492 -0.4153 -0.0984 -0.1164
12832TIP3    H159911   4.733   3.158   5.454  2.5780  1.7709 -2.4845
12832TIP3    H259912   4.669   3.291   5.418  0.5203  1.7141  0.5709
12833TIP3   OH259913   0.447   5.588   2.875  0.5569 -0.4194  0.2315
12833TIP3    H159914   0.502   5.558   2.803  1.8119  0.8669  0.6146
12833TIP3    H259915   0.455   5.684   2.874  0.8182 -0.3712  2.2277
12834TIP3   OH259916   6.271   1.698   1.223 -0.1811 -0.3261 -0.1145
12834TIP3    H159917   6.302   1.630   1.283 -0.6272  0.3082  0.8595
12834TIP3    H259918   6.230   1.763   1.279 -0.9035  0.1431 -1.1424
12835TIP3   OH259919   5.575   4.625   0.783  0.9819 -0.5823 -0.3425
12835TIP3    H159920   5.553   4.535   0.807 -1.6952  0.1221  0.1563
12835TIP3    H259921   5.640   4.652   0.848 -1.7322 -0.6617  2.6589
12836TIP3   OH259922   2.898   2.761  13.979 -0.1509 -0.3744 -0.4997
12836TIP3    H159923   2.903   2.668  14.000  1.3276 -0.0636  0.7154
12836TIP3    H259924   2.931   2.767  13.889 -1.6102 -1.1480 -1.1222
12837TIP3   OH259925   4.258   0.890  16.218  0.2091 -0.1683 -0.4557
12837TIP3    H159926   4.224   0.941  16.145 -0.0307  0.5828  0.1622
12837TIP3    H259927   4.211   0.924  16.295  0.9140 -0.4930  0.1353
12838TIP3   OH259928   6.707   0.124   1.102  0.0919  0.0780 -0.4765
12838TIP3    H159929   6.723   0.217   1.119 -3.5387  0.8694 -0.5993
12838TIP3    H259930   6.720   0.082   1.187  0.3285  0.9382 -0.0746
12839TIP3   OH259931   3.889   6.228   2.070 -0.5186  0.5512 -0.0020
12839TIP3    H159932   3.854   6.255   2.155 -0.0748 -2.1453  1.1401
12839TIP3    H259933   3.845   6.145   2.052  1.6916 -0.5071 -0.8429
12840TIP3   OH259934   4.311   5.205  17.207  0.3262  0.4450 -0.1090
12840TIP3    H159935   4.390   5.216  17.154 -0.5070  0.2128 -1.4674
12840TIP3    H259936   4.273   5.123  17.175 -0.5701  0.6657  0.3680
12841TIP3   OH259937   3.894   6.439   4.418  0.8526 -0.5516  0.0266
12841TIP3    H159938   3.869   6.409   4.506 -2.4914 -0.1223 -0.6520
12841TIP3    H259939   3.860   6.528   4.412  0.6917 -0.7084 -1.8232
12842TIP3   OH259940   4.321   3.903  14.821 -0.0335 -0.4210  0.6578
12842TIP3    H159941   4.323   3.833  14.885  0.7371  0.3352  1.4751
12842TIP3    H259942   4.290   3.979  14.870  1.6852  0.4553  0.4449
12843TIP3   OH259943   0.925   2.898   1.428  0.1310 -0.0478  0.3941
12843TIP3    H159944   0.966   2.928   1.347 -0.3602 -0.4302  0.0067
12843TIP3    H259945   0.904   2.807   1.412  0.2444 -0.1899  1.0407
12844TIP3   OH259946   1.836   2.867  11.308  0.9312  0.3721  0.3929
12844TIP3    H159947   1.768   2.883  11.243  0.8157  0.3443  0.5055
12844TIP3    H259948   1.892   2.799  11.269  0.5330 -0.0568  0.5632
12845TIP3   OH259949   1.616   6.037   0.574 -0.3115 -0.4530  0.4571
12845TIP3    H159950   1.542   5.978   0.590 -0.2416 -1.3523 -2.0305
12845TIP3    H259951   1.577   6.119   0.545 -0.3694 -0.5968  0.1198
12846TIP3   OH259952   1.346   3.818  12.451  0.0161  0.6510 -0.8491
12846TIP3    H159953   1.252   3.837  12.448 -0.2620 -0.6469 -1.0833
12846TIP3    H259954   1.353   3.727  12.423  1.3664  0.7580 -0.9405
12847TIP3   OH259955   5.330   2.044  17.298  0.5359 -0.0509  0.1632
12847TIP3    H159956   5.340   2.059  17.392  1.2409  1.6598 -0.1469
12847TIP3    H259957   5.413   2.072  17.261  0.7417 -1.8704 -0.8873
12848TIP3   OH259958   2.806   5.706   0.557 -0.4884 -0.1737  0.1586
12848TIP3    H159959   2.850   5.785   0.526  0.5307 -0.9169 -0.3627
12848TIP3    H259960   2.826   5.640   0.490 -0.9284 -0.9889  0.8168
12849TIP3   OH259961   2.756   1.683  13.021 -0.2225  0.7403 -0.0658
12849TIP3    H159962   2.676   1.726  13.052  0.1293  0.3339  1.4882
12849TIP3    H259963   2.726   1.620  12.956 -1.1389  0.7819  0.3050
12850TIP3   OH259964   2.847   0.925   6.620 -0.1349  0.4909 -1.0686
12850TIP3    H159965   2.916   0.867   6.652 -0.7934 -0.4704 -1.3415
12850TIP3    H259966   2.884   1.013   6.627 -0.2977  0.4161  2.5853
12851TIP3   OH259967   0.701   5.656  10.616 -0.3915  0.1132 -0.4781
12851TIP3    H159968   0.714   5.594  10.544  1.2096  0.3970 -0.4736
12851TIP3    H259969   0.789   5.686  10.638 -1.0535  1.8311  0.0312
12852TIP3   OH259970   6.372   6.671   3.725 -0.6388  0.6675  0.2569
12852TIP3    H159971   6.289   6.629   3.748  0.5903 -2.5297 -0.6096
12852TIP3    H259972   6.426   6.663   3.803 -0.1155 -0.2593 -0.1756
12853TIP3   OH259973   2.010   0.041  14.477  0.1445 -0.0676  0.1331
12853TIP3    H159974   1.918   0.046  14.451  0.1025  3.3504  0.5104
12853TIP3    H259975   2.007   0.001  14.565 -0.7059 -1.8062 -0.6239
12854TIP3   OH259976   3.085   0.472   4.018  0.2473 -0.4669 -0.0358
12854TIP3    H159977   3.035   0.475   3.936 -0.6036  0.2098  0.4847
12854TIP3    H259978   3.034   0.414   4.074  0.5750 -0.5534  0.1693
12855TIP3   OH259979   2.774   0.533  12.229 -0.1537  0.2218  0.5097
12855TIP3    H159980   2.701   0.592  12.216  0.6331  1.1295  0.0494
12855TIP3    H259981   2.834   0.580  12.287  0.6677  0.0743 -0.1837
12856TIP3   OH259982   5.755   4.577  12.324  0.2376 -0.5648 -0.2451
12856TIP3    H159983   5.781   4.543  12.238 -2.0075 -1.7631 -0.5104
12856TIP3    H259984   5.778   4.670  12.321  0.3295 -0.6131 -2.0830
12857TIP3   OH259985   1.596   6.348   0.505 -0.1469  0.1403 -0.0843
12857TIP3    H159986   1.519   6.302   0.537  0.3569 -1.5792 -1.1427
12857TIP3    H259987   1.640   6.380   0.583 -1.6856  0.7687  0.5540
12858TIP3   OH259988   0.611   3.770   7.141 -0.3926 -0.0525  0.0095
12858TIP3    H159989   0.625   3.677   7.124  0.6886 -0.2020  1.4887
12858TIP3    H259990   0.528   3.774   7.189  0.6537 -0.5628  1.9816
12859TIP3   OH259991   6.322   1.841   5.572  0.3644 -0.6808  0.0667
12859TIP3    H159992   6.415   1.838   5.551  0.2541  1.1931 -0.9533
12859TIP3    H259993   6.284   1.898   5.505 -0.9470  1.3472  2.3713
12860TIP3   OH259994   3.379   4.278   0.816 -0.2133  0.1609 -0.6189
12860TIP3    H159995   3.453   4.233   0.855 -0.3545  0.4225 -0.0338
12860TIP3    H259996   3.407   4.300   0.728 -0.7902 -2.7118 -1.6245
12861TIP3   OH259997   2.696   0.662  14.174 -0.6696  0.6467  0.3564
12861TIP3    H159998   2.700   0.756  14.155 -0.7837  0.8941  1.4507
12861TIP3    H259999   2.780   0.643  14.217 -0.8405  0.3604  0.5675
12862TIP3   OH260000   0.694   4.395  15.448  0.4265 -0.2066  0.1471
12862TIP3    H160001   0.702   4.309  15.407 -2.2959 -0.1912 -0.6108
12862TIP3    H260002   0.783   4.432  15.444  1.5740 -2.7563  0.1181
12863TIP3   OH260003   0.186   5.180   4.002  0.1959  0.3086 -0.1708
12863TIP3    H160004   0.191   5.274   3.986 -0.0975  0.2266 -0.7836
12863TIP3    H260005   0.111   5.151   3.949  1.3619 -0.5639 -1.4228
12864TIP3   OH260006   1.091   2.499  12.699 -0.0387 -0.3685  0.3895
12864TIP3    H160007   1.138   2.583  12.697 -0.6085 -0.0520 -0.0208
12864TIP3    H260008   1.014   2.513  12.644  0.2078 -1.3703 -0.2496
12865TIP3   OH260009   0.943   4.441   3.361  0.2797  0.0997  0.0604
12865TIP3    H160010   1.002   4.365   3.364  0.5566  0.2966 -0.4775
12865TIP3    H260011   0.903   4.437   3.275 -2.2452 -1.3518  1.1976
12866TIP3   OH260012   0.257   6.589   4.251 -0.4678  0.1188  0.4719
12866TIP3    H160013   0.226   6.678   4.272 -1.0502  0.1130 -0.3139
12866TIP3    H260014   0.247   6.541   4.333  2.4115  1.4288  1.7228
12867TIP3   OH260015   3.744   3.078  15.701  0.2231 -0.4326  0.0775
12867TIP3    H160016   3.665   3.122  15.671  0.9539  0.4544 -0.6376
12867TIP3    H260017   3.781   3.138  15.766 -0.4284 -1.5229  1.5016
12868TIP3   OH260018   2.433   6.345   3.189 -0.2386 -0.3612  0.3543
12868TIP3    H160019   2.480   6.284   3.132  0.1599 -1.5595  1.9006
12868TIP3    H260020   2.416   6.421   3.133  0.3628 -1.3632 -1.2695
12869TIP3   OH260021   3.745   2.188   0.631 -0.4102 -0.2628  0.2331
12869TIP3    H160022   3.749   2.271   0.677  0.8749  0.1293 -0.5258
12869TIP3    H260023   3.833   2.151   0.640 -0.8230 -1.3164  0.1508
12870TIP3   OH260024   6.052   1.399  10.710  0.3771  0.1479 -0.0591
12870TIP3    H160025   6.042   1.440  10.624 -0.3917  0.1770  0.0332
12870TIP3    H260026   6.100   1.318  10.693  2.3135  1.2489 -0.1898
12871TIP3   OH260027   0.137   3.267   1.871 -0.1746 -0.3394 -0.2061
12871TIP3    H160028   0.092   3.306   1.945  1.1126  2.4460 -0.7695
12871TIP3    H260029   0.221   3.237   1.907 -0.4204 -0.9748 -0.1437
12872TIP3   OH260030   4.824   5.926   2.460  0.3082  0.2825 -0.1966
12872TIP3    H160031   4.786   6.011   2.482  1.6450  1.0205 -0.6285
12872TIP3    H260032   4.749   5.869   2.446 -0.6272  0.9306  1.8076
12873TIP3   OH260033   2.572   2.994   0.800  0.0894  0.1918 -0.0884
12873TIP3    H160034   2.609   3.060   0.859 -0.8052  0.5001  0.1444
12873TIP3    H260035   2.478   3.006   0.807 -0.1055 -1.2648  0.1264
12874TIP3   OH260036   6.058   4.054   4.713 -0.4764 -0.1335 -0.6965
12874TIP3    H160037   6.084   4.096   4.630 -0.2714 -1.0173 -1.0906
12874TIP3    H260038   6.108   3.972   4.715  1.5398  1.0403  1.5645
12875TIP3   OH260039   0.870   0.977  15.191 -0.7101 -0.1236  0.4793
12875TIP3    H160040   0.778   0.979  15.162 -0.9633 -0.1736  1.2582
12875TIP3    H260041   0.913   1.043  15.136 -1.3767  0.4663  0.6455
12876TIP3   OH260042   4.773   2.830  12.623 -0.0357 -0.4794 -0.6302
12876TIP3    H160043   4.816   2.849  12.706  0.8715  0.1090 -1.2179
12876TIP3    H260044   4.713   2.758  12.643 -1.4417  1.0605  1.0120
12877TIP3   OH260045   4.986   5.542   1.384  0.3181  0.1283 -0.2518
12877TIP3    H160046   5.056   5.493   1.427 -0.2160 -0.3990  0.0341
12877TIP3    H260047   4.938   5.583   1.456  1.5764  2.2790 -0.5260
12878TIP3   OH260048   1.213   1.475  13.262 -0.7213 -0.3752 -0.6421
12878TIP3    H160049   1.225   1.570  13.251 -0.6389 -0.0616  1.7008
12878TIP3    H260050   1.297   1.444  13.296 -1.2545 -0.9877  0.1666
12879TIP3   OH260051   1.076   0.382   3.161  0.0350  0.4806 -0.5270
12879TIP3    H160052   1.094   0.476   3.171  0.1135  0.3886  0.2470
12879TIP3    H260053   0.981   0.375   3.168 -0.0693  0.6139 -1.6179
12880TIP3   OH260054   0.312   3.048   0.872 -0.4030  0.2707 -0.3428
12880TIP3    H160055   0.240   2.994   0.838 -1.6530  0.7907  1.3300
12880TIP3    H260056   0.295   3.135   0.837 -1.1415  0.5909  0.7467
12881TIP3   OH260057   1.782   0.977  16.930  0.1222 -0.3004 -0.1703
12881TIP3    H160058   1.817   0.981  16.842  1.8942 -2.6793  0.3244
12881TIP3    H260059   1.718   0.905  16.928 -1.0894  0.7247  0.1318
12882TIP3   OH260060   4.595   3.508  14.801  0.1655 -0.1999  0.1925
12882TIP3    H160061   4.586   3.416  14.826 -0.3720  0.0213  0.8399
12882TIP3    H260062   4.505   3.539  14.790  0.3586  0.0776 -0.6894
12883TIP3   OH260063   1.007   4.064  16.966  0.5236  0.2650 -0.4525
12883TIP3    H160064   1.015   4.051  16.872  0.7242 -1.5765 -0.2195
12883TIP3    H260065   1.090   4.105  16.992  0.8474 -0.0773 -0.9424
12884TIP3   OH260066   2.392   1.353   1.745 -0.0645  0.0767 -0.4384
12884TIP3    H160067   2.333   1.428   1.748  0.0314  0.1939 -1.4017
12884TIP3    H260068   2.367   1.305   1.666 -0.1436 -0.9320  0.1718
12885TIP3   OH260069   3.495   2.055   4.215 -0.0033  0.1247 -0.3322
12885TIP3    H160070   3.482   2.131   4.272  0.2677 -0.6758  0.8294
12885TIP3    H260071   3.513   1.983   4.275  0.0807 -0.7951 -1.4330
12886TIP3   OH260072   0.657   2.247   1.153 -0.0181 -0.0559 -0.2809
12886TIP3    H160073   0.650   2.303   1.230 -4.0036 -0.6183 -0.0121
12886TIP3    H260074   0.670   2.159   1.188 -1.5143 -0.2683 -0.2023
12887TIP3   OH260075   3.379   1.332   3.575  0.3317  0.1956  0.0470
12887TIP3    H160076   3.349   1.419   3.602  0.0723  0.4501 -1.0003
12887TIP3    H260077   3.305   1.275   3.592 -0.3608  0.6073 -1.3903
12888TIP3   OH260078   5.653   0.638   3.126 -0.3367 -0.3438 -0.2920
12888TIP3    H160079   5.596   0.562   3.134 -0.4281 -0.2870 -0.3946
12888TIP3    H260080   5.679   0.639   3.034  1.7059 -1.7114  0.2008
12889TIP3   OH260081   1.422   5.263   2.274  0.3827 -0.6631  0.4881
12889TIP3    H160082   1.334   5.268   2.313  0.1209  1.8366 -0.2579
12889TIP3    H260083   1.475   5.323   2.327  1.3563 -1.2045  0.1574
12890TIP3   OH260084   1.948   2.060   3.519  0.2008 -0.2705  0.3371
12890TIP3    H160085   1.877   2.038   3.459  0.0686 -0.9040  0.7184
12890TIP3    H260086   2.017   1.996   3.500  1.0357  0.8696 -0.6308
12891TIP3   OH260087   5.579   5.519   1.049  0.0003 -0.0399 -0.1862
12891TIP3    H160088   5.495   5.555   1.022  0.7776  1.6638 -0.4315
12891TIP3    H260089   5.637   5.595   1.058  1.5676 -1.1755 -0.1959
12892TIP3   OH260090   3.543   3.511   0.988  0.0878 -0.4737 -0.2150
12892TIP3    H160091   3.518   3.505   1.080  0.5329  1.1084  0.0403
12892TIP3    H260092   3.608   3.441   0.977 -0.2489 -0.9283  0.5589
12893TIP3   OH260093   3.831   4.724  14.107 -0.0794  0.7152 -0.0966
12893TIP3    H160094   3.764   4.684  14.052 -1.3450  2.2452  0.2638
12893TIP3    H260095   3.848   4.658  14.175  1.7378 -1.3296 -2.3529
12894TIP3   OH260096   2.085   6.014   4.100 -0.6347 -0.4380 -0.3998
12894TIP3    H160097   2.101   5.924   4.130  1.3956 -0.2720 -0.8219
12894TIP3    H260098   2.028   6.003   4.024 -0.4251 -1.3785 -0.4381
12895TIP3   OH260099   1.330   0.845   1.070 -0.0424 -0.4465 -0.1881
12895TIP3    H160100   1.347   0.918   1.010 -1.5976  0.1478  0.0479
12895TIP3    H260101   1.329   0.886   1.157 -0.7659 -0.7731 -0.0412
12896TIP3   OH260102   2.740   1.770   0.701 -0.0684  0.0449  0.6635
12896TIP3    H160103   2.648   1.767   0.728 -0.1675  0.8051  0.4435
12896TIP3    H260104   2.738   1.766   0.606  0.0318  1.4607  0.5841
12897TIP3   OH260105   2.441   5.000  14.011 -0.1797  0.2453 -0.6878
12897TIP3    H160106   2.486   4.987  14.095  1.6799 -1.1132 -1.8233
12897TIP3    H260107   2.364   5.052  14.034 -0.3663 -1.0374  2.0520
12898TIP3   OH260108   5.939   0.066   3.338  0.1332 -0.2828 -0.0543
12898TIP3    H160109   5.875   0.136   3.350 -0.1008 -0.7685  1.6997
12898TIP3    H260110   5.998   0.073   3.413  0.3144 -1.7438 -0.0280
12899TIP3   OH260111   5.822   0.374  11.923 -0.1281 -0.3089  0.0014
12899TIP3    H160112   5.864   0.291  11.948  0.8257  0.5799  1.4550
12899TIP3    H260113   5.848   0.387  11.832  0.3373 -1.2248 -0.0102
12900TIP3   OH260114   1.213   2.682  16.834  0.7967 -0.0627  0.1156
12900TIP3    H160115   1.128   2.714  16.865  0.8075  0.4646 -0.3682
12900TIP3    H260116   1.191   2.613  16.771  0.7622 -0.7536  0.8756
12901TIP3   OH260117   1.222   3.661   6.855  0.2785 -0.4232 -0.6786
12901TIP3    H160118   1.198   3.705   6.936 -1.8787 -0.2879 -1.3251
12901TIP3    H260119   1.315   3.681   6.843  0.5400 -0.1246  1.5261
12902TIP3   OH260120   2.436   6.582  11.452  0.4573 -0.3598  0.7128
12902TIP3    H160121   2.410   6.642  11.521  0.8800  0.3536  0.2594
12902TIP3    H260122   2.394   6.499  11.476  1.5876 -0.4762  2.4752
12903TIP3   OH260123   4.885   5.320   1.213  0.1218  0.7386  0.6331
12903TIP3    H160124   4.919   5.383   1.276  0.5876  0.7648  0.3668
12903TIP3    H260125   4.873   5.370   1.132 -1.1537  0.8678  0.8818
12904TIP3   OH260126   0.102   1.783   1.494  0.1578  0.3026  0.4637
12904TIP3    H160127   0.047   1.842   1.442  3.0184  1.6432 -1.2776
12904TIP3    H260128   0.183   1.832   1.508  2.7756 -3.1397 -1.1748
12905TIP3   OH260129   1.168   6.531   0.964  0.1505 -0.6964  0.3843
12905TIP3    H160130   1.154   6.589   0.889  2.2647 -0.0542  0.4347
12905TIP3    H260131   1.094   6.548   1.022  0.0982  1.0772 -0.1493
12906TIP3   OH260132   3.395   3.214  12.639 -0.1113  0.7569 -0.6211
12906TIP3    H160133   3.302   3.224  12.657  0.0642  0.5155  0.4917
12906TIP3    H260134   3.438   3.248  12.717  0.6758 -0.8986 -0.2922
12907TIP3   OH260135   3.018   4.473  13.229  0.8608  0.3962 -0.1971
12907TIP3    H160136   2.970   4.471  13.147  1.0780 -1.6495 -0.3051
12907TIP3    H260137   3.065   4.390  13.233  0.0464 -0.0435  2.4689
12908TIP3   OH260138   4.536   5.514   1.533 -0.2070 -0.0337  0.2683
12908TIP3    H160139   4.471   5.562   1.586 -1.7626 -1.2456 -0.4695
12908TIP3    H260140   4.493   5.432   1.511  1.2619 -0.4980 -1.0337
12909TIP3   OH260141   0.790   3.856  15.859 -0.1655  0.2376 -0.2659
12909TIP3    H160142   0.820   3.798  15.789  0.9014  0.1790  0.2162
12909TIP3    H260143   0.865   3.861  15.919 -0.3300  1.8882 -0.1580
12910TIP3   OH260144   1.516   6.636   4.816  0.1328  0.0064  0.3200
12910TIP3    H160145   1.459   6.695   4.767 -0.5923 -1.1500 -0.2781
12910TIP3    H260146   1.585   6.693   4.851  0.5813  0.9125 -1.8854
12911TIP3   OH260147   2.430   3.580  10.685  0.2946 -0.0674  0.2603
12911TIP3    H160148   2.359   3.534  10.639  0.9264  0.0159 -0.8512
12911TIP3    H260149   2.484   3.510  10.722  0.4960 -0.1898 -0.2534
12912TIP3   OH260150   3.587   6.201   2.683  0.3921 -0.6827  0.4248
12912TIP3    H160151   3.523   6.271   2.672  3.0269  1.6892 -1.2764
12912TIP3    H260152   3.610   6.202   2.775  0.0489  0.3957  0.5012
12913TIP3   OH260153   0.017   3.735   2.418 -0.1734 -0.3349  0.2118
12913TIP3    H160154  -0.046   3.689   2.473 -0.3686 -0.4074 -0.0697
12913TIP3    H260155  -0.005   3.827   2.429 -0.9818 -0.4117 -0.6654
12914TIP3   OH260156   0.132   4.889  12.797 -0.1678 -0.1884 -0.0067
12914TIP3    H160157   0.121   4.826  12.725 -0.0382  0.9192 -1.0252
12914TIP3    H260158   0.115   4.974  12.757  1.4855  0.6086  0.8874
12915TIP3   OH260159   0.127   5.927   1.293  0.1659 -0.0158  0.6119
12915TIP3    H160160   0.091   5.902   1.378  1.7095 -0.3950  1.1888
12915TIP3    H260161   0.220   5.902   1.297 -0.2521 -2.7374 -2.2062
12916TIP3   OH260162   3.102   2.269  16.360 -0.6343 -0.3167  0.1903
12916TIP3    H160163   3.014   2.265  16.399 -1.3218  0.6302 -1.1607
12916TIP3    H260164   3.085   2.278  16.266  0.9279 -0.3728 -0.1118
12917TIP3   OH260165   0.914   6.135  14.014  0.2494  0.5192 -0.4347
12917TIP3    H160166   0.964   6.148  14.094  2.6588 -0.3071 -1.7153
12917TIP3    H260167   0.917   6.220  13.970  0.0826  0.6086 -0.2745
12918TIP3   OH260168   2.185   6.322  13.403 -0.0059 -0.4486 -0.0569
12918TIP3    H160169   2.140   6.243  13.372  0.3496 -1.1883  1.2353
12918TIP3    H260170   2.278   6.303  13.391  0.0532  0.4261 -1.1906
12919TIP3   OH260171   3.742   1.274   3.247 -0.2981  0.1201  0.0505
12919TIP3    H160172   3.788   1.205   3.296 -0.0857 -0.8837 -1.5060
12919TIP3    H260173   3.797   1.352   3.260  0.8780 -0.6185 -0.2667
12920TIP3   OH260174   4.822   0.330   0.921 -0.2203  0.2251 -0.4304
12920TIP3    H160175   4.890   0.393   0.944 -0.6442  0.3486  0.4959
12920TIP3    H260176   4.743   0.362   0.965 -0.4943 -0.8242 -0.1404
12921TIP3   OH260177   0.581   0.325   3.545 -0.0765  0.0014 -0.8817
12921TIP3    H160178   0.622   0.283   3.469 -2.5750  0.3170 -2.5017
12921TIP3    H260179   0.499   0.277   3.558 -0.6199  1.2050  0.4128
12922TIP3   OH260180   3.816   1.020   3.983 -0.6675 -0.1827  0.4887
12922TIP3    H160181   3.732   1.008   3.939 -0.2906 -0.2298 -0.2338
12922TIP3    H260182   3.820   1.113   4.003 -1.9970 -0.5531  2.8258
12923TIP3   OH260183   4.162   0.986  13.897  0.3628  0.4130  0.5510
12923TIP3    H160184   4.114   0.934  13.962  1.2792  0.1084  0.9955
12923TIP3    H260185   4.141   1.077  13.920  1.7447  0.3884  2.1869
12924TIP3   OH260186   5.960   6.128   2.067 -0.0577  0.2009 -0.2811
12924TIP3    H160187   6.029   6.124   2.133  0.7013  1.1885 -0.9812
12924TIP3    H260188   5.953   6.221   2.045  0.4103 -0.1893 -2.2789
12925TIP3   OH260189   2.472   0.728   0.896  0.1754  0.0434 -0.1167
12925TIP3    H160190   2.522   0.747   0.975 -0.7978  0.6049  0.3859
12925TIP3    H260191   2.437   0.813   0.869  0.7750 -0.0849 -1.3607
12926TIP3   OH260192   2.581   3.118   4.237 -0.1007 -0.2179  0.2422
12926TIP3    H160193   2.647   3.059   4.202  0.6564  0.6782  0.1225
12926TIP3    H260194   2.629   3.176   4.296 -0.8193  0.2997  0.3370
12927TIP3   OH260195   4.899   2.381  11.277 -0.8029 -0.8050  0.4341
12927TIP3    H160196   4.836   2.404  11.346 -2.0004 -3.4243  0.3228
12927TIP3    H260197   4.982   2.369  11.324 -1.0145 -0.0961  1.0141
12928TIP3   OH260198   0.095   0.686   1.479  0.4768 -0.0112  0.2579
12928TIP3    H160199   0.008   0.648   1.490  0.4912 -0.1849 -0.1868
12928TIP3    H260200   0.130   0.692   1.567  0.4677 -1.0123  0.3380
12929TIP3   OH260201   3.344   1.824   0.309  0.0669 -0.1190 -0.5609
12929TIP3    H160202   3.285   1.760   0.269 -0.6697  0.2628 -0.1163
12929TIP3    H260203   3.297   1.908   0.301  0.3866  0.1317  0.1365
12930TIP3   OH260204   5.351   4.792   0.694 -0.4575  0.3233 -0.7630
12930TIP3    H160205   5.323   4.725   0.632  2.0922 -0.5968 -1.0697
12930TIP3    H260206   5.416   4.747   0.749 -3.1960  0.7922  3.3128
12931TIP3   OH260207   1.080   2.987  13.416 -0.1996  0.1337  0.2764
12931TIP3    H160208   1.032   3.055  13.463  0.5156  0.3177  0.7608
12931TIP3    H260209   1.111   3.031  13.337 -1.7174 -0.2749 -0.5823
12932TIP3   OH260210   2.923   2.350   2.588 -0.3752  0.6591  0.0289
12932TIP3    H160211   2.883   2.430   2.553 -1.8178  0.4065  0.9987
12932TIP3    H260212   2.892   2.281   2.529  0.4945  0.7393 -0.5368
12933TIP3   OH260213   5.750   2.844  11.316 -0.3943 -0.5482 -0.3173
12933TIP3    H160214   5.762   2.768  11.259  1.5301 -0.9080  0.4896
12933TIP3    H260215   5.733   2.806  11.403 -0.9632 -0.0196 -0.1865
12934TIP3   OH260216   2.928   4.497   1.554 -0.1962 -0.3789 -0.0543
12934TIP3    H160217   2.943   4.553   1.631 -0.1781 -1.2030  0.5531
12934TIP3    H260218   2.945   4.554   1.479 -2.3765  1.1301  0.4748
12935TIP3   OH260219   5.660   5.049  17.016 -0.4083  0.2560 -0.8130
12935TIP3    H160220   5.697   4.965  17.040 -2.0923 -0.5350 -0.8554
12935TIP3    H260221   5.638   5.090  17.100 -1.5408 -0.2766 -0.8398
12936TIP3   OH260222   0.374   2.426   2.054 -0.5539 -0.0685  0.5613
12936TIP3    H160223   0.371   2.346   2.002 -4.5910 -1.2659  2.2517
12936TIP3    H260224   0.349   2.495   1.992  1.9396 -0.1532 -0.6623
12937TIP3   OH260225   3.152   4.902   1.819 -0.0262  0.4084  0.0192
12937TIP3    H160226   3.208   4.825   1.808  1.5405  1.5641 -0.3823
12937TIP3    H260227   3.195   4.955   1.886 -1.0565  0.9754  0.2581
12938TIP3   OH260228   0.756   3.868   3.419  0.0801 -0.0499 -0.5366
12938TIP3    H160229   0.817   3.795   3.422  0.4183  0.2363 -0.2644
12938TIP3    H260230   0.785   3.921   3.345 -1.3834 -1.2166 -2.0187
12939TIP3   OH260231   5.286   5.638   5.139 -0.4222 -0.0392 -0.2785
12939TIP3    H160232   5.192   5.658   5.141 -0.2015  0.9805  0.5829
12939TIP3    H260233   5.318   5.665   5.225  0.8529  0.5986 -0.9374
12940TIP3   OH260234   0.184   1.168  13.421 -0.2243  0.2795  0.0248
12940TIP3    H160235   0.150   1.155  13.333 -0.2106  2.5139 -0.3643
12940TIP3    H260236   0.269   1.208  13.409  1.0042 -1.8157  1.0761
12941TIP3   OH260237   2.776   2.410  15.095 -0.4890 -0.3630 -0.0808
12941TIP3    H160238   2.712   2.340  15.086 -2.2253  1.3387 -1.9575
12941TIP3    H260239   2.813   2.398  15.182 -1.9653 -2.5405  0.3227
12942TIP3   OH260240   3.495   1.439   0.561  0.1244  0.0523  0.1554
12942TIP3    H160241   3.515   1.511   0.621 -2.3708  1.1382 -0.2021
12942TIP3    H260242   3.424   1.472   0.507 -0.5070 -2.3907 -0.6179
12943TIP3   OH260243   3.199   5.747   2.367  0.6907 -0.0226 -0.4516
12943TIP3    H160244   3.122   5.727   2.312  1.3463 -3.7880 -0.2829
12943TIP3    H260245   3.165   5.747   2.456  0.9957 -3.8352 -0.1718
12944TIP3   OH260246   6.076   2.963  11.388 -0.1998  0.6431 -0.4088
12944TIP3    H160247   6.166   2.933  11.379 -0.3870  0.1988 -0.8715
12944TIP3    H260248   6.071   2.999  11.477  1.1583  3.1665 -1.2444
12945TIP3   OH260249   5.434   5.626  16.048 -0.3396 -0.0298 -0.3633
12945TIP3    H160250   5.449   5.720  16.035  0.2329 -0.0238  0.2995
12945TIP3    H260251   5.355   5.607  15.997  0.9831  0.2614 -2.6249
12946TIP3   OH260252   1.215   0.524  12.030 -0.0657 -0.7292  0.0784
12946TIP3    H160253   1.134   0.555  11.989 -0.6165 -0.9885  0.9438
12946TIP3    H260254   1.253   0.602  12.069  0.1057 -0.6066 -0.3289
12947TIP3   OH260255   1.311   2.182   0.931  0.0380 -0.2228  0.3526
12947TIP3    H160256   1.371   2.162   0.858 -0.7516  0.3573 -0.4805
12947TIP3    H260257   1.343   2.266   0.965 -1.1440  0.8662 -1.0709
12948TIP3   OH260258   6.138   6.551   3.761  0.0702  0.4895 -0.3618
12948TIP3    H160259   6.141   6.524   3.853 -0.7854  1.3425 -0.0559
12948TIP3    H260260   6.148   6.470   3.711  0.9982  0.0645  0.4690
12949TIP3   OH260261   3.518   2.649  15.332 -0.0500  0.4428 -0.3403
12949TIP3    H160262   3.541   2.579  15.272 -0.7167 -0.7787  0.7675
12949TIP3    H260263   3.592   2.655  15.392 -0.0305  0.6212 -0.3821
12950TIP3   OH260264   4.072   0.243  17.313  0.2590 -0.3879 -0.2951
12950TIP3    H160265   4.048   0.334  17.333  0.7447 -0.1743 -0.6476
12950TIP3    H260266   4.042   0.230  17.222  2.3603  0.2340 -1.1361
12951TIP3   OH260267   1.098   4.498  16.872 -0.5638  0.3013  0.1650
12951TIP3    H160268   1.016   4.476  16.917 -1.2635  3.9640  0.9772
12951TIP3    H260269   1.071   4.526  16.785 -0.2621  1.9592  0.5873
12952TIP3   OH260270   3.661   2.707   1.566 -0.0880 -0.0501 -0.0052
12952TIP3    H160271   3.696   2.786   1.525 -0.8756 -0.3368 -1.2946
12952TIP3    H260272   3.711   2.636   1.526  0.5761 -0.2411  1.1066
12953TIP3   OH260273   1.199   1.153   1.638 -0.1212  0.2455  0.0918
12953TIP3    H160274   1.288   1.151   1.673 -0.3030  1.9340  0.7283
12953TIP3    H260275   1.204   1.209   1.561 -0.4157 -0.6290 -0.5810
12954TIP3   OH260276   2.622   5.500   4.284 -0.1195  0.0988  0.1766
12954TIP3    H160277   2.535   5.509   4.324  1.3892  1.8935  3.5281
12954TIP3    H260278   2.669   5.442   4.343  1.4215  0.4519 -0.6451
12955TIP3   OH260279   1.710   3.231  14.238 -0.1527 -0.4235 -0.2422
12955TIP3    H160280   1.651   3.159  14.216  0.7472 -1.1875 -0.2217
12955TIP3    H260281   1.798   3.196  14.220  0.2966  0.6632 -0.2119
12956TIP3   OH260282   3.477   4.031  16.817  0.1226 -0.2907  0.0284
12956TIP3    H160283   3.491   4.028  16.912  2.1503  0.0533 -0.2180
12956TIP3    H260284   3.461   4.124  16.798  1.6116 -0.0434 -0.1588
12957TIP3   OH260285   5.536   4.175  12.030 -0.3376  0.1801  0.1877
12957TIP3    H160286   5.513   4.178  12.123  2.0699  1.8376  0.8221
12957TIP3    H260287   5.478   4.239  11.989 -1.8531 -1.0031  0.3590
12958TIP3   OH260288   2.016   3.395  12.150 -1.2585 -0.1102 -0.4444
12958TIP3    H160289   1.957   3.320  12.158 -1.8087  0.2386 -1.1269
12958TIP3    H260290   1.958   3.471  12.143 -0.7756  0.1659 -1.9054
12959TIP3   OH260291   2.064   5.815  17.208 -0.6417 -0.1761  0.0453
12959TIP3    H160292   2.030   5.781  17.290 -0.0076 -2.0863 -0.4299
12959TIP3    H260293   2.004   5.885  17.183 -0.5337  0.8369  2.3840
12960TIP3   OH260294   5.701   4.394  13.468 -0.4252  0.2561 -0.0803
12960TIP3    H160295   5.666   4.317  13.512 -0.3812  0.6496  0.6585
12960TIP3    H260296   5.739   4.360  13.387  0.8524 -0.6966  0.8785
12961TIP3   OH260297   0.564   0.252   2.168  0.2072  0.3055  0.2417
12961TIP3    H160298   0.621   0.326   2.188 -0.1424  1.6764 -3.2162
12961TIP3    H260299   0.481   0.274   2.211  1.0405  0.3031  1.9034
12962TIP3   OH260300   1.482   2.258   0.251 -0.6357  0.9042 -0.5123
12962TIP3    H160301   1.499   2.185   0.191 -2.9445 -0.0332 -0.1401
12962TIP3    H260302   1.553   2.320   0.234 -0.1845 -0.1322 -2.8926
12963TIP3   OH260303   6.353   4.622   1.418  0.1677  0.2872  0.2792
12963TIP3    H160304   6.357   4.527   1.428  0.1348  0.2295 -0.2301
12963TIP3    H260305   6.306   4.652   1.496 -1.8323 -0.3188 -0.6260
12964TIP3   OH260306   0.103   3.071  12.916 -0.4270  0.4345  0.1948
12964TIP3    H160307   0.094   3.020  12.835  0.7478 -0.1654  0.4103
12964TIP3    H260308   0.044   3.030  12.978  0.7575 -0.9486  0.4735
12965TIP3   OH260309   3.111   6.441   0.511  0.4649  0.2362  0.3167
12965TIP3    H160310   3.187   6.401   0.470 -0.2187  0.8651 -1.6737
12965TIP3    H260311   3.039   6.426   0.449 -1.0607 -0.3248  2.1169
12966TIP3   OH260312   1.107   6.330  11.988 -0.1689  0.3412 -0.5874
12966TIP3    H160313   1.045   6.319  12.060  1.0766  0.4649  0.5297
12966TIP3    H260314   1.095   6.251  11.935 -0.7181 -0.0080  0.0381
12967TIP3   OH260315   4.687   2.746   0.173 -0.3509 -0.2559  0.4309
12967TIP3    H160316   4.764   2.690   0.174 -0.3463 -0.2571  0.2306
12967TIP3    H260317   4.625   2.700   0.116 -0.8019 -0.6451  1.2271
12968TIP3   OH260318   5.611   2.660   4.337 -0.0739  0.3022 -0.3138
12968TIP3    H160319   5.656   2.586   4.296 -1.6396 -0.8257 -0.0913
12968TIP3    H260320   5.520   2.651   4.309 -0.1130  2.9456 -1.3835
12969TIP3   OH260321   5.671   1.817   4.808 -0.2584  0.0241 -0.0679
12969TIP3    H160322   5.635   1.728   4.812  0.3200 -0.2356 -0.4680
12969TIP3    H260323   5.729   1.823   4.883 -0.9131  0.3490  0.4213
12970TIP3   OH260324   0.461   5.192   0.852  0.3209  0.4519 -0.5314
12970TIP3    H160325   0.494   5.130   0.787  0.0372 -0.5459  0.2382
12970TIP3    H260326   0.458   5.142   0.934 -1.1951  1.0687 -0.1557
12971TIP3   OH260327   0.619   1.731   0.249  0.3705  0.1750  0.2661
12971TIP3    H160328   0.696   1.774   0.213 -0.6364 -0.6245 -3.2576
12971TIP3    H260329   0.633   1.638   0.233  0.1221 -0.3626  2.7759
12972TIP3   OH260330   4.359   6.093  14.935  0.0366 -0.0010 -0.2169
12972TIP3    H160331   4.429   6.028  14.938  1.1393  1.0137 -2.1021
12972TIP3    H260332   4.280   6.044  14.956  1.0812 -1.5117  0.3642
12973TIP3   OH260333   5.099   4.167   3.347  0.0380 -0.5258  0.3488
12973TIP3    H160334   5.189   4.137   3.333 -0.1125 -0.2544 -1.3521
12973TIP3    H260335   5.073   4.207   3.265 -1.4406 -0.0284  1.0155
12974TIP3   OH260336   2.105   6.060  12.064 -0.0572  0.9167  0.5166
12974TIP3    H160337   2.080   6.038  12.154  0.4578  0.9014  0.6630
12974TIP3    H260338   2.158   5.985  12.036  1.9389  2.0198  1.1104
12975TIP3   OH260339   5.089   3.199  12.478  0.8203  0.0601  0.1707
12975TIP3    H160340   5.087   3.206  12.382 -0.4074  1.9158  0.2693
12975TIP3    H260341   5.172   3.238  12.503  0.2445  1.5614 -0.0907
12976TIP3   OH260342   6.724   5.960  11.796 -0.8773  0.0876  0.5277
12976TIP3    H160343   6.812   5.952  11.832 -0.5160  2.4669  0.3774
12976TIP3    H260344   6.666   5.941  11.870 -0.1745  1.2629  1.4258
12977TIP3   OH260345   5.984   3.521   0.638 -0.0711 -0.7534  0.2502
12977TIP3    H160346   5.978   3.432   0.674  2.1141 -0.6513  1.0139
12977TIP3    H260347   5.984   3.508   0.543  0.2038 -1.5967  0.3532
12978TIP3   OH260348   2.064   0.865  10.617 -0.4963 -0.7145 -0.1460
12978TIP3    H160349   1.983   0.862  10.566 -1.1382  0.7893  0.7239
12978TIP3    H260350   2.045   0.814  10.696 -0.7390 -0.0850  0.2140
12979TIP3   OH260351   1.743   6.109   2.636  0.1479  0.1431  0.1963
12979TIP3    H160352   1.672   6.171   2.616  0.2515 -0.2797 -1.5929
12979TIP3    H260353   1.720   6.029   2.589  2.5298  0.4702 -1.7073
12980TIP3   OH260354   6.438   5.895  12.349  0.1988 -0.2952 -0.3911
12980TIP3    H160355   6.425   5.936  12.435  0.3800 -1.5234  0.2482
12980TIP3    H260356   6.353   5.905  12.305 -0.1158 -0.2638  0.2095
12981TIP3   OH260357   4.541   2.008   2.080 -1.1634 -0.3838  0.8571
12981TIP3    H160358   4.457   1.968   2.058 -1.2357  0.2701 -0.1173
12981TIP3    H260359   4.603   1.935   2.082 -1.0098 -0.4539 -2.3004
12982TIP3   OH260360   5.044   0.019  12.905 -0.0809 -0.2583  0.2960
12982TIP3    H160361   5.125   0.028  12.856  0.4319  0.4403  1.2343
12982TIP3    H260362   4.985   0.084  12.867 -0.2392 -0.8079 -0.4258
12983TIP3   OH260363   1.026   0.963   4.751 -0.7326 -0.2993 -0.9503
12983TIP3    H160364   1.022   1.053   4.720  0.5949  0.5574  1.1325
12983TIP3    H260365   0.944   0.951   4.801  0.0875  0.5742  0.6759
12984TIP3   OH260366   5.687   1.249  12.148  0.2639  0.1158  0.5004
12984TIP3    H160367   5.631   1.325  12.135 -0.1040 -0.0364  1.1403
12984TIP3    H260368   5.734   1.238  12.065  1.6377  2.1164  0.9370
12985TIP3   OH260369   2.540   6.448   0.101 -0.5079 -0.2193 -0.2627
12985TIP3    H160370   2.501   6.366   0.130  0.8000 -1.1678 -1.0399
12985TIP3    H260371   2.628   6.423   0.072 -1.1191  0.8531 -3.4938
12986TIP3   OH260372   2.922   0.076  14.814  0.1236  0.3942 -0.6988
12986TIP3    H160373   2.901   0.145  14.877 -1.6587  0.5418 -1.3913
12986TIP3    H260374   2.938  -0.002  14.867  1.5328  1.1539  0.0602
12987TIP3   OH260375   2.524   1.781   2.916  0.2084 -0.1212 -0.5596
12987TIP3    H160376   2.519   1.821   3.003 -0.5930 -0.5300 -0.4123
12987TIP3    H260377   2.563   1.695   2.931 -1.0164 -0.6732 -0.4244
12988TIP3   OH260378   1.127   4.954  11.261 -0.3354  0.1386 -0.4362
12988TIP3    H160379   1.159   4.876  11.215 -1.2554  0.1306 -1.0730
12988TIP3    H260380   1.048   4.925  11.306  1.0106 -0.0998  1.9669
12989TIP3   OH260381   1.131   4.868  17.174  0.0170 -0.2032 -0.0990
12989TIP3    H160382   1.060   4.902  17.229  0.8281 -0.9496  1.4627
12989TIP3    H260383   1.091   4.857  17.088 -0.8636  2.5996 -0.1632
12990TIP3   OH260384   2.092   3.719  12.775 -0.4820 -0.1076  0.2040
12990TIP3    H160385   2.151   3.790  12.750  1.0353 -1.0255  1.0938
12990TIP3    H260386   2.119   3.695  12.863 -1.9898 -0.7902  0.5117
12991TIP3   OH260387   3.831   0.074  14.642 -0.0231  0.3183 -0.1626
12991TIP3    H160388   3.855   0.009  14.576 -0.0597 -0.0161  0.1493
12991TIP3    H260389   3.747   0.042  14.677 -0.2675  0.7720 -0.3221
12992TIP3   OH260390   3.837   3.024   3.144 -0.3447  0.5868 -0.1951
12992TIP3    H160391   3.755   3.074   3.152  0.3202  1.4476  1.9786
12992TIP3    H260392   3.809   2.933   3.142 -1.3780  0.8777 -0.0014
12993TIP3   OH260393   4.917   4.133   6.698 -0.1635  0.0538 -0.0732
12993TIP3    H160394   4.974   4.127   6.774 -1.2965  0.2120  0.8307
12993TIP3    H260395   4.955   4.073   6.634  0.8776  0.0036  0.5672
12994TIP3   OH260396   0.423   0.289  15.748 -0.4042 -0.6196 -0.1506
12994TIP3    H160397   0.331   0.289  15.773 -0.6577 -1.1423 -1.0220
12994TIP3    H260398   0.448   0.197  15.747 -0.8201 -0.7922 -3.1293
12995TIP3   OH260399   1.366   4.490   1.143  0.1351  0.3140 -0.0555
12995TIP3    H160400   1.270   4.495   1.147  0.1721  0.5737  0.6701
12995TIP3    H260401   1.385   4.472   1.051 -0.5569  1.6088 -0.4848
12996TIP3   OH260402   0.758   3.623   0.610  0.3202 -0.4282  0.0226
12996TIP3    H160403   0.846   3.606   0.575  0.4095 -1.1710  0.5899
12996TIP3    H260404   0.732   3.706   0.570  1.9212  0.6123  1.0445
12997TIP3   OH260405   5.073   2.241   0.269  0.2609  0.3999  0.1098
12997TIP3    H160406   5.137   2.313   0.270 -1.2751  1.8104  0.9654
12997TIP3    H260407   5.069   2.214   0.177  1.5099  0.7806 -0.0803
12998TIP3   OH260408   2.535   5.966   4.107  0.4960  0.8207  0.2488
12998TIP3    H160409   2.582   5.933   4.030  1.0046  0.0787  0.8546
12998TIP3    H260410   2.604   6.004   4.162  0.1090  1.5387  0.2465
12999TIP3   OH260411   5.786   0.014  11.785  0.0373 -0.2365  0.0888
12999TIP3    H160412   5.839  -0.059  11.752 -0.2567 -0.0884 -0.7166
12999TIP3    H260413   5.727  -0.026  11.849  1.8862 -0.2439  1.9284
13000TIP3   OH260414   2.468   3.023  16.368  0.5356 -0.1234  0.7355
13000TIP3    H160415   2.386   3.013  16.321  1.4045  0.0708 -0.9073
13000TIP3    H260416   2.464   3.111  16.406  1.3113  1.3183 -2.2159
13001TIP3   OH260417   2.681   4.189  11.937 -0.3579  0.1868  0.4352
13001TIP3    H160418   2.627   4.213  11.861 -1.2062 -1.6326  0.4190
13001TIP3    H260419   2.689   4.270  11.987 -0.9395  1.1001 -0.8955
13002TIP3   OH260420   4.446   4.103  15.187 -0.5169  0.3773 -0.5462
13002TIP3    H160421   4.368   4.156  15.203 -0.3369  0.3848  0.3706
13002TIP3    H260422   4.512   4.165  15.156 -0.8168  0.3955 -1.1735
13003TIP3   OH260423   1.149   5.390  15.886 -0.0464  0.2791  0.7268
13003TIP3    H160424   1.244   5.397  15.877 -0.0905 -0.1847 -0.2698
13003TIP3    H260425   1.114   5.440  15.813 -0.5873  0.8325  1.3551
13004TIP3   OH260426   5.060   1.097   1.470 -0.6327  0.2547 -0.1685
13004TIP3    H160427   5.039   1.174   1.417 -1.8854  0.0894  0.0563
13004TIP3    H260428   5.001   1.029   1.438  0.9091 -0.8264 -0.8074
13005TIP3   OH260429   2.161   2.282  13.697 -0.2772  0.1732 -0.0304
13005TIP3    H160430   2.116   2.198  13.698 -0.9482  0.4744 -1.3470
13005TIP3    H260431   2.203   2.285  13.611 -1.2934  1.6791 -0.5152
13006TIP3   OH260432   1.084   0.952  14.522  0.1566 -0.2658 -0.1921
13006TIP3    H160433   1.017   0.892  14.488 -2.7544  1.0400  2.6334
13006TIP3    H260434   1.074   1.031  14.469 -0.1620 -0.2734 -0.1466
13007TIP3   OH260435   1.133   0.860   1.489 -0.0080 -0.7358  0.3409
13007TIP3    H160436   1.171   0.773   1.478  1.4611 -0.0324 -0.5105
13007TIP3    H260437   1.155   0.884   1.579 -0.1469 -1.1295  0.4805
13008TIP3   OH260438   5.314   5.237  12.393  0.0417  0.2164  0.4498
13008TIP3    H160439   5.292   5.250  12.486 -0.6882  1.0638  0.1764
13008TIP3    H260440   5.378   5.305  12.374  0.6008 -0.2993  0.4566
13009TIP3   OH260441   5.492   0.947  16.941  0.1534 -0.6084 -0.4124
13009TIP3    H160442   5.558   0.908  16.883 -0.3963 -0.1299 -1.3724
13009TIP3    H260443   5.517   1.040  16.946  0.5132 -0.7437  0.5712
13010TIP3   OH260444   1.914   1.517   5.285  0.2875 -0.6725  0.0951
13010TIP3    H160445   1.902   1.430   5.323 -0.3226 -0.3888  0.5715
13010TIP3    H260446   1.949   1.569   5.358 -0.4049 -0.2507  0.1376
13011TIP3   OH260447   2.896   4.256   6.115 -0.5756 -0.6016 -0.5037
13011TIP3    H160448   2.844   4.176   6.127  0.3802 -1.4483 -1.7558
13011TIP3    H260449   2.875   4.309   6.191 -0.3880 -2.5176  0.9779
13012TIP3   OH260450   6.516   6.521  11.602  0.4028 -0.0435 -0.0716
13012TIP3    H160451   6.598   6.569  11.590  0.3915  0.2212  0.8886
13012TIP3    H260452   6.456   6.584  11.642 -0.0581 -0.4470 -0.1101
13013TIP3   OH260453   4.078   5.383   6.736 -0.1699 -0.6233 -0.0118
13013TIP3    H160454   3.993   5.385   6.690  0.6630  0.0664 -1.6240
13013TIP3    H260455   4.113   5.471   6.723  1.2472 -1.2136 -0.2908
13014TIP3   OH260456   0.128   5.595   4.917  0.0054 -0.2138 -0.4987
13014TIP3    H160457   0.119   5.502   4.899 -1.5254 -0.4161  1.0466
13014TIP3    H260458   0.049   5.634   4.880  0.0779  0.2959 -0.1255
13015TIP3   OH260459   0.673   3.676   1.419  1.0602  0.5676 -0.4065
13015TIP3    H160460   0.663   3.649   1.328 -0.1917  0.8045 -0.3577
13015TIP3    H260461   0.614   3.750   1.429  0.7583  0.1970  0.7360
13016TIP3   OH260462   6.329   1.650   4.624 -0.7578 -0.1505  0.0954
13016TIP3    H160463   6.252   1.625   4.675 -1.1194 -1.2626 -0.9550
13016TIP3    H260464   6.293   1.689   4.544 -0.2358 -0.3159 -0.2247
13017TIP3   OH260465   3.431   5.904   1.383 -0.2118 -0.5007  0.1015
13017TIP3    H160466   3.410   5.813   1.404 -2.3520 -0.1523 -0.2303
13017TIP3    H260467   3.355   5.953   1.414  0.8490  1.1748  0.1670
13018TIP3   OH260468   5.428   4.413   2.944 -0.0813  0.5847  0.0243
13018TIP3    H160469   5.408   4.320   2.944 -1.8300  0.8490  2.7012
13018TIP3    H260470   5.377   4.448   2.871 -1.8775 -0.1791  0.8536
13019TIP3   OH260471   3.156   0.000   5.070  0.3964 -0.2726 -0.0186
13019TIP3    H160472   3.193   0.074   5.119 -1.6624  0.0597  1.1245
13019TIP3    H260473   3.094   0.040   5.010 -0.0121 -1.0117 -0.0961
13020TIP3   OH260474   2.738   3.974  14.327 -0.2816 -0.0680 -0.8175
13020TIP3    H160475   2.690   4.042  14.279  0.4063 -0.4413 -2.0635
13020TIP3    H260476   2.771   4.019  14.405 -3.1950  0.0514  0.4969
13021TIP3   OH260477   1.050   4.782  12.727 -0.4122  0.0425  0.3645
13021TIP3    H160478   0.995   4.704  12.720  0.6219 -0.7432  0.7530
13021TIP3    H260479   1.045   4.823  12.640 -1.6260  0.0248  0.4033
13022TIP3   OH260480   5.004   0.024   0.266 -0.3622  0.3418  0.2251
13022TIP3    H160481   5.022   0.071   0.347 -2.1993  1.7509 -0.1113
13022TIP3    H260482   4.950  -0.051   0.292  0.9787 -0.5313  0.5444
13023TIP3   OH260483   5.638   2.280  16.395 -0.3980 -0.7386 -0.4834
13023TIP3    H160484   5.590   2.246  16.471 -0.1380 -1.7586 -0.7570
13023TIP3    H260485   5.574   2.333  16.348 -0.5820 -0.1461  0.4081
13024TIP3   OH260486   3.737   6.591   5.184 -0.2287  0.5972  0.7138
13024TIP3    H160487   3.716   6.527   5.253 -0.4049  0.4694  0.5434
13024TIP3    H260488   3.767   6.668   5.231 -3.0632  1.5835  1.0993
13025TIP3   OH260489   0.552   2.723  16.463  0.1932 -0.0185 -0.1927
13025TIP3    H160490   0.499   2.654  16.502  0.2493  0.3527  0.5506
13025TIP3    H260491   0.639   2.712  16.502  0.1476  0.5978  0.0911
13026TIP3   OH260492   4.167   0.986   2.829 -0.9100 -0.0797 -0.4305
13026TIP3    H160493   4.177   0.933   2.750  1.1652 -1.6834  0.8183
13026TIP3    H260494   4.154   0.922   2.899 -0.1988  1.1649  0.8759
13027TIP3   OH260495   1.685   5.071  12.420  0.5353  0.1073 -0.4631
13027TIP3    H160496   1.713   4.996  12.472 -1.5121 -2.3492 -2.6893
13027TIP3    H260497   1.590   5.069  12.423  0.3826  3.0996 -0.0681
13028TIP3   OH260498   1.482   1.146  16.033  0.0307 -0.7176 -0.4762
13028TIP3    H160499   1.439   1.171  16.114 -1.3172 -1.9624 -0.7653
13028TIP3    H260500   1.505   1.229  15.991  0.7604 -0.0500  1.1396
13029TIP3   OH260501   3.997   1.357   4.899  0.0936 -0.5281  0.0628
13029TIP3    H160502   4.047   1.394   4.972 -0.5699 -0.9378  0.7372
13029TIP3    H260503   3.919   1.413   4.893  0.7628  0.3310 -1.2172
13030TIP3   OH260504   1.681   4.985  16.231  0.1060 -0.1128 -0.0679
13030TIP3    H160505   1.773   5.008  16.215 -0.1477  1.2110  0.2008
13030TIP3    H260506   1.684   4.912  16.293  0.9752  0.3294  0.4279
13031TIP3   OH260507   2.666   1.433  15.923  0.0439  0.1470  0.1044
13031TIP3    H160508   2.675   1.342  15.895 -1.3881  0.0550 -0.1559
13031TIP3    H260509   2.663   1.429  16.019 -0.1542 -0.0961  0.0874
13032TIP3   OH260510   0.480   0.500  11.326  0.0541 -0.6592  0.2830
13032TIP3    H160511   0.511   0.521  11.414  0.4337 -0.4641  0.1025
13032TIP3    H260512   0.532   0.555  11.268  0.0941 -1.0943 -0.0946
13033TIP3   OH260513   6.512   5.693   2.584 -0.1396  0.1110  0.2149
13033TIP3    H160514   6.444   5.718   2.646  1.8528 -0.2624  2.7044
13033TIP3    H260515   6.514   5.597   2.588 -0.7205  0.0015 -1.3381
13034TIP3   OH260516   4.990   2.777   1.210  0.0998 -0.1239  0.8704
13034TIP3    H160517   4.928   2.831   1.259 -2.5928 -0.2652 -2.0130
13034TIP3    H260518   4.962   2.785   1.119  2.1293 -3.1505 -0.2044
13035TIP3   OH260519   3.667   5.014  14.464  0.2786  0.1819  0.1903
13035TIP3    H160520   3.597   4.991  14.527 -0.0697 -0.0410 -0.2712
13035TIP3    H260521   3.631   5.088  14.415  1.0852  1.2334  1.1364
13036TIP3   OH260522   1.459   5.460   3.251 -0.3797 -0.3657 -0.8482
13036TIP3    H160523   1.424   5.488   3.336  0.9700 -0.7884 -0.1297
13036TIP3    H260524   1.475   5.366   3.261 -0.1783 -0.4132 -1.5549
13037TIP3   OH260525   2.347   2.864  15.540 -0.0239  0.4479  0.0380
13037TIP3    H160526   2.388   2.950  15.533  1.8152 -0.3590  0.3970
13037TIP3    H260527   2.253   2.883  15.550  0.2895  2.3725 -0.3200
13038TIP3   OH260528   1.449   1.080  15.244 -0.2576 -0.7420 -0.8404
13038TIP3    H160529   1.454   1.016  15.315 -0.6352  0.3949  0.2480
13038TIP3    H260530   1.443   1.165  15.288 -1.0263 -0.0344 -2.2247
13039TIP3   OH260531   3.805   0.393  17.376 -0.1718  0.1744 -0.4998
13039TIP3    H160532   3.725   0.388  17.324  0.2037  1.3076 -1.2028
13039TIP3    H260533   3.832   0.484  17.371 -0.2955  0.4302  1.9617
13040TIP3   OH260534   5.550   1.254  14.393  0.3353 -0.7327 -0.5001
13040TIP3    H160535   5.618   1.297  14.446  0.5582 -0.6821 -0.8217
13040TIP3    H260536   5.526   1.176  14.443  1.2669 -1.2259 -0.7929
13041TIP3   OH260537   3.189   3.903   1.597 -0.0768 -0.2988  0.1642
13041TIP3    H160538   3.164   3.980   1.547 -1.1114 -2.6639 -3.3222
13041TIP3    H260539   3.284   3.908   1.605 -0.1117  1.1830 -0.1711
13042TIP3   OH260540   2.780   5.337  14.191  0.1950 -0.0027  0.2620
13042TIP3    H160541   2.830   5.332  14.110 -0.5973 -0.0790 -0.2393
13042TIP3    H260542   2.689   5.351  14.162  0.2327  2.7094  1.1675
13043TIP3   OH260543   2.402   3.884   2.916  0.1128 -0.6784 -0.1573
13043TIP3    H160544   2.438   3.906   2.830  0.2618 -1.3901 -0.2833
13043TIP3    H260545   2.346   3.808   2.900 -3.9347  2.1091 -0.5029
13044TIP3   OH260546   4.746   1.506  14.878 -0.3457 -0.0706  0.3139
13044TIP3    H160547   4.736   1.557  14.797  0.2585 -0.4865 -0.0292
13044TIP3    H260548   4.837   1.477  14.877 -0.1183  0.5410  1.5170
13045TIP3   OH260549   4.304   4.485   2.312 -0.0073  0.7265  0.6526
13045TIP3    H160550   4.230   4.435   2.345 -0.8939 -0.3065 -2.5234
13045TIP3    H260551   4.310   4.560   2.371 -4.5362  1.6436  0.3280
13046TIP3   OH260552   5.921   4.326  12.459  0.0825  0.1645 -0.0439
13046TIP3    H160553   5.943   4.263  12.390  0.4357  0.2469 -0.0047
13046TIP3    H260554   5.941   4.411  12.421  1.6908  0.1423  0.6717
13047TIP3   OH260555   6.033   3.023  16.858 -0.4072  0.3106  0.3366
13047TIP3    H160556   6.082   3.102  16.836 -0.1131 -0.1073 -0.5712
13047TIP3    H260557   5.956   3.025  16.801 -0.1215 -0.3161 -0.0870
13048TIP3   OH260558   5.289   2.049  12.786 -0.3171  0.3562 -0.5706
13048TIP3    H160559   5.313   2.142  12.785  0.3530  0.1907 -0.7162
13048TIP3    H260560   5.289   2.023  12.694  1.1781 -0.1867 -0.4437
13049TIP3   OH260561   3.812   3.690   2.442 -0.1738  0.1976 -0.0692
13049TIP3    H160562   3.753   3.738   2.500  0.4471  0.8117  0.0633
13049TIP3    H260563   3.766   3.608   2.424 -1.4455  0.9900 -0.6317
13050TIP3   OH260564   1.099   0.129   0.928  0.5837 -0.3106  0.0821
13050TIP3    H160565   1.041   0.203   0.909  1.0993  0.4565  1.3239
13050TIP3    H260566   1.133   0.102   0.843  0.9865  1.3948 -0.3410
13051TIP3   OH260567   0.597   6.644   2.991  0.2875  0.1320  0.1601
13051TIP3    H160568   0.511   6.652   3.034 -1.1919 -0.8521 -2.3940
13051TIP3    H260569   0.602   6.552   2.965  0.6274  0.8441 -2.5492
13052TIP3   OH260570   6.069   1.426  16.505  0.3981  0.1793 -0.5394
13052TIP3    H160571   6.030   1.372  16.574 -0.6916  0.6149 -0.8048
13052TIP3    H260572   6.030   1.393  16.424  2.5846 -1.1646 -1.1256
13053TIP3   OH260573   2.445   1.677  12.093  0.2942 -0.4172 -0.4334
13053TIP3    H160574   2.539   1.673  12.114  0.0026 -2.3687  0.7736
13053TIP3    H260575   2.429   1.769  12.073  2.3490  0.0692 -0.0856
13054TIP3   OH260576   6.441   5.066   5.351 -0.6424  0.0517  0.1269
13054TIP3    H160577   6.396   4.982   5.345  0.0501 -0.2344 -1.7862
13054TIP3    H260578   6.371   5.129   5.371 -1.5725 -0.6553 -0.7656
13055TIP3   OH260579   1.583   2.034  15.570 -0.3839 -0.1582  0.1149
13055TIP3    H160580   1.584   2.043  15.665 -2.0523  1.2190  0.0533
13055TIP3    H260581   1.508   1.977  15.552 -0.0294 -0.4799 -0.3892
13056TIP3   OH260582   2.765   4.975   4.098  0.1829  0.3135 -0.0408
13056TIP3    H160583   2.750   5.062   4.134  1.1921 -0.3052  2.0294
13056TIP3    H260584   2.857   4.976   4.071 -0.0536  0.1589 -0.8877
13057TIP3   OH260585   3.677   5.633  12.054  0.0568  0.7323  0.1908
13057TIP3    H160586   3.582   5.634  12.047  0.1688 -0.3015 -2.1428
13057TIP3    H260587   3.705   5.714  12.012  0.2414  0.7400  0.3281
13058TIP3   OH260588   4.452   1.376  15.128  0.3435  0.2450  0.3008
13058TIP3    H160589   4.511   1.304  15.147  1.3521  1.2326  1.0652
13058TIP3    H260590   4.367   1.347  15.162 -0.1406 -1.9470 -2.4282
13059TIP3   OH260591   5.301   6.686   2.044  0.1259  0.4334 -0.0470
13059TIP3    H160592   5.290   6.770   1.999  1.2157  0.0606 -1.0616
13059TIP3    H260593   5.388   6.656   2.016  0.4162 -0.2883  1.5381
13060TIP3   OH260594   1.049   1.709   6.449 -0.2941 -0.1261 -0.6322
13060TIP3    H160595   1.036   1.637   6.387 -0.3269 -1.1614  0.5324
13060TIP3    H260596   0.978   1.698   6.512 -0.7743  1.4256 -0.8640
13061TIP3   OH260597   2.367   5.502   2.818  0.2358 -0.1232  0.2544
13061TIP3    H160598   2.345   5.439   2.749 -3.2045 -0.2422  1.2705
13061TIP3    H260599   2.342   5.457   2.899 -0.7930  1.9594  1.1387
13062TIP3   OH260600   2.792   6.634   0.485 -0.2918  0.4145  0.0379
13062TIP3    H160601   2.744   6.715   0.471  0.9286  0.5983 -4.3328
13062TIP3    H260602   2.723   6.567   0.491 -1.1997  1.3314  0.2645
13063TIP3   OH260603   2.836   2.036   2.162 -0.2766  0.3436  0.3080
13063TIP3    H160604   2.763   1.976   2.178 -0.6246  0.3427 -1.1019
13063TIP3    H260605   2.914   1.982   2.171 -0.4489  0.2439  1.3992
13064TIP3   OH260606   0.314   2.045   2.245  0.4243 -0.0753 -0.2066
13064TIP3    H160607   0.251   2.044   2.173 -0.0569 -0.3526  0.2089
13064TIP3    H260608   0.315   2.136   2.276 -1.2714 -0.4463  1.0602
13065TIP3   OH260609   4.465   5.855   2.624  0.0102 -0.1900 -0.2763
13065TIP3    H160610   4.552   5.816   2.613  0.7762  1.4114 -0.2426
13065TIP3    H260611   4.430   5.813   2.703  0.1759 -1.8241 -1.0453
13066TIP3   OH260612   1.054   5.011   5.510 -0.1044  0.1306 -0.2809
13066TIP3    H160613   1.002   5.060   5.574  0.8616  2.3911 -1.1271
13066TIP3    H260614   0.991   4.950   5.471 -1.1344 -0.0396  1.5159
13067TIP3   OH260615   0.202   5.461   1.188 -0.3567 -0.4078 -0.5020
13067TIP3    H160616   0.125   5.474   1.133 -0.0657  0.5322 -0.6947
13067TIP3    H260617   0.265   5.527   1.158 -0.5734  0.8569  1.6427
13068TIP3   OH260618   2.550   4.723   0.259  0.6345 -0.0686  0.3157
13068TIP3    H160619   2.623   4.661   0.261 -0.8240 -1.9012 -0.4894
13068TIP3    H260620   2.590   4.808   0.276  2.7188 -1.2145  1.4633
13069TIP3   OH260621   6.087   5.441  14.165 -0.2961  0.1681  0.5922
13069TIP3    H160622   6.164   5.391  14.193  0.2931  1.6773  1.8111
13069TIP3    H260623   6.047   5.387  14.097  1.9048 -0.6169 -0.1944
13070TIP3   OH260624   3.928   1.132   1.033  0.1346 -0.3242 -0.0835
13070TIP3    H160625   3.843   1.094   1.053 -0.7851  1.5839 -0.1617
13070TIP3    H260626   3.909   1.204   0.972  1.8308 -0.0499 -0.3383
13071TIP3   OH260627   0.103   4.998  13.578 -0.3796  0.9250  0.2753
13071TIP3    H160628   0.122   5.020  13.669  0.3955  0.6875  0.1792
13071TIP3    H260629   0.008   4.990  13.575 -0.4278  1.0868  1.0253
13072TIP3   OH260630   6.679   2.754   0.590  0.5991  0.1368  0.0504
13072TIP3    H160631   6.651   2.687   0.652 -2.0687 -0.4046 -1.5588
13072TIP3    H260632   6.750   2.714   0.541  1.8916  0.1195  1.8567
13073TIP3   OH260633   3.452   2.303  14.332 -0.0607 -0.1956  0.3000
13073TIP3    H160634   3.531   2.254  14.355 -0.8988 -1.9618 -0.4068
13073TIP3    H260635   3.458   2.316  14.238 -0.2992  0.2548  0.3457
13074TIP3   OH260636   1.461   3.140  14.746  0.2835 -0.2003 -0.1875
13074TIP3    H160637   1.398   3.207  14.721  0.6603 -0.7807 -2.9966
13074TIP3    H260638   1.416   3.057  14.731  0.9498 -0.5989 -0.0572
13075TIP3   OH260639   3.135   6.164  14.844 -0.3209  1.0750  0.4200
13075TIP3    H160640   3.175   6.157  14.930 -1.0704  0.8070  0.7570
13075TIP3    H260641   3.203   6.137  14.783  0.1951  1.2118  0.9313
13076TIP3   OH260642   4.615   2.266   1.607  0.2499 -0.2346  0.5433
13076TIP3    H160643   4.635   2.215   1.685  1.5187 -1.0540 -0.2752
13076TIP3    H260644   4.694   2.260   1.553 -0.6335  0.1841 -0.8601
13077TIP3   OH260645   4.636   5.660   2.476 -0.1124  0.9252 -0.0210
13077TIP3    H160646   4.647   5.647   2.382 -0.3600  3.5314 -0.4770
13077TIP3    H260647   4.666   5.578   2.515 -1.3275 -0.7642 -2.4071
13078TIP3   OH260648   2.490   6.285  13.083  0.2458  0.1133 -0.0067
13078TIP3    H160649   2.395   6.278  13.091  0.2639  0.4811  0.5633
13078TIP3    H260650   2.504   6.310  12.992 -0.2417  0.7203  0.0755
13079TIP3   OH260651   2.080   0.630  16.639  0.3937  0.9587 -0.3734
13079TIP3    H160652   1.990   0.625  16.673  0.3295 -0.6750 -0.7195
13079TIP3    H260653   2.130   0.572  16.695  0.6696 -0.2992 -1.8596
13080TIP3   OH260654   5.736   1.740   4.552  0.8548  0.5501 -0.2253
13080TIP3    H160655   5.825   1.739   4.517  1.7810  2.9320  1.8217
13080TIP3    H260656   5.746   1.750   4.646 -1.6034  0.5206  0.1279
13081TIP3   OH260657   6.123   2.209  12.564  0.3450 -0.0973  0.3869
13081TIP3    H160658   6.191   2.240  12.504  1.9277 -1.7820  1.1948
13081TIP3    H260659   6.157   2.230  12.651 -1.3129  1.1515  0.7797
13082TIP3   OH260660   5.984   2.939  12.168 -0.4052  0.6041  0.3636
13082TIP3    H160661   6.037   3.002  12.217  0.8468 -1.6409  2.1244
13082TIP3    H260662   5.898   2.942  12.210  0.4639 -0.8133  2.4627
13083TIP3   OH260663   5.585   0.182   3.898 -0.3254  0.3052 -0.1379
13083TIP3    H160664   5.622   0.104   3.939 -0.8630  0.0586 -0.1196
13083TIP3    H260665   5.603   0.253   3.960  2.0016  0.6072 -1.0592
13084TIP3   OH260666   6.614   6.244  15.842 -0.2375  0.1580 -0.0897
13084TIP3    H160667   6.655   6.169  15.798 -0.1812 -0.9998  1.8606
13084TIP3    H260668   6.681   6.313  15.838  0.7977 -0.7810  0.4978
13085TIP3   OH260669   0.022   2.850   5.270 -0.8697  0.0236 -0.1006
13085TIP3    H160670   0.041   2.846   5.364 -2.1837 -1.1269  0.1478
13085TIP3    H260671  -0.063   2.893   5.265 -0.4985  0.7018 -0.8381
13086TIP3   OH260672   1.632   2.293   0.503  0.2689  0.2737  0.2672
13086TIP3    H160673   1.647   2.205   0.467  0.7617  0.4632  0.0034
13086TIP3    H260674   1.603   2.344   0.428  0.0771  0.3636  0.4019
13087TIP3   OH260675   5.057   1.108  15.985  0.3658 -0.0662 -0.6867
13087TIP3    H160676   5.138   1.057  15.986 -0.1892 -0.9998  0.7293
13087TIP3    H260677   4.988   1.042  15.977 -0.5260  0.0729  3.5991
13088TIP3   OH260678   0.423   6.034  11.180  0.2935 -0.8823  0.5773
13088TIP3    H160679   0.501   6.014  11.128 -0.1087 -0.6719 -0.1210
13088TIP3    H260680   0.354   6.050  11.115 -0.2443 -0.7050  1.1784
13089TIP3   OH260681   1.773   0.053  15.276 -0.0343  0.2310  0.1367
13089TIP3    H160682   1.823  -0.017  15.317  0.8499  0.8830  0.1831
13089TIP3    H260683   1.777   0.034  15.183 -0.4221 -0.1777  0.1963
13090TIP3   OH260684   1.155   2.576   6.067  0.3872  0.1583  0.3787
13090TIP3    H160685   1.185   2.627   6.142 -0.8194  1.5949 -0.0666
13090TIP3    H260686   1.068   2.544   6.092  0.5847 -0.6029  0.1356
13091TIP3   OH260687   4.589   2.340  12.919 -0.3674  0.7401 -0.3217
13091TIP3    H160688   4.638   2.385  12.851  2.2578 -0.6186  0.5413
13091TIP3    H260689   4.553   2.410  12.974  1.6263  1.8550 -0.3461
13092TIP3   OH260690   5.208   2.539  14.060 -0.0163 -0.3696  0.1483
13092TIP3    H160691   5.128   2.572  14.101  0.1895 -0.0128  0.2665
13092TIP3    H260692   5.230   2.606  13.994  1.1782  0.4550  1.3308
13093TIP3   OH260693   6.326   0.053   1.580  0.3177  0.1171  0.7598
13093TIP3    H160694   6.339   0.054   1.486  0.0237 -3.6080  0.5297
13093TIP3    H260695   6.259   0.120   1.596  0.8017  1.2349 -1.5455
13094TIP3   OH260696   1.848   6.682  16.443 -0.1196 -0.4273  0.2685
13094TIP3    H160697   1.911   6.688  16.515 -0.1954  0.9358  0.2437
13094TIP3    H260698   1.877   6.748  16.380  0.1080 -1.7882 -1.1091
13095TIP3   OH260699   6.623   1.946  16.807 -0.2964  0.5077  0.2062
13095TIP3    H160700   6.596   2.017  16.865 -0.2878  1.3395 -0.7804
13095TIP3    H260701   6.630   1.987  16.721  1.3970 -0.2797 -0.0839
13096TIP3   OH260702   5.565   2.523   4.615  0.1801 -0.5189  0.1339
13096TIP3    H160703   5.595   2.440   4.653 -0.7139 -1.8975 -2.0085
13096TIP3    H260704   5.623   2.537   4.541  1.5425  1.8500  1.5280
13097TIP3   OH260705   0.191   6.255   5.649 -0.2965  0.1490 -0.2418
13097TIP3    H160706   0.278   6.296   5.657 -0.0752 -0.5092  0.9936
13097TIP3    H260707   0.148   6.304   5.579  0.7372  1.0963 -0.2492
13098TIP3   OH260708   2.896   4.140  11.282  0.5165  0.2527 -0.0946
13098TIP3    H160709   2.918   4.097  11.199 -0.5830 -1.7628  0.5877
13098TIP3    H260710   2.964   4.112  11.342  0.3232  0.2411  0.1193
13099TIP3   OH260711   2.213   2.572  14.530 -0.4073  0.4311  0.1123
13099TIP3    H160712   2.284   2.551  14.591  0.6840  2.0635 -0.5191
13099TIP3    H260713   2.147   2.615  14.585 -0.0051  0.7202  0.3781
13100TIP3   OH260714   0.297   4.353  15.641 -0.0347 -0.2832 -0.2540
13100TIP3    H160715   0.202   4.363  15.644 -0.3359 -2.6686  0.1190
13100TIP3    H260716   0.321   4.373  15.551 -1.0578 -0.7725 -0.6505
13101TIP3   OH260717   4.439   1.700   5.033  0.8384 -0.0110 -0.1199
13101TIP3    H160718   4.445   1.694   5.128  2.7157 -3.3459 -0.2659
13101TIP3    H260719   4.530   1.709   5.004  0.2244  2.1021 -1.6517
13102TIP3   OH260720   4.870   5.288  14.111  0.7544  0.2382 -0.1537
13102TIP3    H160721   4.879   5.372  14.156 -0.1909 -0.5678  1.6777
13102TIP3    H260722   4.937   5.232  14.151 -2.1512 -1.4755  2.9395
13103TIP3   OH260723   6.454   1.566   0.222 -0.6453 -0.2478 -0.6907
13103TIP3    H160724   6.472   1.591   0.132  1.2070 -0.7403 -0.4911
13103TIP3    H260725   6.498   1.482   0.233 -0.5441 -0.0254  0.7772
13104TIP3   OH260726   4.963   1.608   3.256 -0.7805 -0.6095  0.3002
13104TIP3    H160727   4.990   1.575   3.171 -0.9280  1.3188 -0.5479
13104TIP3    H260728   5.041   1.601   3.311 -0.6246 -1.6671 -0.0470
13105TIP3   OH260729   0.693   0.467   0.134 -0.1066 -0.4977  0.5582
13105TIP3    H160730   0.661   0.449   0.222 -1.5446 -0.2750  0.1165
13105TIP3    H260731   0.788   0.458   0.140 -0.0752  0.4925  2.3570
13106TIP3   OH260732   4.789   5.808   4.814  0.0330  0.7543  0.9299
13106TIP3    H160733   4.804   5.887   4.865  0.3170  1.4980 -0.2536
13106TIP3    H260734   4.710   5.827   4.763 -1.1184 -0.5441  2.1434
13107TIP3   OH260735   5.343   2.080   0.939 -0.1336 -0.5484 -0.7141
13107TIP3    H160736   5.368   2.033   0.860 -0.4958 -0.5466 -0.8344
13107TIP3    H260737   5.275   2.142   0.910 -0.6342 -0.9013 -0.3157
13108TIP3   OH260738   4.497   4.124  11.193  0.0795 -0.0688  0.2266
13108TIP3    H160739   4.419   4.135  11.249  0.3239  2.0968  0.1948
13108TIP3    H260740   4.507   4.207  11.148  3.7649  0.6141  1.9469
13109TIP3   OH260741   5.610   3.771  17.312 -0.1558 -0.0131  0.4258
13109TIP3    H160742   5.615   3.737  17.222 -1.5709 -0.3374  0.4462
13109TIP3    H260743   5.698   3.803  17.330 -0.0544  0.8731 -1.3937
13110TIP3   OH260744   5.952   2.930  11.681  0.0836  0.3258  0.3839
13110TIP3    H160745   5.919   2.850  11.642  1.3899  0.1405 -0.3937
13110TIP3    H260746   5.958   2.911  11.775  0.2210 -0.4276  0.2265
13111TIP3   OH260747   3.286   3.661  13.806  0.3899 -0.0958  0.5312
13111TIP3    H160748   3.235   3.631  13.882 -0.3797  1.0324  0.4722
13111TIP3    H260749   3.330   3.740  13.837  0.8602 -0.1865  0.0954
13112TIP3   OH260750   1.124   5.877  16.516  0.1671  0.1700 -0.1595
13112TIP3    H160751   1.064   5.951  16.526  0.6939  0.5896 -0.0155
13112TIP3    H260752   1.201   5.915  16.472  1.0313  0.0347  1.1831
13113TIP3   OH260753   5.104   4.286  16.711 -0.5539 -0.6969  0.0593
13113TIP3    H160754   5.113   4.351  16.641  1.5268 -1.0695 -0.1106
13113TIP3    H260755   5.136   4.330  16.789 -0.4671 -1.0643  0.2332
13114TIP3   OH260756   2.446   3.221  12.192 -0.0742  0.6310 -0.0166
13114TIP3    H160757   2.438   3.312  12.165  0.3553  0.9195  0.8037
13114TIP3    H260758   2.357   3.196  12.218 -0.2945  0.6490 -0.7191
13115TIP3   OH260759   1.514   1.670  12.924  0.1245 -0.0363  0.3565
13115TIP3    H160760   1.554   1.702  12.843 -2.2606 -2.7816 -2.1607
13115TIP3    H260761   1.426   1.709  12.925  0.3848  0.5994  2.1236
13116TIP3   OH260762   0.533   5.539  13.462 -0.3622  0.1158  0.1921
13116TIP3    H160763   0.572   5.456  13.492  0.7329 -0.0476 -1.5661
13116TIP3    H260764   0.519   5.526  13.368  0.5243  2.1860 -0.2657
13117TIP3   OH260765   2.186   0.902  12.325 -0.3892  0.1688 -0.0827
13117TIP3    H160766   2.266   0.954  12.315 -0.5778  0.6077  0.5442
13117TIP3    H260767   2.192   0.834  12.259  0.2829  0.4797 -0.3489
13118TIP3   OH260768   5.830   6.498  12.774  0.5151 -0.0119  0.1166
13118TIP3    H160769   5.806   6.417  12.818 -0.1374 -0.9979 -1.9470
13118TIP3    H260770   5.886   6.472  12.702  0.7433  1.4433 -0.2765
13119TIP3   OH260771   5.173   5.137   3.153  0.1705  0.1153 -0.5173
13119TIP3    H160772   5.231   5.134   3.229 -0.0968 -0.1867 -0.3234
13119TIP3    H260773   5.108   5.068   3.169 -0.7069  0.9625 -0.3520
13120TIP3   OH260774   0.988   4.776  16.619  0.1432  0.3796 -0.0568
13120TIP3    H160775   0.972   4.697  16.671 -0.1674  1.1150  0.9865
13120TIP3    H260776   0.902   4.799  16.583  0.2056  0.3262 -0.2419
13121TIP3   OH260777   2.990   3.267   2.623  0.3222  0.1827 -0.2877
13121TIP3    H160778   2.995   3.171   2.619 -1.1387  0.0711 -0.0899
13121TIP3    H260779   3.068   3.293   2.671  1.0825 -0.8524 -0.9147
13122TIP3   OH260780   2.463   0.317  12.433 -0.0828  0.2562  0.1803
13122TIP3    H160781   2.380   0.277  12.458  0.7524 -2.5198 -1.0996
13122TIP3    H260782   2.438   0.400  12.392 -2.1498 -0.1329  0.5483
13123TIP3   OH260783   6.425   2.861   3.182  0.0875  0.1383  0.1369
13123TIP3    H160784   6.474   2.914   3.119 -1.6506  0.5715 -0.8984
13123TIP3    H260785   6.334   2.888   3.172 -0.7151 -2.1737  0.4548
13124TIP3   OH260786   0.682   2.337  16.855  0.2508  0.1003  0.2501
13124TIP3    H160787   0.749   2.347  16.923  0.9849 -1.5196 -0.1722
13124TIP3    H260788   0.599   2.348  16.901  0.7654  2.0172  0.8111
13125TIP3   OH260789   0.212   2.726   3.767  0.5334  0.2819 -0.1836
13125TIP3    H160790   0.235   2.773   3.687 -0.8109  1.3975  0.0428
13125TIP3    H260791   0.279   2.752   3.831  0.9723  0.2649 -0.6337
13126TIP3   OH260792   0.832   0.128  14.336 -0.1649 -0.6255  0.3967
13126TIP3    H160793   0.823   0.181  14.257  1.1596 -2.5938 -1.1867
13126TIP3    H260794   0.894   0.176  14.391 -1.1609  0.8039  0.3145
13127TIP3   OH260795   0.459   0.705  15.219 -0.5713  0.3176 -0.4608
13127TIP3    H160796   0.454   0.640  15.149 -0.0715  0.3296 -0.5127
13127TIP3    H260797   0.384   0.686  15.275  0.4864 -1.4131  0.4810
13128TIP3   OH260798   3.932   2.019   1.220  0.7787  0.2667  0.1351
13128TIP3    H160799   3.929   1.949   1.285 -2.7591  0.1983  0.1130
13128TIP3    H260800   4.024   2.044   1.215  1.6576 -1.9979  2.6723
13129TIP3   OH260801   0.426   2.362  16.476  0.4977 -0.0736 -0.5295
13129TIP3    H160802   0.462   2.422  16.541  1.2816 -0.1333 -0.9044
13129TIP3    H260803   0.380   2.296  16.528  1.7355 -0.5372  0.0165
13130TIP3   OH260804   3.184   2.073  15.199  0.5458  0.2968  0.0745
13130TIP3    H160805   3.221   1.987  15.177  0.1058  0.1711 -0.1753
13130TIP3    H260806   3.114   2.087  15.136  2.5831  2.2519 -1.9210
13131TIP3   OH260807   1.487   6.646  14.180  0.2992 -0.0903 -0.5314
13131TIP3    H160808   1.427   6.716  14.155  0.8088 -0.2951 -2.4693
13131TIP3    H260809   1.570   6.670  14.139  0.7783 -1.2423 -0.2726
13132TIP3   OH260810   0.434   5.462  16.455  0.3207  0.1801 -0.6097
13132TIP3    H160811   0.371   5.510  16.509  1.5781 -0.0885  1.2219
13132TIP3    H260812   0.398   5.373  16.451  0.3688  0.1143  0.1206
13133TIP3   OH260813   0.403   3.894   0.733 -0.3072  0.0559  0.1948
13133TIP3    H160814   0.457   3.920   0.807  1.2025  3.7158 -1.8893
13133TIP3    H260815   0.314   3.921   0.757 -0.2279 -0.7313  1.4264
13134TIP3   OH260816   2.205   6.631  16.214 -0.1069  0.6268 -0.6221
13134TIP3    H160817   2.229   6.587  16.296 -1.1006  1.0520 -0.0931
13134TIP3    H260818   2.268   6.702  16.206 -2.4111  3.1756  1.9488
13135TIP3   OH260819   0.024   2.421   2.332 -0.3231  0.6909 -0.2906
13135TIP3    H160820   0.008   2.425   2.426 -0.5403  2.0903 -0.3746
13135TIP3    H260821   0.014   2.511   2.301 -0.4300  0.2269 -1.6865
13136TIP3   OH260822   3.291   1.599   4.795  0.1304 -0.0971 -0.0727
13136TIP3    H160823   3.245   1.599   4.711 -2.0003 -0.7266  1.0341
13136TIP3    H260824   3.248   1.667   4.846 -0.0505 -1.1759  1.2586
13137TIP3   OH260825   1.764   6.604  12.814  0.8072 -0.4885 -0.1953
13137TIP3    H160826   1.791   6.629  12.902 -0.1879 -0.2687  0.0583
13137TIP3    H260827   1.801   6.672  12.758  1.2618 -0.5118  0.0700
13138TIP3   OH260828   3.525   6.550   3.906 -0.0004  0.3048 -0.3336
13138TIP3    H160829   3.568   6.634   3.921 -1.9686  1.0677  1.4871
13138TIP3    H260830   3.559   6.521   3.821  0.4555  3.1076 -1.2258
13139TIP3   OH260831   1.799   5.294   4.797 -0.0125 -0.2650  0.2283
13139TIP3    H160832   1.742   5.295   4.874 -0.3230  0.9578  0.0000
13139TIP3    H260833   1.853   5.216   4.809 -0.8500 -0.7450  1.0949
13140TIP3   OH260834   1.605   4.523  16.972 -1.0264  0.7219  0.0211
13140TIP3    H160835   1.668   4.465  16.930 -2.1734 -0.6811  0.1380
13140TIP3    H260836   1.623   4.513  17.066  0.1795  2.2526 -0.0194
13141TIP3   OH260837   3.793   2.748  16.371 -0.7530 -0.1487  0.6671
13141TIP3    H160838   3.771   2.724  16.281 -2.0399  2.4448  0.1996
13141TIP3    H260839   3.884   2.777  16.367 -0.2463 -1.6443  0.6042
13142TIP3   OH260840   2.117   3.310  12.771  0.3361 -0.1993 -0.0796
13142TIP3    H160841   2.112   3.290  12.678  0.1809  1.7573 -0.5452
13142TIP3    H260842   2.166   3.392  12.776 -0.4050  0.2099  1.4697
13143TIP3   OH260843   4.217   4.694   1.247  0.5797 -0.2034 -0.0892
13143TIP3    H160844   4.146   4.749   1.213  1.0589 -0.2672 -1.2520
13143TIP3    H260845   4.260   4.747   1.314 -0.1611  0.0796  0.1686
13144TIP3   OH260846   4.188   2.880  11.964  0.4443 -0.0418 -0.3758
13144TIP3    H160847   4.112   2.921  12.006 -0.2563 -0.8541 -0.7951
13144TIP3    H260848   4.219   2.946  11.902  1.5308  1.1924  1.4043
13145TIP3   OH260849   1.576   1.389  16.225 -0.3229  0.4359 -0.0862
13145TIP3    H160850   1.498   1.351  16.266  1.3074 -0.9766  1.8833
13145TIP3    H260851   1.635   1.408  16.298  1.5201  0.6943 -1.5630
13146TIP3   OH260852   5.234   1.383  12.168  0.1926 -0.0043  0.1912
13146TIP3    H160853   5.326   1.395  12.146  0.0880 -0.0850 -0.2974
13146TIP3    H260854   5.189   1.455  12.123 -0.0326 -0.2241  0.0572
13147TIP3   OH260855   4.288   0.311  13.125  0.1095  0.0276 -0.4141
13147TIP3    H160856   4.217   0.251  13.147  0.2452  0.3590  1.0407
13147TIP3    H260857   4.363   0.255  13.108  0.6023 -0.2591  2.2517
13148TIP3   OH260858   0.267   3.505   2.072  0.2827 -0.2970 -0.3998
13148TIP3    H160859   0.313   3.428   2.038  2.5048  0.7781 -0.0709
13148TIP3    H260860   0.267   3.493   2.167 -0.2576 -0.3452 -0.4044
13149TIP3   OH260861   1.793   5.409  11.797 -0.0543  0.1146 -0.1574
13149TIP3    H160862   1.852   5.344  11.758  2.6881  2.0749  0.4327
13149TIP3    H260863   1.791   5.387  11.890  0.8263  0.8021  0.0326
13150TIP3   OH260864   4.480   1.389   5.046  0.1728 -0.0451 -0.5342
13150TIP3    H160865   4.440   1.341   4.975  2.3325  0.6721 -2.3431
13150TIP3    H260866   4.545   1.330   5.082 -0.9592 -0.4366  0.9853
13151TIP3   OH260867   3.870   5.051   0.167 -0.5313  0.2725 -0.2804
13151TIP3    H160868   3.811   5.033   0.093  0.5530 -1.9743 -0.6701
13151TIP3    H260869   3.834   5.000   0.239 -1.1487  1.8745  0.6100
13152TIP3   OH260870   1.081   3.778   3.057 -0.0011 -0.1347 -0.0386
13152TIP3    H160871   1.001   3.820   3.025 -1.4489 -1.8335  1.1556
13152TIP3    H260872   1.100   3.710   2.993 -0.4459 -0.7663  0.4921
13153TIP3   OH260873   2.718   2.641  14.727  0.5400  0.1058  0.1328
13153TIP3    H160874   2.751   2.703  14.662  4.0652  0.0929  1.6489
13153TIP3    H260875   2.679   2.695  14.795  0.8749  0.4498  0.0549
13154TIP3   OH260876   2.873   4.842   1.732 -0.0657  0.2189  0.4027
13154TIP3    H160877   2.968   4.834   1.738 -0.0442  0.9458  1.3197
13154TIP3    H260878   2.847   4.879   1.816 -1.1522  0.1152  0.1249
13155TIP3   OH260879   0.943   6.095  15.292 -0.5241  0.2235 -0.1633
13155TIP3    H160880   0.879   6.128  15.355 -1.3177 -0.3768 -0.6240
13155TIP3    H260881   0.998   6.036  15.343 -0.5081  0.5328  0.1849
13156TIP3   OH260882   2.715   4.990   5.797 -0.0294 -0.0091  0.1317
13156TIP3    H160883   2.694   4.976   5.705 -0.1939  0.0098  0.1656
13156TIP3    H260884   2.760   5.074   5.799 -1.2812  0.6906  0.2378
13157TIP3   OH260885   2.548   4.105   4.483 -0.4479 -0.0869 -0.5525
13157TIP3    H160886   2.472   4.142   4.528 -0.1760 -0.1200 -0.0650
13157TIP3    H260887   2.566   4.023   4.528  1.3216  1.0198  0.8921
13158TIP3   OH260888   2.358   4.638   3.495 -0.0706  0.3299  0.1145
13158TIP3    H160889   2.284   4.659   3.438  0.6612  1.1278 -0.5716
13158TIP3    H260890   2.390   4.723   3.525  0.1080 -0.0417  1.0312
13159TIP3   OH260891   0.675   6.054  16.506 -0.5164 -0.0993 -0.4861
13159TIP3    H160892   0.623   6.126  16.543  0.4486  0.4551 -0.1788
13159TIP3    H260893   0.660   6.060  16.412 -1.0007  0.0529 -0.4044
13160TIP3   OH260894   3.801   1.843  16.163  0.0766 -0.3287 -0.1509
13160TIP3    H160895   3.744   1.794  16.222  0.2379  0.2907  0.5398
13160TIP3    H260896   3.890   1.828  16.197  0.3286 -1.1867 -1.1426
13161TIP3   OH260897   2.197   2.907  11.492 -0.1060  0.5107 -0.3551
13161TIP3    H160898   2.215   2.813  11.498 -1.1255  0.3477  0.3312
13161TIP3    H260899   2.283   2.948  11.496  0.3238 -0.3707 -0.2618
13162TIP3   OH260900   1.958   3.565   0.729 -0.1566  0.3957  0.1190
13162TIP3    H160901   2.016   3.631   0.690  1.7038 -1.2577 -0.0958
13162TIP3    H260902   1.999   3.545   0.814 -1.1528  0.1204  0.5433
13163TIP3   OH260903   1.176   5.197  14.186  0.3131 -0.0516 -0.1065
13163TIP3    H160904   1.085   5.212  14.161  0.0340 -1.2534  0.0909
13163TIP3    H260905   1.223   5.275  14.157 -0.5394 -0.0156 -1.4884
13164TIP3   OH260906   4.096   5.775   3.767 -0.4523  0.5069 -0.2464
13164TIP3    H160907   4.081   5.868   3.786 -2.7560 -0.0164  0.8342
13164TIP3    H260908   4.066   5.730   3.845 -1.3578 -1.2467 -1.5378
13165TIP3   OH260909   2.033   5.402  16.187 -0.6486 -0.2599  0.0193
13165TIP3    H160910   2.109   5.441  16.143  0.1633 -0.9653  0.7682
13165TIP3    H260911   1.989   5.476  16.228  0.0007  0.0809  0.1244
13166TIP3   OH260912   5.340   0.742  12.752 -0.0713  0.8337  0.0919
13166TIP3    H160913   5.260   0.705  12.715 -0.1200  0.6051  0.4191
13166TIP3    H260914   5.358   0.687  12.828  1.2385 -0.0766 -0.8265
13167TIP3   OH260915   1.822   3.659  16.386 -0.2809  0.7136 -0.2522
13167TIP3    H160916   1.840   3.751  16.370 -0.6008  0.6005 -1.3470
13167TIP3    H260917   1.771   3.630  16.310 -0.3717 -0.3104  0.1710
13168TIP3   OH260918   2.107   2.886   0.920 -0.5244  0.4107 -0.2116
13168TIP3    H160919   2.145   2.863   1.005  0.7294  2.3345 -0.1895
13168TIP3    H260920   2.025   2.836   0.917 -0.0955 -0.5370  1.6407
13169TIP3   OH260921   5.967   3.508   0.365  0.0881  0.4327 -0.1399
13169TIP3    H160922   5.953   3.572   0.296 -0.9226 -0.0356 -0.3928
13169TIP3    H260923   6.013   3.436   0.321  0.0801  0.4359 -0.1535
13170TIP3   OH260924   6.342   1.162   6.277  0.0526 -0.1408  0.0953
13170TIP3    H160925   6.334   1.256   6.292 -0.3231  0.0876 -1.3957
13170TIP3    H260926   6.409   1.133   6.340  2.0867  1.5854 -1.1513
13171TIP3   OH260927   1.031   2.798  14.003  0.5082  0.1608  0.2365
13171TIP3    H160928   1.055   2.742  13.929 -0.9145  1.0910 -1.0048
13171TIP3    H260929   1.115   2.833  14.034  1.2044 -0.8233 -0.4568
13172TIP3   OH260930   2.477   4.006   0.397 -0.5644  0.5144  0.2450
13172TIP3    H160931   2.394   4.052   0.384 -0.4777  0.3558 -1.0150
13172TIP3    H260932   2.452   3.913   0.398 -0.6251  0.5139  1.8601
13173TIP3   OH260933   6.620   5.607   3.381  0.4944 -0.2463 -0.4216
13173TIP3    H160934   6.595   5.673   3.317 -1.8470 -1.0962 -0.5001
13173TIP3    H260935   6.624   5.525   3.331 -0.2256 -0.7285  0.2785
13174TIP3   OH260936   3.198   1.613  13.731 -0.0877 -0.1337  0.3017
13174TIP3    H160937   3.168   1.593  13.642  0.4395  0.5544 -0.0367
13174TIP3    H260938   3.293   1.605  13.726 -0.0805 -0.5315  0.9257
13175TIP3   OH260939   3.437   0.927  12.897  0.1640  0.0899  0.6254
13175TIP3    H160940   3.443   0.925  12.802 -2.9236 -2.2147  0.2868
13175TIP3    H260941   3.491   0.853  12.926  1.2644  0.9117  0.7393
13176TIP3   OH260942   2.542   5.536  15.268 -0.0392  0.0850  0.6046
13176TIP3    H160943   2.527   5.602  15.200  0.8018  3.2657  3.2499
13176TIP3    H260944   2.633   5.550  15.296 -0.3562 -1.0865  2.4077
13177TIP3   OH260945   2.474   5.972   0.170  0.2251 -0.2013  0.1414
13177TIP3    H160946   2.390   5.931   0.149 -0.0759  0.6341 -0.3513
13177TIP3    H260947   2.492   6.028   0.094  2.4173 -2.1515 -0.8926
13178TIP3   OH260948   5.680   0.950   1.227  0.0957  0.1526 -0.2705
13178TIP3    H160949   5.631   1.028   1.203  2.1143  1.8701  0.8751
13178TIP3    H260950   5.723   0.973   1.309  3.0014 -1.1094 -1.3024
13179TIP3   OH260951   4.845   2.327  11.884 -0.2748  0.5788  0.0638
13179TIP3    H160952   4.828   2.267  11.812  0.3060  0.5358 -0.0484
13179TIP3    H260953   4.804   2.285  11.960  1.8080 -1.0390  0.4252
13180TIP3   OH260954   4.345   5.427   6.109  0.2186  0.1486 -0.6335
13180TIP3    H160955   4.253   5.418   6.085  0.2059 -0.5614 -0.3497
13180TIP3    H260956   4.354   5.377   6.190  0.5702  1.3192  0.0888
13181TIP3   OH260957   2.375   5.730   0.989 -0.5747  0.3026  0.3482
13181TIP3    H160958   2.291   5.772   0.967 -0.7401 -0.6424 -0.9479
13181TIP3    H260959   2.441   5.791   0.957 -0.7959  0.3019 -0.1241
13182TIP3   OH260960   6.431   4.588  15.370  0.6482  0.2608 -0.5343
13182TIP3    H160961   6.354   4.532  15.368  0.4913  0.2098  2.6324
13182TIP3    H260962   6.488   4.552  15.302 -0.6222 -1.9292 -0.5370
13183TIP3   OH260963   1.277   0.465  10.107  0.3707  0.1016  0.0492
13183TIP3    H160964   1.371   0.475  10.119  0.2014 -0.3550  2.0056
13183TIP3    H260965   1.262   0.371  10.116 -0.3850  0.2805  0.7766
13184TIP3   OH260966   6.245   0.437  10.848 -0.1080 -0.2714  0.1443
13184TIP3    H160967   6.275   0.518  10.806  0.8380 -1.2010 -1.0650
13184TIP3    H260968   6.224   0.378  10.775  0.2273 -1.4686  0.9785
13185TIP3   OH260969   4.900   3.273  13.627 -0.6762 -0.6520  0.3773
13185TIP3    H160970   4.921   3.336  13.696 -0.9661  1.9202 -1.7207
13185TIP3    H260971   4.826   3.312  13.581 -0.1594 -1.9727 -1.7203
13186TIP3   OH260972   5.308   6.166  16.557 -0.2585  0.2427 -1.0254
13186TIP3    H160973   5.324   6.088  16.503  3.4500  0.7117 -0.8496
13186TIP3    H260974   5.320   6.135  16.647  0.1220  0.7813 -0.8892
13187TIP3   OH260975   3.310   6.570  10.715 -0.5743  0.7175 -0.2306
13187TIP3    H160976   3.319   6.496  10.654  2.4676  0.8195 -0.0673
13187TIP3    H260977   3.386   6.625  10.696 -0.5145  1.6756  2.4316
13188TIP3   OH260978   4.446   0.923  13.447  0.6245 -0.1208 -0.1793
13188TIP3    H160979   4.500   1.000  13.428  1.1699 -0.6557 -0.8585
13188TIP3    H260980   4.503   0.848  13.426 -0.0124 -0.7036  0.1450
13189TIP3   OH260981   3.846   1.803   0.787  0.4856 -0.0240 -0.2686
13189TIP3    H160982   3.904   1.874   0.817  0.8518 -0.8783  1.1498
13189TIP3    H260983   3.828   1.824   0.696 -0.7800  2.8230  0.5248
13190TIP3   OH260984   6.108   6.220  17.331  0.1262  0.1966  0.2029
13190TIP3    H160985   6.107   6.133  17.291  0.0226  0.7487 -1.0461
13190TIP3    H260986   6.100   6.204  17.425 -1.3593 -1.0797 -0.1070
13191TIP3   OH260987   2.908   2.045  10.982 -0.0143 -0.3213  0.0984
13191TIP3    H160988   2.997   2.078  10.970 -0.1416 -0.6844 -2.4035
13191TIP3    H260989   2.865   2.058  10.897 -2.2970 -0.3820  1.1488
13192TIP3   OH260990   5.220   3.439  13.442 -0.3421  0.2732 -0.0439
13192TIP3    H160991   5.287   3.438  13.374 -2.0526 -1.5437 -1.8426
13192TIP3    H260992   5.222   3.350  13.478 -0.9934  0.5470  0.6864
13193TIP3   OH260993   4.034   3.291  15.424 -0.4779  0.1872  0.0256
13193TIP3    H160994   3.962   3.312  15.364 -0.0162 -2.7897 -1.7454
13193TIP3    H260995   4.113   3.320  15.379 -0.1445 -1.8834 -0.8204
13194TIP3   OH260996   1.631   6.278   0.894 -0.6369  0.2008 -0.0076
13194TIP3    H160997   1.596   6.290   0.983 -1.7322  1.4306 -0.5720
13194TIP3    H260998   1.577   6.209   0.857  0.2517 -0.7811  0.4776
13195TIP3   OH260999   2.824   2.784   2.708 -0.3750 -0.6040 -0.3568
13195TIP3    H161000   2.861   2.757   2.624 -0.6389 -0.7785 -0.4203
13195TIP3    H261001   2.778   2.866   2.689 -0.0503 -0.4070 -0.2858
13196TIP3   OH261002   5.652   1.484   6.445 -0.5824 -0.3486 -0.2025
13196TIP3    H161003   5.629   1.563   6.396  2.3823 -0.2462 -1.6899
13196TIP3    H261004   5.642   1.510   6.537 -2.6705  0.6772 -0.6518
13197TIP3   OH261005   2.784   2.996   1.476 -0.4066  0.1177  0.5420
13197TIP3    H161006   2.693   2.968   1.483 -0.7473  1.5874  3.2700
13197TIP3    H261007   2.829   2.954   1.549  1.0028 -0.0714 -0.3781
13198TIP3   OH261008   3.545   4.949  15.845  0.7797 -0.5336 -0.0780
13198TIP3    H161009   3.522   5.022  15.903  1.0439  0.5681 -1.2992
13198TIP3    H261010   3.508   4.872  15.887  0.4570  0.3021  1.2444
13199TIP3   OH261011   6.489   4.199   3.478  0.0059  0.0096  0.5226
13199TIP3    H161012   6.482   4.141   3.402  0.1837  1.3728 -0.5584
13199TIP3    H261013   6.563   4.256   3.458  0.5840 -0.1231  2.0951
13200TIP3   OH261014   4.523   5.602   3.952  0.1770  0.1218  0.1057
13200TIP3    H161015   4.477   5.643   4.025 -1.1067 -1.1636  0.0646
13200TIP3    H261016   4.594   5.552   3.993  1.3463  1.7759  0.1995
13201TIP3   OH261017   3.317   0.614   1.346 -0.4241 -0.2713 -0.2903
13201TIP3    H161018   3.387   0.658   1.297 -1.7673  1.8834 -0.3952
13201TIP3    H261019   3.348   0.523   1.355  1.0628 -0.1187 -2.8076
13202TIP3   OH261020   0.933   1.867  11.278 -0.1234 -0.4307  0.2426
13202TIP3    H161021   1.020   1.833  11.260 -0.1452 -0.6520  0.5528
13202TIP3    H261022   0.938   1.959  11.253  0.2249 -0.4221  0.3359
13203TIP3   OH261023   5.157   6.260   2.557  0.5410  0.4036  0.7702
13203TIP3    H161024   5.227   6.265   2.492  0.2857 -0.2278  0.4451
13203TIP3    H261025   5.118   6.347   2.557 -0.1568  0.1200 -0.7101
13204TIP3   OH261026   4.737   3.480  13.535 -0.7490  0.3342  0.1015
13204TIP3    H161027   4.720   3.496  13.628 -2.6438  1.9762 -0.4419
13204TIP3    H261028   4.661   3.429  13.506  0.4283 -1.2532 -0.3453
13205TIP3   OH261029   4.626   3.839   0.756 -0.4111 -0.0512 -0.2910
13205TIP3    H161030   4.644   3.910   0.694 -1.9623 -0.2823 -1.0719
13205TIP3    H261031   4.575   3.776   0.705  0.1803 -1.3063  0.6366
13206TIP3   OH261032   2.633   4.834   0.840 -0.1400  0.0968 -0.5935
13206TIP3    H161033   2.538   4.818   0.841 -0.2989  0.8834  0.9360
13206TIP3    H261034   2.672   4.748   0.854 -0.5883 -0.3250 -1.8169
13207TIP3   OH261035   4.243   6.389  14.284  0.6794 -0.1319  0.7497
13207TIP3    H161036   4.163   6.370  14.334  0.4811 -0.3118  0.3654
13207TIP3    H261037   4.215   6.390  14.193  0.9709  0.5551  0.6569
13208TIP3   OH261038   4.077   3.129  15.887  0.1536 -0.2101 -0.3528
13208TIP3    H161039   4.034   3.214  15.898  0.2723  0.0513 -1.7481
13208TIP3    H261040   4.140   3.143  15.817 -0.9907 -1.8576 -1.8111
13209TIP3   OH261041   0.428   3.579  14.068  0.4210 -0.3604  0.1471
13209TIP3    H161042   0.355   3.530  14.032  0.9632 -1.5095  0.5745
13209TIP3    H261043   0.440   3.545  14.156  2.1840 -1.0426 -0.2959
13210TIP3   OH261044   4.309   0.323   3.975 -0.1563 -1.0912  0.0197
13210TIP3    H161045   4.361   0.243   3.969  0.5378 -0.6079 -0.4451
13210TIP3    H261046   4.357   0.388   3.923 -0.4034 -0.2018  0.8684
13211TIP3   OH261047   5.045   6.723  14.305  0.2079 -0.2885  0.1832
13211TIP3    H161048   5.058   6.741  14.398 -0.7411 -0.6403  0.3944
13211TIP3    H261049   5.083   6.798  14.260  0.4074  0.0259  0.8682
13212TIP3   OH261050   0.181   3.598   3.727  0.5330  0.5124  0.3681
13212TIP3    H161051   0.217   3.580   3.641 -0.0296  2.4165 -0.3158
13212TIP3    H261052   0.256   3.623   3.780  0.8932 -0.7671  0.4913
13213TIP3   OH261053   0.524   2.058   1.289  0.1072 -0.3355  0.5089
13213TIP3    H161054   0.509   2.024   1.202  0.5711  0.2538  0.1885
13213TIP3    H261055   0.607   2.019   1.317  1.0931  1.1526 -0.2105
13214TIP3   OH261056   3.692   2.056  15.034 -0.1938 -0.2723 -0.2148
13214TIP3    H161057   3.609   2.098  15.009 -0.1183  0.5104  0.7799
13214TIP3    H261058   3.732   2.118  15.095  0.2560 -1.4941  0.7585
13215TIP3   OH261059   1.628   3.813   6.173 -0.2192 -0.0013  0.3820
13215TIP3    H161060   1.638   3.844   6.263  0.2173  0.2015  0.2684
13215TIP3    H261061   1.666   3.883   6.120 -2.6157  1.0176 -0.1300
13216TIP3   OH261062   3.553   4.862   3.739  0.1242 -0.5065  0.4988
13216TIP3    H161063   3.471   4.827   3.704  0.3358 -0.0662 -0.4619
13216TIP3    H261064   3.621   4.828   3.680  0.4530  0.5040  0.2700
13217TIP3   OH261065   3.157   4.383   3.814 -0.4734 -0.3517  0.3978
13217TIP3    H161066   3.107   4.417   3.889 -0.6122 -1.0006  0.6105
13217TIP3    H261067   3.219   4.452   3.793 -1.0938  0.2367  0.4912
13218TIP3   OH261068   1.091   4.027   2.792 -0.4632  0.1455 -0.0299
13218TIP3    H161069   1.018   4.075   2.832  0.3003  0.7250  0.7112
13218TIP3    H261070   1.155   4.019   2.862 -0.9081 -2.8255  0.1686
13219TIP3   OH261071   1.401   0.989  11.884 -0.0944  0.0024  0.0723
13219TIP3    H161072   1.429   1.070  11.928 -1.1577 -0.3246  1.4488
13219TIP3    H261073   1.369   1.018  11.799  1.0994  0.7990 -0.1273
13220TIP3   OH261074   2.988   5.936  13.886  0.3095 -0.2666 -0.0703
13220TIP3    H161075   3.069   5.983  13.905 -0.6695  1.0613  1.0233
13220TIP3    H261076   2.936   5.998  13.835 -0.9219 -0.2102  1.2079
13221TIP3   OH261077   1.925   3.828  16.829  0.1947  0.1770  0.0263
13221TIP3    H161078   1.830   3.816  16.827  0.2997 -0.9885  0.9607
13221TIP3    H261079   1.944   3.846  16.921  0.7302  1.9101 -0.3936
13222TIP3   OH261080   0.865   4.065  11.806 -0.1177  0.4344  0.0133
13222TIP3    H161081   0.958   4.042  11.802 -0.4223 -0.7172 -1.6210
13222TIP3    H261082   0.856   4.115  11.887  2.0173  1.0293 -0.0594
13223TIP3   OH261083   2.547   4.494  14.867 -0.3861 -0.0571  0.3248
13223TIP3    H161084   2.581   4.536  14.946  1.8535 -0.8642 -0.1549
13223TIP3    H261085   2.471   4.443  14.898 -0.8095  1.2533  1.5517
13224TIP3   OH261086   2.456   2.035  15.231  0.1556  0.1321 -0.0436
13224TIP3    H161087   2.416   2.006  15.313  0.0247  0.8853  0.1695
13224TIP3    H261088   2.490   1.955  15.191  1.2843 -0.1283  1.3192
13225TIP3   OH261089   5.218   2.358   4.194  0.3339  0.0722  0.1585
13225TIP3    H161090   5.247   2.364   4.285 -1.9183 -0.6043  0.9718
13225TIP3    H261091   5.123   2.368   4.198 -0.0220 -1.7321 -1.9360
13226TIP3   OH261092   3.017   0.471   0.962 -0.0560  0.0448 -0.4617
13226TIP3    H161093   3.085   0.530   0.997  0.6179 -0.4880 -0.8515
13226TIP3    H261094   3.023   0.481   0.867 -2.1798  1.8135 -0.4627
13227TIP3   OH261095   1.157   6.607   3.904  0.2783  0.4013 -0.0192
13227TIP3    H161096   1.158   6.530   3.847  1.3524  0.2561  0.1809
13227TIP3    H261097   1.067   6.611   3.938 -0.5846  0.8548 -2.1863
13228TIP3   OH261098   1.073   6.131  14.694 -0.1725 -0.5447  0.1464
13228TIP3    H161099   1.003   6.098  14.638  0.2382 -1.8122  0.3434
13228TIP3    H261100   1.060   6.086  14.778 -0.6574  1.1614  1.0282
13229TIP3   OH261101   1.886   4.027   1.075 -0.4585 -0.1731 -0.4270
13229TIP3    H161102   1.888   4.064   1.164 -0.3958 -0.4730 -0.3036
13229TIP3    H261103   1.927   3.941   1.084 -2.7632 -1.3299 -0.2219
13230TIP3   OH261104   3.496   0.500  15.818 -0.3898  0.5651 -0.4728
13230TIP3    H161105   3.586   0.474  15.798  0.1611  0.8445  1.4416
13230TIP3    H261106   3.450   0.418  15.834 -1.0180  0.2782 -3.2290
13231TIP3   OH261107   5.368   2.988   4.716 -0.0667  0.7779  0.1513
13231TIP3    H161108   5.460   3.014   4.715 -0.1113  0.9306 -0.3373
13231TIP3    H261109   5.327   3.045   4.652 -0.3890  0.2975 -0.0737
13232TIP3   OH261110   1.111   3.638  15.917  0.0821 -0.3180 -0.3177
13232TIP3    H161111   1.089   3.605  15.830  0.7231 -1.6754 -0.0007
13232TIP3    H261112   1.124   3.732  15.905 -1.9147 -0.1070 -1.2630
13233TIP3   OH261113   1.999   1.102   2.114  0.4585 -0.4989 -0.0448
13233TIP3    H161114   2.094   1.090   2.109  0.3018 -1.6535 -1.0070
13233TIP3    H261115   1.977   1.155   2.037  0.5922  2.1911  1.6611
13234TIP3   OH261116   0.241   4.346  12.550  0.1656 -0.5654  0.0048
13234TIP3    H161117   0.253   4.262  12.593 -0.7373 -0.1903  1.0444
13234TIP3    H261118   0.173   4.330  12.484  0.7755 -0.8963 -0.5461
13235TIP3   OH261119   0.447   0.742  11.121  0.3783 -0.2255 -0.1731
13235TIP3    H161120   0.356   0.730  11.095  0.5909  0.5844 -1.3949
13235TIP3    H261121   0.496   0.740  11.038  0.9948  3.3118 -0.0740
13236TIP3   OH261122   2.132   0.916  14.431 -0.7568  0.3054 -0.6029
13236TIP3    H161123   2.060   0.897  14.371 -0.7539 -0.2126 -0.4488
13236TIP3    H261124   2.102   0.991  14.481 -0.5813  1.0189 -1.5406
13237TIP3   OH261125   5.496   1.473  12.104  0.0415 -0.4361  0.4502
13237TIP3    H161126   5.521   1.548  12.157 -0.5778 -0.0578  0.2293
13237TIP3    H261127   5.520   1.498  12.014  0.2498 -0.6927  0.4324
13238TIP3   OH261128   1.391   5.680  15.544  0.0551 -0.3960 -0.1619
13238TIP3    H161129   1.339   5.760  15.552 -0.3526 -0.5657 -1.0801
13238TIP3    H261130   1.327   5.609  15.543  0.3986 -0.7303  0.3318
13239TIP3   OH261131   0.468   3.073   4.861  0.2419 -0.4195  0.3433
13239TIP3    H161132   0.412   2.998   4.842 -1.1847  0.7124 -0.1119
13239TIP3    H261133   0.450   3.092   4.953  0.8027 -0.7794  0.5324
13240TIP3   OH261134   0.505   3.867  13.142 -0.0902  0.1950 -0.5120
13240TIP3    H161135   0.520   3.809  13.216  1.6809  0.1798 -0.8497
13240TIP3    H261136   0.409   3.867  13.131 -0.2485 -1.3783  0.4958
13241TIP3   OH261137   0.993   4.711  11.056 -0.0879  0.1413 -0.3529
13241TIP3    H161138   0.907   4.668  11.053 -0.1974  0.4346 -2.3771
13241TIP3    H261139   0.974   4.802  11.075  0.0732 -0.3335  2.7249
13242TIP3   OH261140   0.594   3.482  17.236  0.0512  0.0288 -0.6506
13242TIP3    H161141   0.544   3.406  17.207 -0.0430 -0.0991 -0.1756
13242TIP3    H261142   0.676   3.477  17.188 -0.1294 -0.1293 -0.9456
13243TIP3   OH261143   1.348   3.559  15.127  0.3741 -0.0411  0.6210
13243TIP3    H161144   1.263   3.575  15.087  0.8208 -0.4832 -0.5307
13243TIP3    H261145   1.346   3.467  15.151 -0.0173  0.2962  1.9651
13244TIP3   OH261146   0.154   4.072  14.272  0.3966 -0.1455 -0.1455
13244TIP3    H161147   0.227   4.134  14.278  0.3964 -0.0203 -1.2524
13244TIP3    H261148   0.080   4.125  14.245  0.2079 -0.4959 -0.3204
13245TIP3   OH261149   5.586   2.141  17.325 -0.6380 -0.1509  0.4882
13245TIP3    H161150   5.639   2.093  17.261 -1.3384 -0.9803  0.5120
13245TIP3    H261151   5.634   2.222  17.339 -0.4625  0.0494 -1.0891
13246TIP3   OH261152   1.825   0.849   1.551  0.0098  0.9405 -0.7169
13246TIP3    H161153   1.849   0.757   1.561 -2.7137  0.1957 -0.4149
13246TIP3    H261154   1.874   0.894   1.620 -0.0082 -0.5551  0.3180
13247TIP3   OH261155   5.207   5.491   1.847 -0.1189  0.1614  0.4549
13247TIP3    H161156   5.284   5.523   1.893 -0.1010 -0.1511  0.6465
13247TIP3    H261157   5.191   5.404   1.885 -1.0385  0.5547  1.0038
13248TIP3   OH261158   5.253   2.584   0.588  0.0686  0.2558 -0.4471
13248TIP3    H161159   5.286   2.673   0.580 -1.0151  0.5971 -1.4081
13248TIP3    H261160   5.294   2.537   0.515 -0.3771  0.3068 -0.7347
13249TIP3   OH261161   2.450   0.261   2.762  0.0486  0.0700  0.2586
13249TIP3    H161162   2.386   0.221   2.821  0.3678 -0.5632  0.1833
13249TIP3    H261163   2.489   0.332   2.814 -1.0213  0.7589  0.1543
13250TIP3   OH261164   5.611   3.765  17.025  0.3801 -0.1279 -0.0497
13250TIP3    H161165   5.584   3.836  16.965  0.8857 -0.2351 -0.4086
13250TIP3    H261166   5.697   3.739  16.994  1.1146  0.5114  1.3621
13251TIP3   OH261167   5.429   1.899  12.950  0.3618  0.0172 -0.3101
13251TIP3    H161168   5.403   1.951  12.874  1.6485  0.3059 -0.5711
13251TIP3    H261169   5.524   1.895  12.945  0.3755 -1.1894  0.4927
13252TIP3   OH261170   2.885   6.453   3.935  0.3682  0.0389  0.8258
13252TIP3    H161171   2.849   6.542   3.931 -0.2485 -0.1559  1.6830
13252TIP3    H261172   2.884   6.423   3.844  0.2049  0.7629  0.5789
13253TIP3   OH261173   4.416   2.104   0.485  0.5210  0.0860  0.2249
13253TIP3    H161174   4.350   2.171   0.500  1.4015  0.8217  0.9549
13253TIP3    H261175   4.433   2.068   0.572  2.0878  0.9071  0.2965
13254TIP3   OH261176   0.682   3.434   2.220  0.0853 -0.4672 -0.7207
13254TIP3    H161177   0.741   3.361   2.234 -0.1237 -0.6140 -0.6051
13254TIP3    H261178   0.740   3.507   2.195  0.3196 -0.5879 -0.5343
13255TIP3   OH261179   1.481   4.531   2.335 -0.5154  0.1328 -0.2226
13255TIP3    H161180   1.441   4.455   2.376 -1.5803  1.4362  1.2868
13255TIP3    H261181   1.567   4.539   2.376  1.5640 -2.6865 -3.4855
13256TIP3   OH261182   2.252   5.449  13.391 -0.4795  0.4984 -0.2465
13256TIP3    H161183   2.197   5.383  13.350 -1.2978  0.3901  0.9751
13256TIP3    H261184   2.291   5.404  13.466 -2.2201  1.7505  1.5020
13257TIP3   OH261185   6.371   6.301   0.901  0.1107  0.0913  0.6419
13257TIP3    H161186   6.282   6.306   0.936 -0.9395  0.9165 -1.8948
13257TIP3    H261187   6.398   6.210   0.916 -0.6249  0.1440  2.5622
13258TIP3   OH261188   5.469   6.715   4.658  0.0887  0.3899  0.2177
13258TIP3    H161189   5.454   6.658   4.582 -0.8364 -0.1986  0.8244
13258TIP3    H261190   5.519   6.788   4.623 -0.5874  0.2791 -1.0283
13259TIP3   OH261191   5.945   6.720   0.064  0.1512 -0.4998  0.5068
13259TIP3    H161192   5.943   6.710  -0.031  0.3141 -0.0512  0.4527
13259TIP3    H261193   5.872   6.779   0.083 -0.5843 -1.4750  0.7804
13260TIP3   OH261194   6.091   6.118  14.852 -0.0423 -0.0789  0.3166
13260TIP3    H161195   6.168   6.063  14.840  0.8103  1.1995 -0.2201
13260TIP3    H261196   6.032   6.095  14.780  0.3018 -0.2926  0.1064
13261TIP3   OH261197   2.816   4.562  13.441  0.3797  0.5786  0.0478
13261TIP3    H161198   2.895   4.523  13.402  0.3706  0.1295  0.4604
13261TIP3    H261199   2.753   4.490  13.444  0.9277  0.0963  2.4071
13262TIP3   OH261200   3.114   4.431   1.310  0.1241  0.1800  0.4722
13262TIP3    H161201   3.104   4.495   1.381  1.6225  0.5260  0.4105
13262TIP3    H261202   3.188   4.464   1.259  0.8560 -1.5189  0.3600
13263TIP3   OH261203   3.220   4.892   1.488  0.2232  0.2788  0.0562
13263TIP3    H161204   3.170   4.813   1.467  0.7937  0.2512 -1.2669
13263TIP3    H261205   3.186   4.959   1.428  0.0368  0.9444  0.8774
13264TIP3   OH261206   6.636   4.914  13.855 -0.1911 -0.3152  0.2961
13264TIP3    H161207   6.693   4.984  13.888 -0.0530 -0.4422  0.3257
13264TIP3    H261208   6.575   4.959  13.796 -0.0772 -0.1762  0.2841
13265TIP3   OH261209   4.859   4.927   4.009  0.1128 -0.1442  0.5055
13265TIP3    H161210   4.933   4.970   4.052 -0.0455 -0.4468  1.0938
13265TIP3    H261211   4.890   4.838   3.992  0.2784  0.0559 -0.2927
13266TIP3   OH261212   3.610   3.685  12.570  0.2423 -0.1204  0.2794
13266TIP3    H161213   3.664   3.745  12.519 -1.2066  2.2357  1.3377
13266TIP3    H261214   3.573   3.739  12.640 -3.3430 -1.5627 -0.2775
13267TIP3   OH261215   1.028   0.300  14.443  0.1368 -0.9243  0.4799
13267TIP3    H161216   1.095   0.339  14.386  0.1229 -1.0598  0.3705
13267TIP3    H261217   0.989   0.374  14.488 -0.9039 -0.6522 -0.7992
13268TIP3   OH261218   4.955   1.686   1.700  0.5415  0.2346  0.0617
13268TIP3    H161219   4.923   1.702   1.611 -0.3153 -1.8851 -0.0696
13268TIP3    H261220   4.885   1.720   1.757 -1.0953 -2.4241 -0.2017
13269TIP3   OH261221   4.141   4.737   3.045  0.0651 -0.2644 -0.1439
13269TIP3    H161222   4.150   4.708   3.135 -0.3351  0.1871  0.0451
13269TIP3    H261223   4.105   4.662   2.998 -0.4166 -0.2682  0.2235
13270TIP3   OH261224   3.291   6.526  13.311 -0.0578 -0.4020  0.0815
13270TIP3    H161225   3.205   6.486  13.297  0.0453 -0.4892 -0.2967
13270TIP3    H261226   3.273   6.619  13.317 -0.3980 -0.5383  1.6921
13271TIP3   OH261227   0.642   5.441   5.551 -0.3907 -0.3154  0.1397
13271TIP3    H161228   0.688   5.511   5.505  0.1615 -0.3148  0.6726
13271TIP3    H261229   0.550   5.454   5.529 -0.3314  0.7749  0.4769
13272TIP3   OH261230   5.089   1.446  14.654 -0.1834  0.5203  1.3260
13272TIP3    H161231   5.078   1.425  14.747  1.1021 -1.4572  1.0820
13272TIP3    H261232   5.025   1.391  14.609  0.2473  0.3078  0.9586
13273TIP3   OH261233   5.784   2.018   3.262 -0.2809 -0.1716  0.7263
13273TIP3    H161234   5.864   2.054   3.299 -0.0914 -0.1358  0.2850
13273TIP3    H261235   5.739   1.978   3.337 -0.0567  0.1773  1.0492
13274TIP3   OH261236   6.151   3.282  16.944  0.0404 -0.0040  0.3264
13274TIP3    H161237   6.231   3.258  16.897  0.4584  0.1186  0.9756
13274TIP3    H261238   6.177   3.350  17.005 -0.9890  1.6050 -0.9450
13275TIP3   OH261239   4.096   0.932   4.189 -0.2419 -0.0334  0.3765
13275TIP3    H161240   4.186   0.920   4.219  0.1115 -0.1588 -0.6897
13275TIP3    H261241   4.101   1.003   4.124 -0.9282  0.0313  0.3856
13276TIP3   OH261242   5.813   6.587   4.438 -0.0570  0.8043 -0.3178
13276TIP3    H161243   5.846   6.611   4.351  0.3435  0.9211 -0.1313
13276TIP3    H261244   5.835   6.495   4.448 -0.0830  0.7969 -0.3265
13277TIP3   OH261245   6.399   6.525  13.701  0.1533 -0.4008 -0.1186
13277TIP3    H161246   6.442   6.516  13.786 -1.8882  0.1040  1.0321
13277TIP3    H261247   6.435   6.606  13.665  2.3891 -1.5424 -0.6324
13278TIP3   OH261248   1.844   3.237   5.599  0.0851 -0.0105  0.1966
13278TIP3    H161249   1.777   3.186   5.555  1.4750 -1.3220 -0.4947
13278TIP3    H261250   1.810   3.253   5.687 -0.6707 -1.5681  0.2011
13279TIP3   OH261251   3.069   4.311   5.315  0.3522  0.1972 -0.0855
13279TIP3    H161252   3.008   4.238   5.314  0.1290  0.3239  1.7905
13279TIP3    H261253   3.027   4.378   5.261 -2.3541  1.1567  2.9427
13280TIP3   OH261254   4.610   5.241  13.506 -0.0736 -0.0920 -0.0740
13280TIP3    H161255   4.683   5.301  13.522  1.2126 -1.5926  0.0022
13280TIP3    H261256   4.588   5.207  13.593 -1.3136  0.8106 -0.0123
13281TIP3   OH261257   3.549   0.650  11.876 -0.4521 -0.1919 -0.2135
13281TIP3    H161258   3.574   0.604  11.796 -1.7477 -1.0099 -0.1761
13281TIP3    H261259   3.566   0.743  11.857 -0.0006 -0.4546 -1.1387
13282TIP3   OH261260   0.538   5.121  11.978  0.1223  0.2310 -0.1954
13282TIP3    H161261   0.468   5.179  12.010  0.2919  0.2144  0.2163
13282TIP3    H261262   0.600   5.118  12.051  0.1086 -0.4762 -0.2139
13283TIP3   OH261263   2.218   5.858   2.744  0.4116  0.1568 -0.5668
13283TIP3    H161264   2.243   5.926   2.682  1.1174  1.2186  0.8434
13283TIP3    H261265   2.125   5.842   2.726  0.8759 -0.4759 -2.7077
13284TIP3   OH261266   5.819   4.362   4.431  0.5686 -0.1769 -0.6563
13284TIP3    H161267   5.727   4.375   4.453  0.5121 -1.1713 -0.2501
13284TIP3    H261268   5.823   4.372   4.336  0.4133  1.8647 -0.5103
13285TIP3   OH261269   3.387   0.502  11.213 -0.1401 -0.0004  0.2101
13285TIP3    H161270   3.356   0.576  11.162 -0.7637  0.0211  0.6192
13285TIP3    H261271   3.398   0.431  11.149 -1.1488 -0.0456  0.0817
13286TIP3   OH261272   4.979   6.042   2.920  0.6301 -0.0749  0.1204
13286TIP3    H161273   5.005   5.955   2.890  0.8465  0.3885 -1.1050
13286TIP3    H261274   4.894   6.058   2.877  1.4247  1.0136 -1.1494
13287TIP3   OH261275   0.159   0.828  17.032  0.0868 -0.4643 -0.1364
13287TIP3    H161276   0.245   0.868  17.028 -0.3770  0.7466  1.2336
13287TIP3    H261277   0.158   0.780  17.114 -1.5290  2.1155  1.5042
13288TIP3   OH261278   0.291   3.732   2.452 -0.3258  0.1024  0.0184
13288TIP3    H161279   0.197   3.718   2.461 -0.3060  0.2012  0.4066
13288TIP3    H261280   0.325   3.724   2.541  0.5101 -3.2448 -0.4666
13289TIP3   OH261281   3.580   1.081  13.088  0.2120 -0.0764  0.3291
13289TIP3    H161282   3.530   1.033  13.023  0.9448  1.0033 -1.0747
13289TIP3    H261283   3.575   1.173  13.060  1.2698  0.3076  1.3004
13290TIP3   OH261284   2.349   5.330   1.668 -0.5113 -0.3003 -0.1138
13290TIP3    H161285   2.342   5.405   1.727  1.3466  0.5899 -0.9493
13290TIP3    H261286   2.348   5.368   1.580 -0.8456 -1.3784 -0.5901
13291TIP3   OH261287   3.132   0.740  16.284  0.6027  0.0763  0.5156
13291TIP3    H161288   3.052   0.691  16.266  1.4081 -0.6534 -1.2830
13291TIP3    H261289   3.132   0.752  16.379 -0.6960 -1.5252  0.7632
13292TIP3   OH261290   1.516   4.393  16.047  0.4097  0.4268  0.1198
13292TIP3    H161291   1.583   4.385  15.979 -0.0854  0.3079 -0.3556
13292TIP3    H261292   1.480   4.480  16.035  0.7563  0.6510  0.6459
13293TIP3   OH261293   5.574   3.680  15.668  0.1388 -0.4429 -0.1269
13293TIP3    H161294   5.663   3.714  15.658  0.5366 -1.8275 -1.6254
13293TIP3    H261295   5.535   3.736  15.736  0.7018  3.0527 -2.4270
13294TIP3   OH261296   2.203   5.841  13.232 -0.2346 -0.0769  0.2134
13294TIP3    H161297   2.127   5.783  13.229 -1.1046  1.0750 -1.1755
13294TIP3    H261298   2.221   5.863  13.141  0.4597  1.3198  0.6456
13295TIP3   OH261299   5.721   3.988   1.894  0.0012  0.2455 -0.0755
13295TIP3    H161300   5.809   4.027   1.892 -0.8808  2.3198 -1.6878
13295TIP3    H261301   5.672   4.043   1.954 -0.1077 -1.2904  1.3203
13296TIP3   OH261302   0.189   6.304  16.650 -0.2318 -0.1981  0.3362
13296TIP3    H161303   0.133   6.280  16.723 -1.5969 -0.4356 -0.7490
13296TIP3    H261304   0.218   6.393  16.670 -0.6452 -0.2359  1.1168
13297TIP3   OH261305   5.244   0.687  15.637 -0.1509  0.4382 -0.7596
13297TIP3    H161306   5.301   0.668  15.563 -1.6581  0.0513 -1.8675
13297TIP3    H261307   5.157   0.659  15.609 -0.8120  0.4566  1.0909
13298TIP3   OH261308   5.546   1.320   0.737 -0.3535 -0.3070 -0.0429
13298TIP3    H161309   5.593   1.258   0.792  0.7474  1.8753  1.6280
13298TIP3    H261310   5.578   1.302   0.648 -0.1603 -2.1478  0.3596
13299TIP3   OH261311   4.713   2.954  13.585  0.1258  0.3048 -0.0900
13299TIP3    H161312   4.722   2.869  13.628 -0.1144 -0.3090 -1.2042
13299TIP3    H261313   4.620   2.961  13.566  0.2900  0.3464 -0.9126
13300TIP3   OH261314   0.450   5.277  13.440 -0.5948 -0.4422  0.4993
13300TIP3    H161315   0.451   5.229  13.523  0.2208 -0.5504  0.4384
13300TIP3    H261316   0.504   5.224  13.381 -0.5158  0.0345  0.1357
13301TIP3   OH261317   2.641   5.593   3.620  0.4279 -0.3622 -0.3457
13301TIP3    H161318   2.557   5.598   3.575  0.4273 -2.0778 -0.5784
13301TIP3    H261319   2.622   5.548   3.702  0.9740 -0.0004 -0.0162
13302TIP3   OH261320   4.403   2.903  12.136  0.5070  0.3159  0.2654
13302TIP3    H161321   4.331   2.887  12.075  0.7101  0.0662  0.0888
13302TIP3    H261322   4.379   2.854  12.215  0.4859  0.2345  0.2076
13303TIP3   OH261323   4.412   6.224   3.451  0.0844  0.4358 -0.3006
13303TIP3    H161324   4.407   6.171   3.372 -0.7178  0.9155 -0.5827
13303TIP3    H261325   4.494   6.272   3.443  0.1586  0.2455 -0.6945
13304TIP3   OH261326   2.237   2.177   2.261 -0.2202 -0.7222  0.4346
13304TIP3    H161327   2.233   2.231   2.183 -2.2374 -2.0005 -0.4268
13304TIP3    H261328   2.147   2.172   2.292 -0.1298 -3.5177  0.4782
13305TIP3   OH261329   1.047   3.516   0.710  0.2367  0.4917  0.0106
13305TIP3    H161330   1.018   3.437   0.756 -2.4609 -0.1827 -2.5470
13305TIP3    H261331   0.993   3.586   0.747  0.1971  0.5065 -0.0755
13306TIP3   OH261332   6.731   4.844  15.386 -0.1971  0.2050 -0.1952
13306TIP3    H161333   6.747   4.904  15.459  1.5131 -2.0610  1.4441
13306TIP3    H261334   6.816   4.836  15.343 -0.4622 -0.7711 -0.5657
13307TIP3   OH261335   4.185   2.590  15.675 -0.0853 -0.2608 -0.0737
13307TIP3    H161336   4.164   2.677  15.640  0.8734 -0.2914 -0.7467
13307TIP3    H261337   4.103   2.541  15.667 -0.9198  0.8495  1.2100
13308TIP3   OH261338   3.785   2.179  13.184  0.0089 -0.5999  0.1538
13308TIP3    H161339   3.714   2.153  13.126  0.4259  1.0583 -1.1755
13308TIP3    H261340   3.744   2.240  13.246 -0.0507 -0.9516  0.4683
13309TIP3   OH261341   2.483   3.172   6.589  0.1511 -0.5869  0.1079
13309TIP3    H161342   2.465   3.088   6.630  0.8702 -0.7965  0.0071
13309TIP3    H261343   2.410   3.186   6.528  1.4352 -2.4964 -2.0099
13310TIP3   OH261344   4.818   5.843   0.116 -0.1536 -0.2942  0.0434
13310TIP3    H161345   4.745   5.780   0.117  0.5049 -1.0815  1.5438
13310TIP3    H261346   4.883   5.805   0.174  0.5117  1.5230  0.5420
13311TIP3   OH261347   4.422   4.203  15.628 -0.1694 -0.1475 -0.6091
13311TIP3    H161348   4.348   4.215  15.688 -1.3413 -2.0187 -1.5970
13311TIP3    H261349   4.447   4.292  15.605  0.3666  0.6843  2.6180
13312TIP3   OH261350   0.208   2.082   3.526 -0.5791 -0.9129  0.0687
13312TIP3    H161351   0.213   2.177   3.515 -0.8863 -1.0686 -1.7405
13312TIP3    H261352   0.149   2.070   3.600 -0.4607  0.3039  0.3889
13313TIP3   OH261353   1.315   2.509   5.261  0.6266 -0.7196  0.0537
13313TIP3    H161354   1.243   2.460   5.300  0.5221  0.6813  1.7643
13313TIP3    H261355   1.280   2.541   5.178 -0.3726 -0.9354  0.3747
13314TIP3   OH261356   2.889   5.232  12.728 -0.3892  0.5458 -0.0419
13314TIP3    H161357   2.925   5.303  12.675  0.9399 -0.9188 -1.1825
13314TIP3    H261358   2.801   5.263  12.752  0.4090  2.8509  0.1222
13315TIP3   OH261359   1.274   1.452   5.531 -0.1378  0.1590 -0.1616
13315TIP3    H161360   1.280   1.384   5.598  1.1773 -0.4746 -0.8697
13315TIP3    H261361   1.365   1.471   5.509 -0.4926  1.9613 -0.1909
13316TIP3   OH261362   1.331   2.307  11.348  0.6306 -0.1807 -0.1582
13316TIP3    H161363   1.411   2.295  11.296  1.6848  0.4978  1.2462
13316TIP3    H261364   1.302   2.396  11.327  1.2756  0.2371  0.6781
13317TIP3   OH261365   2.309   3.940   5.176  0.3217  0.2093 -0.1015
13317TIP3    H161366   2.230   3.928   5.228 -0.3814  0.7970 -0.9932
13317TIP3    H261367   2.373   3.880   5.215 -0.4394  0.0067  0.8742
13318TIP3   OH261368   6.385   4.957   0.852  0.0238  0.3289  0.0520
13318TIP3    H161369   6.444   5.025   0.885 -0.6270  1.3212 -0.7893
13318TIP3    H261370   6.342   4.923   0.930 -0.2786  1.4857  0.4005
13319TIP3   OH261371   5.775   5.262  16.908  0.0636  0.3701 -0.2823
13319TIP3    H161372   5.727   5.179  16.915  1.3050 -0.4905 -1.5743
13319TIP3    H261373   5.841   5.256  16.977  0.3033  0.1820 -0.5283
13320TIP3   OH261374   1.673   2.267   1.404 -0.2394 -0.3062 -0.0680
13320TIP3    H161375   1.720   2.286   1.322  0.4065  1.5995  0.6896
13320TIP3    H261376   1.714   2.325   1.469 -1.1268 -1.3599  1.4887
13321TIP3   OH261377   3.129   2.793   5.089  0.3171 -0.1981 -0.1425
13321TIP3    H161378   3.212   2.747   5.099  0.1480 -0.8463 -1.4843
13321TIP3    H261379   3.148   2.884   5.112  1.7064 -0.0726 -1.6357
13322TIP3   OH261380   6.182   3.156  12.218 -0.4126 -0.0786  0.0532
13322TIP3    H161381   6.117   3.217  12.183 -0.6965  0.0808  0.8315
13322TIP3    H261382   6.246   3.212  12.262 -1.0601 -0.3411  1.4104
13323TIP3   OH261383   6.595   3.926   5.049 -0.0027 -0.0382 -0.5888
13323TIP3    H161384   6.581   3.848   4.996 -1.6372 -0.8816  0.9618
13323TIP3    H261385   6.602   3.893   5.138  0.8917  1.4679 -0.0715
13324TIP3   OH261386   4.751   5.512   0.150  0.3556 -0.0943  0.0363
13324TIP3    H161387   4.811   5.439   0.162  1.0972  0.5775  0.5474
13324TIP3    H261388   4.749   5.527   0.056 -0.7267 -1.5027 -0.1952
13325TIP3   OH261389   2.019   2.592   5.854  0.4928  0.2662 -0.2289
13325TIP3    H161390   1.968   2.604   5.934  1.3507 -1.2677  0.5742
13325TIP3    H261391   1.954   2.574   5.786 -0.1461  0.0104  0.4454
13326TIP3   OH261392   0.764   6.154  14.820 -0.8019  0.3818  0.0952
13326TIP3    H161393   0.729   6.242  14.825 -1.0106  0.2406  1.9396
13326TIP3    H261394   0.858   6.164  14.839 -0.5970  0.3071 -0.8064
13327TIP3   OH261395   6.190   3.586  12.306 -0.1345 -0.0755  0.0993
13327TIP3    H161396   6.135   3.664  12.313  0.6480  0.6110 -1.1251
13327TIP3    H261397   6.214   3.566  12.397 -2.6359 -0.6241  0.7175
13328TIP3   OH261398   0.548   0.459   4.438 -0.1762  0.1596  0.1197
13328TIP3    H161399   0.542   0.473   4.344  1.7523 -1.6785 -0.3535
13328TIP3    H261400   0.615   0.521   4.467 -0.2861  0.2582  0.1630
13329TIP3   OH261401   5.792   3.450   2.883  0.3758  0.5305 -0.2647
13329TIP3    H161402   5.770   3.523   2.942 -1.0434  0.5189 -0.7337
13329TIP3    H261403   5.707   3.421   2.850  0.9109 -1.3481 -0.0819
13330TIP3   OH261404   0.445   3.677  13.431  0.1567  0.2180 -0.2104
13330TIP3    H161405   0.396   3.605  13.470 -0.7781  0.8830 -0.1248
13330TIP3    H261406   0.488   3.720  13.505 -0.8094  0.8735 -0.0095
13331TIP3   OH261407   0.254   0.527  14.649 -0.0659  0.3296  0.0386
13331TIP3    H161408   0.204   0.555  14.572  0.2454  0.6203 -0.0598
13331TIP3    H261409   0.188   0.507  14.714 -0.3136  2.9461  0.7167
13332TIP3   OH261410   1.422   0.407  11.495  0.1392 -0.2533  0.3639
13332TIP3    H161411   1.407   0.331  11.438 -1.6080  1.8201 -2.1892
13332TIP3    H261412   1.506   0.443  11.466  0.5331 -0.6595  0.9670
13333TIP3   OH261413   3.955   4.892  15.351  0.6642  0.3565 -0.4008
13333TIP3    H161414   3.915   4.805  15.352 -0.4972  0.8540 -1.2513
13333TIP3    H261415   4.031   4.883  15.294  2.6029 -0.9033  2.1961
13334TIP3   OH261416   0.040   2.999  14.376  0.0689 -0.0680  0.0234
13334TIP3    H161417   0.131   2.970  14.373  0.3680  0.7429  0.8810
13334TIP3    H261418   0.032   3.061  14.303  0.3585  0.2699  0.2751
13335TIP3   OH261419   0.455   4.306   4.890  0.0509  0.3776 -0.4080
13335TIP3    H161420   0.450   4.244   4.817 -0.4552  0.5827 -0.5515
13335TIP3    H261421   0.449   4.392   4.849  3.5480  0.7116 -0.5319
13336TIP3   OH261422   2.331   6.591   4.944  0.4367 -0.3202 -0.0208
13336TIP3    H161423   2.315   6.670   4.893 -0.2929  1.4048  2.6910
13336TIP3    H261424   2.271   6.526   4.907 -0.0902  0.8574 -1.3014
13337TIP3   OH261425   4.539   0.876   0.473  0.0015  0.2458 -0.5771
13337TIP3    H161426   4.599   0.928   0.421 -0.4812  0.8115 -0.5795
13337TIP3    H261427   4.527   0.926   0.554  0.8339 -0.6756  0.1421
13338TIP3   OH261428   0.776   2.914  17.084  0.1184 -0.3055 -0.6369
13338TIP3    H161429   0.721   2.836  17.080 -0.9397  0.4242 -1.0988
13338TIP3    H261430   0.774   2.941  17.175 -0.6048 -0.0972 -0.7029
13339TIP3   OH261431   5.639   1.754   2.089  0.1826 -0.1355  0.4854
13339TIP3    H161432   5.665   1.844   2.111 -0.6503  0.0710  0.6909
13339TIP3    H261433   5.619   1.757   1.995  0.5497 -0.2067  0.4048
13340TIP3   OH261434   3.754   2.716   4.951  0.2454  0.2351 -0.4579
13340TIP3    H161435   3.684   2.773   4.984  1.0716 -0.2276  2.3223
13340TIP3    H261436   3.775   2.752   4.865 -3.8852 -0.0793 -1.8327
13341TIP3   OH261437   3.528   5.198  14.161  0.4251  0.8566 -0.0114
13341TIP3    H161438   3.476   5.279  14.159 -0.8787  0.0357 -2.0769
13341TIP3    H261439   3.463   5.129  14.173  1.1694 -0.0772 -1.1724
13342TIP3   OH261440   6.045   1.194   0.151  0.4157 -0.9627 -0.4996
13342TIP3    H161441   6.016   1.118   0.101  1.3452 -1.0773 -0.8850
13342TIP3    H261442   6.057   1.262   0.085 -1.6871 -0.0341 -0.0258
13343TIP3   OH261443   2.080   0.728  15.881 -0.0579  0.5110  0.0245
13343TIP3    H161444   2.095   0.715  15.787 -1.3987  1.4687 -0.3529
13343TIP3    H261445   2.144   0.795  15.905  0.1251  0.4456 -0.2683
13344TIP3   OH261446   5.110   1.778  10.420 -0.4811 -0.3062  0.0665
13344TIP3    H161447   5.116   1.786  10.515  0.3376 -1.0058  0.0865
13344TIP3    H261448   5.127   1.686  10.403  0.1288 -0.0397 -0.8144
13345TIP3   OH261449   1.207   3.153  11.727 -0.5364  0.3119 -0.1193
13345TIP3    H161450   1.163   3.068  11.724  0.7955 -0.3742 -0.6826
13345TIP3    H261451   1.184   3.189  11.813  1.3233 -1.9568  1.4246
13346TIP3   OH261452   3.409   3.718   1.449  0.4546  0.4788  0.1870
13346TIP3    H161453   3.393   3.636   1.496  1.2869 -0.2337 -0.7097
13346TIP3    H261454   3.326   3.736   1.404  0.3547 -0.0270  0.1610
13347TIP3   OH261455   0.114   4.099   3.388 -0.0073 -0.2295 -0.2458
13347TIP3    H161456   0.100   4.087   3.483  0.7422  1.3213  0.0864
13347TIP3    H261457   0.158   4.019   3.360 -0.0532 -0.6232  0.7603
13348TIP3   OH261458   2.274   3.535   6.004 -0.6244  0.4775 -0.6654
13348TIP3    H161459   2.273   3.439   6.012  1.5781  0.2596 -2.1657
13348TIP3    H261460   2.195   3.556   5.953 -0.2053 -0.7390 -1.8608
13349TIP3   OH261461   6.659   5.432   1.346 -0.0025  0.0022  0.0780
13349TIP3    H161462   6.611   5.452   1.266 -1.5853 -0.8803  0.7590
13349TIP3    H261463   6.652   5.511   1.399 -0.0220  0.1583 -0.1594
13350TIP3   OH261464   5.458   2.162   1.206 -0.2942  0.3779 -0.0159
13350TIP3    H161465   5.466   2.257   1.213 -2.8018  0.6243  0.4938
13350TIP3    H261466   5.397   2.148   1.133 -2.1752 -0.6278  1.6269
13351TIP3   OH261467   3.234   2.133   4.120 -0.3397 -0.0297 -0.3435
13351TIP3    H161468   3.169   2.104   4.184 -0.4561  0.3164 -0.3015
13351TIP3    H261469   3.315   2.089   4.147 -0.5043 -0.2935 -0.2680
13352TIP3   OH261470   2.629   6.623  14.609  0.5112 -0.2726  0.1951
13352TIP3    H161471   2.611   6.631  14.702 -0.8240 -3.1329  0.2817
13352TIP3    H261472   2.722   6.600  14.604  0.6227  0.0431  0.8077
13353TIP3   OH261473   0.759   0.101   0.684  0.4567  0.2246  0.3392
13353TIP3    H161474   0.818   0.028   0.667  2.7692  1.5086  2.3303
13353TIP3    H261475   0.795   0.174   0.634 -0.3310  0.6841  0.4219
13354TIP3   OH261476   4.030   6.184  15.831  0.7047 -0.0012  0.0554
13354TIP3    H161477   4.058   6.101  15.792 -1.6184 -1.0665  0.4503
13354TIP3    H261478   4.009   6.240  15.756  1.5819 -0.0252 -0.2126
13355TIP3   OH261479   6.036   3.344  14.729 -0.3466 -0.1959 -0.1043
13355TIP3    H161480   6.127   3.323  14.751 -0.3700  1.4905  1.8718
13355TIP3    H261481   5.990   3.344  14.812 -1.6889  1.1131 -0.8049
13356TIP3   OH261482   5.158   2.237  16.785 -0.4837  0.3552 -0.1417
13356TIP3    H161483   5.121   2.323  16.765 -0.4254  0.6067  0.7648
13356TIP3    H261484   5.237   2.257  16.836 -0.7511 -0.2421  0.5210
13357TIP3   OH261485   1.208   4.614   3.933 -0.3665 -0.2950  0.3628
13357TIP3    H161486   1.119   4.602   3.900 -0.2702 -0.6121  0.2145
13357TIP3    H261487   1.241   4.526   3.948  0.1161 -0.2052 -0.1052
13358TIP3   OH261488   6.162   4.931  11.378 -0.3147  0.8833 -0.7631
13358TIP3    H161489   6.191   4.846  11.344  0.1360  0.3873  0.7878
13358TIP3    H261490   6.091   4.957  11.320 -0.6212 -0.6704 -1.1264
13359TIP3   OH261491   1.126   2.315  16.570  0.7815 -0.3583 -0.1430
13359TIP3    H161492   1.055   2.299  16.507  1.1513 -1.7201 -0.2512
13359TIP3    H261493   1.085   2.300  16.655  0.5880  0.2904 -0.1146
13360TIP3   OH261494   1.983   5.467   0.649  0.1072 -0.0030 -0.0482
13360TIP3    H161495   2.008   5.450   0.740 -3.3026  0.9547  1.2112
13360TIP3    H261496   1.947   5.384   0.618 -0.9098  0.2975  0.3073
13361TIP3   OH261497   3.682   1.335   5.452  0.2821 -0.5970  0.3801
13361TIP3    H161498   3.606   1.329   5.509  0.7230  1.7575  1.2965
13361TIP3    H261499   3.650   1.307   5.366 -1.7550  0.7820  0.6389
13362TIP3   OH261500   5.855   6.394  12.010 -0.1666  0.2204 -0.4194
13362TIP3    H161501   5.937   6.379  12.056 -0.7339  1.9205  1.3019
13362TIP3    H261502   5.880   6.417  11.921  1.1460 -0.3344 -0.2083
13363TIP3   OH261503   1.292   0.053   4.934 -0.2024 -0.4564 -1.0685
13363TIP3    H161504   1.199   0.050   4.912 -0.4006 -1.2132 -0.1807
13363TIP3    H261505   1.333   0.095   4.858 -1.6049  2.4796 -0.3790
13364TIP3   OH261506   1.577   6.159   5.491 -0.0250  0.5194  0.2676
13364TIP3    H161507   1.581   6.248   5.454 -0.4173  0.0733 -0.9020
13364TIP3    H261508   1.486   6.132   5.477  0.3590 -0.4675 -0.3756
13365TIP3   OH261509   5.854   0.082  15.115 -0.2372  0.1006  0.4449
13365TIP3    H161510   5.831   0.030  15.037 -1.8500  0.6714  0.5163
13365TIP3    H261511   5.908   0.153  15.080  0.4073 -0.5391  0.0902
13366TIP3   OH261512   3.632   0.389  12.971  0.4967 -0.4229  0.2217
13366TIP3    H161513   3.686   0.451  12.922 -0.7313  0.9174  0.4869
13366TIP3    H261514   3.690   0.315  12.989  1.8487  0.4011 -0.6039
13367TIP3   OH261515   5.278   0.374   4.189  0.7146 -0.0868  0.0468
13367TIP3    H161516   5.252   0.291   4.150  0.3026  0.4706 -0.9165
13367TIP3    H261517   5.316   0.351   4.274  0.3152 -1.2180 -0.0714
13368TIP3   OH261518   2.574   2.319  10.625  0.2703  0.1416  0.5691
13368TIP3    H161519   2.607   2.384  10.563  0.9989 -0.4620  0.3206
13368TIP3    H261520   2.496   2.283  10.583  1.5632 -1.3096 -0.7037
13369TIP3   OH261521   1.539   4.685  15.681 -0.0152 -0.0155  0.3721
13369TIP3    H161522   1.462   4.678  15.737  0.4797 -0.0024  1.0632
13369TIP3    H261523   1.552   4.597  15.647  0.1302 -0.1999  0.8902
13370TIP3   OH261524   6.360   0.831   1.540  0.2706  0.5927 -0.4145
13370TIP3    H161525   6.312   0.786   1.470 -1.9489  1.1272  0.6868
13370TIP3    H261526   6.336   0.923   1.529  1.8037  1.0185 -0.3596
13371TIP3   OH261527   0.560   3.802  13.970  0.3983 -0.2793  0.9466
13371TIP3    H161528   0.617   3.853  14.027  3.1419 -2.1279  0.1019
13371TIP3    H261529   0.526   3.732  14.026  0.3119 -0.1165  1.0953
13372TIP3   OH261530   1.906   2.024  10.770 -0.1618 -0.2939 -0.4728
13372TIP3    H161531   1.842   1.993  10.834 -0.3597 -0.1258 -0.5857
13372TIP3    H261532   1.944   2.102  10.810 -0.0475 -0.3794 -0.4161
13373TIP3   OH261533   6.666   4.558  16.219 -0.1397 -0.5862  0.2809
13373TIP3    H161534   6.577   4.540  16.249 -0.3145  0.7143  0.5609
13373TIP3    H261535   6.710   4.473  16.226 -1.2306 -1.1601  0.5223
13374TIP3   OH261536   0.797   6.324  16.556  0.0200  0.0135 -0.3266
13374TIP3    H161537   0.847   6.375  16.619  1.0585 -1.6455  0.2701
13374TIP3    H261538   0.712   6.367  16.552  1.0074  2.0504 -0.2663
13375TIP3   OH261539   4.218   5.566   3.620  0.4057  0.2128  0.0588
13375TIP3    H161540   4.173   5.635   3.670 -0.9295 -1.0806  0.7415
13375TIP3    H261541   4.208   5.487   3.675  1.5109 -0.6181 -0.8939
13376TIP3   OH261542   3.693   2.474  12.931  0.2372 -0.2606  0.3394
13376TIP3    H161543   3.609   2.479  12.885  1.2537 -0.1400 -1.5666
13376TIP3    H261544   3.756   2.446  12.865  1.8124  0.1579  1.5975
13377TIP3   OH261545   0.001   0.766   0.481 -0.1045 -0.0614 -0.5513
13377TIP3    H161546   0.094   0.789   0.489 -0.3084  1.2529 -1.5966
13377TIP3    H261547  -0.002   0.706   0.407  0.1494 -1.8953  0.8468
13378TIP3   OH261548   2.628   1.597   6.182  0.0266 -0.3305  0.5117
13378TIP3    H161549   2.636   1.680   6.228  1.2370 -0.3822  0.4102
13378TIP3    H261550   2.705   1.546   6.209  0.9946 -0.2105 -1.8397
13379TIP3   OH261551   4.825   0.366   0.222 -0.3720  0.4198 -0.3182
13379TIP3    H161552   4.906   0.332   0.184  1.5740  0.0374  3.6338
13379TIP3    H261553   4.771   0.288   0.234  1.1350 -0.3511  2.1754
13380TIP3   OH261554   2.847   4.484  13.902  0.2213  0.2146  0.3392
13380TIP3    H161555   2.937   4.481  13.936 -0.5828  0.7829  2.7054
13380TIP3    H261556   2.821   4.392  13.898  0.1404  0.1442  1.9409
13381TIP3   OH261557   3.478   1.000   6.688 -0.4404 -0.1159 -0.6112
13381TIP3    H161558   3.561   1.020   6.732 -0.8908  0.3514  0.0563
13381TIP3    H261559   3.481   0.906   6.675  0.0611 -0.1527 -0.2953
13382TIP3   OH261560   0.136   3.101   2.368  0.2646 -0.3142 -0.2093
13382TIP3    H161561   0.160   3.054   2.448 -0.5585 -0.6550 -0.1504
13382TIP3    H261562   0.099   3.184   2.399  1.1363  0.1151 -0.2912
13383TIP3   OH261563   2.138   3.982  14.134  0.0696 -0.6728 -0.2478
13383TIP3    H161564   2.228   3.950  14.141  0.5272  0.7534  0.9680
13383TIP3    H261565   2.137   4.036  14.055 -0.5597 -3.0411 -1.9823
13384TIP3   OH261566   1.653   2.865  13.091 -0.2637 -0.0265 -0.1212
13384TIP3    H161567   1.638   2.818  13.009  0.3815 -2.8150  1.2317
13384TIP3    H261568   1.746   2.889  13.088 -0.4661  0.7086 -0.5920
13385TIP3   OH261569   2.767   0.708  11.152 -0.4665  0.1307 -0.0315
13385TIP3    H161570   2.811   0.793  11.147 -0.9455  0.4668  1.1663
13385TIP3    H261571   2.732   0.693  11.065  2.6463 -0.5149 -1.3017
13386TIP3   OH261572   1.546   4.830  13.127 -0.2339  0.1515 -0.1347
13386TIP3    H161573   1.518   4.912  13.086 -2.7187 -1.4993 -2.0193
13386TIP3    H261574   1.609   4.794  13.065 -0.1953 -0.0181  0.0037
13387TIP3   OH261575   3.297   0.541  12.892  0.2573  0.1374  0.0910
13387TIP3    H161576   3.390   0.540  12.870  0.3249 -1.5473  0.3280
13387TIP3    H261577   3.252   0.543  12.807  0.5116  0.4083 -0.0376
13388TIP3   OH261578   4.640   6.746   3.199  0.2112 -0.1200  0.3683
13388TIP3    H161579   4.664   6.824   3.250 -1.1138 -0.2359  1.2106
13388TIP3    H261580   4.550   6.726   3.227  0.7031 -2.2631  0.5512
13389TIP3   OH261581   4.380   0.882   1.699  0.3530  0.4615 -0.0954
13389TIP3    H161582   4.379   0.922   1.786  0.6680 -1.5255  0.8729
13389TIP3    H261583   4.333   0.944   1.644 -0.1093  1.6366  1.5450
13390TIP3   OH261584   2.126   1.529  16.299  0.1173  0.3064  0.4675
13390TIP3    H161585   2.208   1.576  16.284  0.2168 -0.2821 -0.9668
13390TIP3    H261586   2.069   1.556  16.228 -0.6387  0.0258  0.9497
13391TIP3   OH261587   0.384   5.233  16.706  0.6538  0.0650 -0.4648
13391TIP3    H161588   0.422   5.196  16.626  1.2098  1.0194 -0.6573
13391TIP3    H261589   0.309   5.284  16.675  0.2372 -0.4137 -0.2609
13392TIP3   OH261590   1.535   6.594  16.711  0.2855  0.0380  0.8299
13392TIP3    H161591   1.477   6.596  16.788  0.8342  0.0226  1.2501
13392TIP3    H261592   1.564   6.503  16.706 -1.2416 -0.4190 -0.5485
13393TIP3   OH261593   4.223   6.660  14.136  0.0279 -0.1672 -0.1876
13393TIP3    H161594   4.286   6.613  14.191 -0.2312 -0.1825  0.0986
13393TIP3    H261595   4.219   6.608  14.055 -1.2650 -1.4246  0.6405
13394TIP3   OH261596   3.670   6.557   2.020  0.0003 -0.0494 -0.1128
13394TIP3    H161597   3.600   6.498   1.991  0.6576 -1.0007  0.1880
13394TIP3    H261598   3.624   6.627   2.067 -0.6404 -1.5777  1.6291
13395TIP3   OH261599   4.643   5.512  11.773 -0.1533  0.3120  0.1116
13395TIP3    H161600   4.578   5.550  11.714 -1.0825 -1.9259 -0.4036
13395TIP3    H261601   4.688   5.588  11.810  0.3424  1.8552 -3.2543
13396TIP3   OH261602   5.969   2.757  12.657  0.6951  0.0176  0.2667
13396TIP3    H161603   5.953   2.665  12.678 -0.8436  0.3582  0.7502
13396TIP3    H261604   5.884   2.790  12.627  1.5366  0.9516 -1.2218
13397TIP3   OH261605   4.269   5.017  14.243 -0.1277 -0.0015  0.3654
13397TIP3    H161606   4.175   5.027  14.258 -0.1457  1.3548 -0.4574
13397TIP3    H261607   4.281   5.041  14.151  1.2263  1.4822  0.8870
13398TIP3   OH261608   2.331   5.103  17.016  0.4990 -0.9700  0.0312
13398TIP3    H161609   2.316   5.155  17.096  1.6723  1.9801 -1.4993
13398TIP3    H261610   2.247   5.104  16.971  0.8568  1.0303 -0.6844
13399TIP3   OH261611   0.173   0.614  11.304  0.1419  0.0539  0.2902
13399TIP3    H161612   0.266   0.593  11.306  0.4784  1.3425 -0.7794
13399TIP3    H261613   0.166   0.688  11.243 -1.3399  1.0979  1.6377
13400TIP3   OH261614   0.370   4.528   0.119 -0.3299  0.0885 -0.2226
13400TIP3    H161615   0.326   4.563   0.197 -0.2750  1.7725 -0.9097
13400TIP3    H261616   0.317   4.558   0.046 -0.9943 -2.3858 -0.8496
13401TIP3   OH261617   5.788   4.665   0.964 -0.4936 -0.5596 -0.4052
13401TIP3    H161618   5.874   4.644   0.929 -1.5941 -0.9291 -3.1340
13401TIP3    H261619   5.805   4.727   1.035  1.9080  0.9510 -2.1526
13402TIP3   OH261620   2.048   2.696   4.382  0.4448  0.9065  0.1521
13402TIP3    H161621   2.070   2.613   4.342  0.8093  1.0536  0.0419
13402TIP3    H261622   2.015   2.673   4.469 -0.1417  0.6029 -0.1480
13403TIP3   OH261623   1.031   6.314   1.689 -0.1744 -0.4592  0.4300
13403TIP3    H161624   1.122   6.305   1.662  0.2433  1.2942  1.1174
13403TIP3    H261625   0.982   6.261   1.626  1.3072 -1.5425  0.1331
13404TIP3   OH261626   4.119   1.536  16.199  0.7109 -0.2115  0.5493
13404TIP3    H161627   4.070   1.453  16.203 -1.2409  0.7306 -1.6656
13404TIP3    H261628   4.137   1.549  16.106 -0.3320  2.5196  0.6408
13405TIP3   OH261629   2.192   3.358   5.773  0.7068 -0.4057  0.6064
13405TIP3    H161630   2.249   3.301   5.825  1.5750 -1.4810 -1.3993
13405TIP3    H261631   2.122   3.301   5.743  0.0330  0.2772  0.8510
13406TIP3   OH261632   1.400   4.558   5.231 -0.1543  0.6837 -0.6436
13406TIP3    H161633   1.454   4.499   5.180 -0.2979  0.3379 -0.3963
13406TIP3    H261634   1.455   4.636   5.242  0.8546 -0.1657  0.7565
13407TIP3   OH261635   6.138   4.420   0.564 -0.2144 -0.0789  0.0599
13407TIP3    H161636   6.184   4.503   0.554  0.1920 -0.1696  1.1095
13407TIP3    H261637   6.047   4.444   0.579 -0.3866  0.1202 -1.1436
13408TIP3   OH261638   3.910   0.772   1.994  0.2447 -0.4437  0.7660
13408TIP3    H161639   3.934   0.695   1.942  1.8410  1.1966 -1.0983
13408TIP3    H261640   3.822   0.794   1.965  0.5617 -0.3983 -0.1776
13409TIP3   OH261641   5.981   2.089  12.870  0.0996  0.0189  0.1563
13409TIP3    H161642   5.949   2.055  12.954  0.5601 -2.1673 -0.4907
13409TIP3    H261643   6.021   2.013  12.827 -0.1512  1.0724 -2.0643
13410TIP3   OH261644   3.703   3.106  11.766  0.1214 -0.5532 -0.0639
13410TIP3    H161645   3.731   3.150  11.846 -2.4037 -0.5117  0.8595
13410TIP3    H261646   3.692   3.177  11.703 -1.5511 -0.1045  0.6994
13411TIP3   OH261647   0.612   4.111   2.965 -0.1161 -0.2205  0.1827
13411TIP3    H161648   0.572   4.059   2.895  1.7119 -0.5390 -0.6784
13411TIP3    H261649   0.561   4.090   3.043 -1.5762 -0.6319 -0.8437
13412TIP3   OH261650   1.112   2.070  17.084  0.3958 -0.5375 -0.2495
13412TIP3    H161651   1.114   2.138  17.017  1.4536 -0.4026 -0.1033
13412TIP3    H261652   1.064   1.998  17.044  1.1136 -0.5018 -1.2152
13413TIP3   OH261653   5.562   0.245   0.677 -0.4009 -0.2680 -0.0961
13413TIP3    H161654   5.616   0.186   0.728  1.8066  1.9377  0.3135
13413TIP3    H261655   5.595   0.237   0.587 -1.6312 -1.2332 -0.5049
13414TIP3   OH261656   6.479   2.760  11.789  0.1774 -0.3213 -0.0510
13414TIP3    H161657   6.402   2.738  11.841 -0.6136 -1.3749 -1.5996
13414TIP3    H261658   6.506   2.847  11.821 -1.8512  0.2322  0.2874
13415TIP3   OH261659   5.283   0.150  16.916  0.0824 -0.1436 -0.3432
13415TIP3    H161660   5.299   0.062  16.950  0.9277  0.7239  1.6965
13415TIP3    H261661   5.370   0.190  16.914 -0.4870  1.2447  0.6513
13416TIP3   OH261662   2.175   2.633   4.039 -0.0043 -0.2371 -0.2493
13416TIP3    H161663   2.238   2.597   3.977  0.5235 -1.7005  1.0404
13416TIP3    H261664   2.098   2.577   4.030 -0.8866  1.0950 -1.3081
13417TIP3   OH261665   2.007   6.412   2.311 -0.0334 -0.1021  0.3471
13417TIP3    H161666   2.025   6.318   2.314 -1.2971 -0.3374  1.2976
13417TIP3    H261667   2.018   6.436   2.219  1.3273 -0.9555  0.2643
13418TIP3   OH261668   5.811   4.983   2.497  0.1359  0.3545 -0.4483
13418TIP3    H161669   5.816   5.007   2.590  2.0158 -1.2473 -0.0635
13418TIP3    H261670   5.765   4.899   2.497 -0.2360  0.5548 -1.0267
13419TIP3   OH261671   2.094   1.828  14.207  0.1556  0.3697  0.3940
13419TIP3    H161672   2.053   1.864  14.285 -1.3456 -0.6261  0.0911
13419TIP3    H261673   2.073   1.891  14.137  0.5128  0.6682  0.5524
13420TIP3   OH261674   5.931   4.524   2.380  0.2291  0.4085 -0.6787
13420TIP3    H161675   5.904   4.482   2.299  1.1049 -0.6780 -0.4324
13420TIP3    H261676   6.026   4.525   2.376  0.3224 -0.3217  0.6289
13421TIP3   OH261677   4.511   3.168   4.307  0.2509  0.7033  0.1098
13421TIP3    H161678   4.460   3.243   4.338  0.3060  0.3466  1.1295
13421TIP3    H261679   4.514   3.109   4.383  0.8116 -0.0022 -0.4493
13422TIP3   OH261680   3.884   4.206   1.076  0.1125  0.6390 -0.0972
13422TIP3    H161681   3.863   4.116   1.102  2.5327 -0.2948 -1.0366
13422TIP3    H261682   3.803   4.255   1.090 -1.0685 -1.5168  1.1573
13423TIP3   OH261683   3.814   1.882   4.925  0.3623  0.3704  0.3138
13423TIP3    H161684   3.824   1.800   4.974  0.5911 -0.4627 -1.0793
13423TIP3    H261685   3.873   1.943   4.969 -1.1998  0.4158  2.5758
13424TIP3   OH261686   0.607   3.905  15.073  0.8240  0.3755  0.0518
13424TIP3    H161687   0.541   3.974  15.075 -0.1715 -0.5635  1.7313
13424TIP3    H261688   0.666   3.930  15.001 -1.7245  0.8630 -2.0004
13425TIP3   OH261689   4.309   0.450  11.814  0.8448  0.0665 -0.5739
13425TIP3    H161690   4.259   0.495  11.746  1.1439 -0.4062 -1.1180
13425TIP3    H261691   4.385   0.414  11.768  0.3262 -1.4771 -0.2820
13426TIP3   OH261692   3.238   4.772  17.070 -0.2506  0.0559 -0.5879
13426TIP3    H161693   3.309   4.801  17.128  0.7849 -0.5901 -1.4938
13426TIP3    H261694   3.260   4.810  16.985  0.4287 -2.2195 -1.4972
13427TIP3   OH261695   5.689   2.704  16.779 -0.1912 -0.4879  0.5262
13427TIP3    H161696   5.624   2.656  16.830 -0.5465 -0.6870 -0.1023
13427TIP3    H261697   5.655   2.702  16.690  0.5241 -0.3214  0.2462
13428TIP3   OH261698   2.890   6.648  15.014  0.2199  0.5208 -0.1748
13428TIP3    H161699   2.833   6.611  15.082 -0.5246  0.7052 -0.6861
13428TIP3    H261700   2.963   6.586  15.008 -0.8733 -0.7598 -0.8277
13429TIP3   OH261701   4.438   5.803  14.648  0.2828 -0.1548  0.4350
13429TIP3    H161702   4.357   5.767  14.683  0.0118 -1.4306 -1.3794
13429TIP3    H261703   4.411   5.884  14.604  0.6172  1.4246  2.9201
13430TIP3   OH261704   1.243   0.891  13.300  0.1809 -0.1486  0.7318
13430TIP3    H161705   1.148   0.894  13.313 -0.3891  2.7857 -2.5514
13430TIP3    H261706   1.259   0.805  13.259 -1.8227  0.7923 -2.3387
13431TIP3   OH261707   5.621   0.970  11.173  0.2234 -0.6558 -0.0052
13431TIP3    H161708   5.662   0.883  11.174  0.2183 -0.6772 -0.8870
13431TIP3    H261709   5.528   0.951  11.161  0.2116 -0.5248 -0.1105
13432TIP3   OH261710   4.012   5.893  17.210 -0.3208 -0.2831 -0.2447
13432TIP3    H161711   4.037   5.958  17.145  0.0837 -1.1012 -0.9267
13432TIP3    H261712   4.090   5.882  17.264 -0.8707  0.9033  0.8484
13433TIP3   OH261713   6.025   6.611  15.902  0.5692  0.2720 -0.0353
13433TIP3    H161714   6.091   6.659  15.852 -0.6344 -0.2695 -2.3051
13433TIP3    H261715   6.041   6.635  15.993  2.9532  1.2569 -0.6457
13434TIP3   OH261716   0.565   4.297   0.942  0.4141  0.6539 -0.3139
13434TIP3    H161717   0.628   4.230   0.917 -1.8614 -1.6850 -0.1855
13434TIP3    H261718   0.559   4.290   1.037 -0.8992 -0.0750 -0.4174
13435TIP3   OH261719   1.959   4.991   2.104 -0.4051 -0.0324 -0.4715
13435TIP3    H161720   1.894   4.965   2.170  0.7890 -0.8701  0.4154
13435TIP3    H261721   1.915   4.976   2.021 -1.0199 -1.6058  0.0881
13436TIP3   OH261722   3.277   1.633  15.669 -0.4321 -0.1374  0.2235
13436TIP3    H161723   3.205   1.676  15.623 -1.6409 -1.6896  0.6126
13436TIP3    H261724   3.268   1.662  15.760 -0.9265 -0.7731  0.3828
13437TIP3   OH261725   2.558   5.738   2.035  0.2883 -0.0601 -0.4875
13437TIP3    H161726   2.464   5.722   2.041  0.1526  0.6173 -0.6936
13437TIP3    H261727   2.587   5.685   1.960  0.2262 -0.9016  0.0734
13438TIP3   OH261728   1.935   2.751   1.867  0.5218 -0.3317 -0.1546
13438TIP3    H161729   2.017   2.728   1.911  1.1191  2.7443  0.6364
13438TIP3    H261730   1.878   2.676   1.880  2.4299 -1.6131  1.3726
13439TIP3   OH261731   1.714   2.145  14.598  0.1867 -0.0667  0.3748
13439TIP3    H161732   1.763   2.207  14.653 -0.0520 -0.7556  1.4075
13439TIP3    H261733   1.692   2.194  14.520  0.3639  1.0297  0.9913
13440TIP3   OH261734   4.043   0.582  13.062 -0.0116 -0.3570  0.0425
13440TIP3    H161735   4.015   0.497  13.096  0.0283 -0.7347 -0.8552
13440TIP3    H261736   3.964   0.618  13.020 -1.2215  1.8149  3.6977
13441TIP3   OH261737   2.463   3.554   5.757 -0.1577 -0.2212  0.3953
13441TIP3    H161738   2.457   3.648   5.773  0.5941  0.0160 -0.6132
13441TIP3    H261739   2.387   3.517   5.802 -0.9035  0.9574  0.1444
13442TIP3   OH261740   1.454   0.920   5.158 -1.2858  0.4829  0.0449
13442TIP3    H161741   1.466   1.013   5.138 -1.9373  0.4033 -0.7864
13442TIP3    H261742   1.391   0.919   5.230 -0.8029  0.7018  0.4730
13443TIP3   OH261743   0.083   6.412  14.131 -0.5598  0.0607 -0.0225
13443TIP3    H161744   0.060   6.497  14.093 -0.5194  0.1688  0.1930
13443TIP3    H261745   0.069   6.424  14.225  0.2897  0.1002  0.1025
13444TIP3   OH261746   6.127   5.880  12.745 -0.1708  0.4557  0.4196
13444TIP3    H161747   6.116   5.946  12.814  1.3182  1.3715 -0.1840
13444TIP3    H261748   6.191   5.818  12.782 -0.1538  0.3773  0.2573
13445TIP3   OH261749   1.212   4.152   5.903  0.2525  0.4852  0.2900
13445TIP3    H161750   1.277   4.096   5.860 -1.5584 -1.4006 -0.1612
13445TIP3    H261751   1.213   4.233   5.852  0.2776 -0.5750 -1.4956
13446TIP3   OH261752   3.841   2.030   0.281  0.1777  0.4537  0.6429
13446TIP3    H161753   3.932   2.034   0.310  0.6209  1.2054 -0.7352
13446TIP3    H261754   3.846   2.004   0.189 -1.2851 -4.3145  1.6547
13447TIP3   OH261755   6.218   0.261  16.969 -0.3261  0.3277 -0.2373
13447TIP3    H161756   6.282   0.331  16.985 -0.0159 -0.3168  1.6292
13447TIP3    H261757   6.153   0.273  17.038 -0.3352 -1.1281  0.0435
13448TIP3   OH261758   0.816   2.839  13.697 -1.0588  0.0716 -0.8951
13448TIP3    H161759   0.804   2.871  13.607 -0.6866  0.7557 -0.7061
13448TIP3    H261760   0.788   2.912  13.752 -1.6971 -0.5042 -0.4452
13449TIP3   OH261761   4.619   2.491   1.870 -0.1634 -0.1262  0.2152
13449TIP3    H161762   4.556   2.480   1.799 -1.7715  2.1201  1.1430
13449TIP3    H261763   4.603   2.417   1.929 -0.7167 -0.5289 -0.4381
13450TIP3   OH261764   0.768   5.604   5.356  0.0006  0.3583  0.5024
13450TIP3    H161765   0.805   5.673   5.411 -0.1733  0.8998 -0.0440
13450TIP3    H261766   0.681   5.637   5.333 -0.1387 -0.1128  0.3556
13451TIP3   OH261767   5.279   3.030   5.664 -0.9025  0.6180 -0.0498
13451TIP3    H161768   5.197   3.030   5.615 -2.1105 -0.1509  1.8359
13451TIP3    H261769   5.254   2.999   5.752  1.5448 -0.3413  0.3765
13452TIP3   OH261770   3.875   0.485   5.230  0.1579 -0.4068 -0.9753
13452TIP3    H161771   3.780   0.488   5.242  0.0303 -1.9573 -1.4387
13452TIP3    H261772   3.908   0.447   5.311  0.4095  0.1833 -0.7915
13453TIP3   OH261773   5.758   5.149  11.637 -0.0901  0.3283 -0.3149
13453TIP3    H161774   5.734   5.242  11.642  0.5769  0.4564  0.9503
13453TIP3    H261775   5.674   5.103  11.644 -0.3124  0.8291  0.5643
13454TIP3   OH261776   0.123   1.003  14.188  0.0173  0.0878  0.5349
13454TIP3    H161777   0.140   0.927  14.132  0.1725 -0.6920  1.6152
13454TIP3    H261778   0.206   1.051  14.187  0.5738 -0.8071  1.3974
13455TIP3   OH261779   0.244   0.476  13.460  0.2179  0.3489 -0.1767
13455TIP3    H161780   0.249   0.382  13.478 -0.2393  0.1130 -1.2299
13455TIP3    H261781   0.258   0.483  13.366 -0.2112  1.2948 -0.1779
13456TIP3   OH261782   0.346   2.288  16.005  0.3247 -0.2182 -0.4300
13456TIP3    H161783   0.308   2.260  16.088 -0.4634  0.5930 -0.5044
13456TIP3    H261784   0.386   2.208  15.969 -1.1309 -1.0742 -0.2471
13457TIP3   OH261785   2.674   2.025   4.635  0.4592  1.0105  0.1863
13457TIP3    H161786   2.697   1.932   4.641  0.9796  1.2394  2.4457
13457TIP3    H261787   2.757   2.068   4.617  0.3784  1.1382  0.1192
13458TIP3   OH261788   2.851   3.817   0.562 -0.3394 -0.9283 -0.1676
13458TIP3    H161789   2.794   3.744   0.585 -2.2367  0.9183  1.3692
13458TIP3    H261790   2.916   3.820   0.632 -0.3135 -1.0711 -0.1852
13459TIP3   OH261791   5.629   5.935   6.228  0.6838  0.0777 -0.2058
13459TIP3    H161792   5.604   5.898   6.313  0.1289 -2.3753 -1.3471
13459TIP3    H261793   5.725   5.938   6.230  0.6570  0.5277  0.6835
13460TIP3   OH261794   1.538   1.113   6.009 -0.1331 -0.0281 -0.0439
13460TIP3    H161795   1.560   1.032   6.055 -1.2158 -0.0495  0.4628
13460TIP3    H261796   1.559   1.095   5.918 -0.0666 -0.7754  0.1103
13461TIP3   OH261797   6.337   1.002   5.797  0.0737  0.6756 -0.6032
13461TIP3    H161798   6.344   1.074   5.860 -0.3168  1.8416 -1.8342
13461TIP3    H261799   6.393   1.029   5.724  0.9734 -0.9157 -0.5357
13462TIP3   OH261800   2.070   3.632  13.560 -0.0810  0.4408 -0.5090
13462TIP3    H161801   2.150   3.664  13.602 -1.1924  2.0156  0.5795
13462TIP3    H261802   2.037   3.708  13.511 -0.5931 -0.3690 -1.4493
13463TIP3   OH261803   2.974   5.713   2.222 -0.4084 -0.2433  0.9703
13463TIP3    H161804   2.942   5.654   2.154  0.0611  1.3485 -0.7238
13463TIP3    H261805   2.895   5.744   2.266 -0.8756 -0.0951  0.0696
13464TIP3   OH261806   4.312   2.578  11.503  0.8941  0.0977  0.0547
13464TIP3    H161807   4.291   2.622  11.421  2.7419 -1.6667 -1.4528
13464TIP3    H261808   4.359   2.644  11.554 -0.5072  1.2964 -0.1425
13465TIP3   OH261809   1.232   2.603   1.126 -0.0562  0.3594  0.1558
13465TIP3    H161810   1.320   2.621   1.091 -0.9612  2.3582 -1.3011
13465TIP3    H261811   1.245   2.598   1.220  1.7238  0.0163 -0.0678
13466TIP3   OH261812   1.485   2.348  17.309 -0.4941 -0.4937  0.2868
13466TIP3    H161813   1.397   2.385  17.317 -0.4852 -0.2657 -0.5163
13466TIP3    H261814   1.498   2.299  17.390 -0.9279  0.3770  0.9038
13467TIP3   OH261815   3.542   2.306   4.448 -0.1901 -0.4881 -0.0020
13467TIP3    H161816   3.592   2.350   4.517  1.5677 -0.7172 -1.0582
13467TIP3    H261817   3.559   2.358   4.369 -0.3211 -1.4781 -0.7023
13468TIP3   OH261818   1.359   0.257   3.127 -0.2128  0.4099 -0.4819
13468TIP3    H161819   1.413   0.313   3.071 -1.7253  0.7179 -1.7278
13468TIP3    H261820   1.296   0.318   3.167  0.5662  0.1196  1.2296
13469TIP3   OH261821   4.884   0.829   3.251  0.7678 -0.5900 -0.0869
13469TIP3    H161822   4.920   0.789   3.172 -0.9125  0.0810 -1.2562
13469TIP3    H261823   4.885   0.758   3.316 -1.1565 -2.3386 -1.7883
13470TIP3   OH261824   1.458   4.068  12.364 -0.8058  0.1926  0.6909
13470TIP3    H161825   1.381   4.040  12.413 -0.0575 -0.7657  1.3653
13470TIP3    H261826   1.513   3.990  12.359  0.1185  0.8509  0.2146
13471TIP3   OH261827   2.022   4.806   2.458 -0.5099 -0.1427  0.0241
13471TIP3    H161828   2.033   4.796   2.363 -0.7091 -0.2025  0.0059
13471TIP3    H261829   2.009   4.716   2.489 -0.2591 -0.1433  0.1342
13472TIP3   OH261830   4.807   3.997   5.149  0.0503  0.3903 -0.2944
13472TIP3    H161831   4.739   4.031   5.206  0.7853  0.4015  0.6087
13472TIP3    H261832   4.798   3.902   5.154 -0.4281  0.4021 -0.8494
13473TIP3   OH261833   2.632   1.490   1.808 -0.1074 -0.0102 -0.3056
13473TIP3    H161834   2.619   1.572   1.761 -1.1611  0.4981  0.8111
13473TIP3    H261835   2.546   1.447   1.805 -0.5082  0.5067  1.9607
13474TIP3   OH261836   2.292   6.694   5.839  0.2543 -0.2387  0.5432
13474TIP3    H161837   2.203   6.728   5.850  0.6534  1.0672 -0.0132
13474TIP3    H261838   2.347   6.759   5.882  1.1294  0.3457 -1.3727
13475TIP3   OH261839   2.422   4.998   1.179 -0.1604 -0.2033  0.0243
13475TIP3    H161840   2.406   5.065   1.113  0.4675 -1.1196 -1.1067
13475TIP3    H261841   2.425   5.045   1.262 -0.5274  1.0412 -0.6492
13476TIP3   OH261842   5.042   4.277   3.644  0.0696 -0.0640 -0.8141
13476TIP3    H161843   4.952   4.307   3.653  0.1938 -0.0317  0.3993
13476TIP3    H261844   5.039   4.214   3.572 -0.5612  1.3275 -2.0687
13477TIP3   OH261845   0.549   1.593  13.458  0.3393  0.1215 -0.0328
13477TIP3    H161846   0.555   1.689  13.458  0.7393  0.1003  0.9613
13477TIP3    H261847   0.456   1.576  13.439 -0.1629  0.7539  1.6817
13478TIP3   OH261848   3.267   2.904   1.031 -0.4422  0.2057  0.2413
13478TIP3    H161849   3.199   2.837   1.024 -0.6177  0.2176  1.6258
13478TIP3    H261850   3.342   2.867   0.984 -0.2425 -1.3882  1.7190
13479TIP3   OH261851   4.850   3.164   2.117  0.0923  0.1090 -0.2868
13479TIP3    H161852   4.926   3.133   2.166 -1.0707 -0.9033  0.9659
13479TIP3    H261853   4.782   3.176   2.184 -1.3500 -0.6172 -1.5531
13480TIP3   OH261854   5.444   1.421  15.261  0.0879 -0.0409  0.2452
13480TIP3    H161855   5.442   1.368  15.340 -2.2397  1.3991  1.2706
13480TIP3    H261856   5.455   1.511  15.292  1.2863  0.3706 -1.2465
13481TIP3   OH261857   5.182   0.282  15.574 -0.4738  0.0187  0.0573
13481TIP3    H161858   5.262   0.256  15.618 -0.4299  0.7221  0.3985
13481TIP3    H261859   5.209   0.298  15.483  0.0748  1.6581  0.4805
13482TIP3   OH261860   0.645   1.978   1.565 -0.2207 -0.3152 -0.1511
13482TIP3    H161861   0.602   1.966   1.650 -0.1076 -0.8201 -0.1644
13482TIP3    H261862   0.698   2.057   1.577 -1.4422  0.5527 -0.2597
13483TIP3   OH261863   2.277   0.258   1.361  0.7776  0.2270 -0.1106
13483TIP3    H161864   2.296   0.295   1.274  0.2285  0.1274 -0.2775
13483TIP3    H261865   2.186   0.283   1.378  0.7873 -0.0166  0.3058
13484TIP3   OH261866   0.402   1.258   4.613 -0.3695  0.4608 -0.4213
13484TIP3    H161867   0.456   1.322   4.659 -0.8961  0.4281  0.2607
13484TIP3    H261868   0.319   1.304   4.597 -0.4988  0.1827 -0.5606
13485TIP3   OH261869   4.157   6.163  16.415 -0.0930 -0.3372 -0.1933
13485TIP3    H161870   4.088   6.142  16.352  1.2072  1.2617 -2.2906
13485TIP3    H261871   4.199   6.079  16.433 -0.1175 -0.7591 -1.9797
13486TIP3   OH261872   5.378   4.769  16.789 -0.1742 -0.5403 -1.0883
13486TIP3    H161873   5.369   4.862  16.809  1.6584 -0.4502 -0.5133
13486TIP3    H261874   5.472   4.755  16.783 -0.3888 -2.4688 -0.6023
13487TIP3   OH261875   1.905   0.870  16.397 -0.2115  0.1436  0.0422
13487TIP3    H161876   1.998   0.869  16.376  0.0131  1.3427  0.9146
13487TIP3    H261877   1.862   0.875  16.311  0.6553  3.4746 -0.3411
13488TIP3   OH261878   1.034   1.261   2.822  0.5597 -0.1374  0.2839
13488TIP3    H161879   0.980   1.201   2.771  1.1515  0.4148 -1.0442
13488TIP3    H261880   1.123   1.247   2.788  1.3213 -1.0647  2.4332
13489TIP3   OH261881   6.500   6.011   3.830  0.5393  0.8757  0.5275
13489TIP3    H161882   6.587   6.038   3.798  0.4341  2.2400  1.3313
13489TIP3    H261883   6.440   6.041   3.762  0.7282 -0.7772 -0.4203
13490TIP3   OH261884   1.262   2.649  14.603  1.0416 -0.4774 -0.0827
13490TIP3    H161885   1.209   2.647  14.523  2.0959  0.2884 -0.8312
13490TIP3    H261886   1.335   2.590  14.584  0.1532 -2.0599  1.1947
13491TIP3   OH261887   5.024   0.434  15.731 -0.0957  0.0577 -0.2848
13491TIP3    H161888   5.067   0.381  15.663 -0.8138 -1.9572  0.7404
13491TIP3    H261889   4.931   0.414  15.722 -0.3107  0.6200  0.5972
13492TIP3   OH261890   0.876   1.837  11.956 -0.2245 -0.1073 -0.1345
13492TIP3    H161891   0.839   1.876  11.877  1.1847  0.4770 -0.5399
13492TIP3    H261892   0.822   1.761  11.974 -0.0084 -0.7860 -2.2085
13493TIP3   OH261893   0.977   2.082   1.311  0.2678  0.0140 -0.0371
13493TIP3    H161894   0.900   2.027   1.295  0.8782 -0.9463  0.2007
13493TIP3    H261895   1.037   2.060   1.240  1.1212 -0.7871  0.8815
13494TIP3   OH261896   2.656   3.351   2.347  0.6612 -0.0850 -0.2401
13494TIP3    H161897   2.584   3.305   2.389  0.3490  0.6877  0.0847
13494TIP3    H261898   2.629   3.359   2.256 -0.2070  1.2219  0.1101
13495TIP3   OH261899   4.793   2.030  16.640 -0.4707  0.1250  0.0570
13495TIP3    H161900   4.791   2.004  16.547  0.4681 -2.0310  0.5704
13495TIP3    H261901   4.761   1.953  16.687 -0.4239  0.9922  1.5862
13496TIP3   OH261902   6.273   3.791   2.685 -0.3895  0.3035  0.2552
13496TIP3    H161903   6.211   3.718   2.679 -1.3188  0.9947  1.1651
13496TIP3    H261904   6.277   3.812   2.778 -0.3465  1.5701 -0.0107
13497TIP3   OH261905   1.219   4.815   4.123 -0.4775  0.1445 -0.0968
13497TIP3    H161906   1.232   4.746   4.059  0.5514  0.0317  0.2007
13497TIP3    H261907   1.136   4.794   4.166 -1.1318  0.1838 -1.3206
13498TIP3   OH261908   5.487   4.402  14.485  0.1113  0.1076  0.2124
13498TIP3    H161909   5.532   4.363  14.560  0.1370  0.3502  0.3218
13498TIP3    H261910   5.496   4.336  14.416  0.7744  0.2193  0.1827
13499TIP3   OH261911   6.717   5.204  13.959 -0.1265  0.2398  0.6434
13499TIP3    H161912   6.623   5.195  13.948  0.0242 -0.4126 -0.2237
13499TIP3    H261913   6.733   5.299  13.958 -0.7102  0.3382  0.2502
13500TIP3   OH261914   1.508   4.833   6.692 -0.0199  0.1104  0.1053
13500TIP3    H161915   1.551   4.782   6.761  0.9672  0.7502 -0.0188
13500TIP3    H261916   1.419   4.847   6.726 -0.2100 -1.3514  0.3026
13501TIP3   OH261917   0.287   5.010  16.067 -0.7270 -0.0854  0.4957
13501TIP3    H161918   0.330   5.086  16.029 -1.2577 -0.7209 -1.4834
13501TIP3    H261919   0.196   5.036  16.078 -1.1729 -0.7869 -1.3175
13502TIP3   OH261920   0.308   0.670   6.743 -0.0855 -0.0248  0.4175
13502TIP3    H161921   0.363   0.663   6.820 -0.9812 -2.2863  0.9447
13502TIP3    H261922   0.362   0.717   6.679  2.2631 -1.5823  1.0978
13503TIP3   OH261923   6.627   2.732  10.760  0.2138 -0.2560  0.5568
13503TIP3    H161924   6.604   2.696  10.674  0.9134 -0.1512  0.3219
13503TIP3    H261925   6.590   2.821  10.759 -2.1964 -1.1594  1.4314
13504TIP3   OH261926   6.105   4.795  12.306 -0.4370 -0.5798  0.2455
13504TIP3    H161927   6.194   4.761  12.300 -0.8299 -1.4794 -1.0487
13504TIP3    H261928   6.111   4.884  12.272  0.3408  0.2130  2.2995
13505TIP3   OH261929   4.470   5.835  13.787  0.5356  0.2637  0.2985
13505TIP3    H161930   4.417   5.803  13.714  1.9554  0.2997 -0.7858
13505TIP3    H261931   4.559   5.838  13.753  1.2811  0.0748  2.1196
13506TIP3   OH261932   5.660   3.131  15.900 -0.1462 -0.3588 -0.2365
13506TIP3    H161933   5.613   3.107  15.979 -2.7115 -1.5803 -2.0083
13506TIP3    H261934   5.723   3.197  15.929 -0.8726 -0.8581  2.8021
13507TIP3   OH261935   6.500   4.330  14.339  0.4552 -0.2454 -0.6019
13507TIP3    H161936   6.421   4.384  14.345  1.3023  1.1381 -1.4591
13507TIP3    H261937   6.520   4.308  14.430 -0.0072  0.7553 -0.2373
13508TIP3   OH261938   3.304   3.912   0.561 -0.7335  0.7448  0.0719
13508TIP3    H161939   3.282   3.955   0.644  1.0620  2.2220 -0.1604
13508TIP3    H261940   3.324   3.822   0.587 -0.4921  1.1043  1.2117
13509TIP3   OH261941   6.501   4.466  15.071 -0.3680 -0.0822  0.1120
13509TIP3    H161942   6.444   4.537  15.042 -0.4468 -0.3445 -0.3977
13509TIP3    H261943   6.588   4.491  15.039 -0.6405 -0.8989 -1.3495
13510TIP3   OH261944   1.312   2.187   6.277 -0.4723  0.2011  0.5223
13510TIP3    H161945   1.268   2.115   6.321 -1.0822  0.6846  0.7232
13510TIP3    H261946   1.360   2.146   6.205 -3.4105 -0.1020 -1.4249
13511TIP3   OH261947   1.180   3.906   3.867  0.1432  0.6058  0.3347
13511TIP3    H161948   1.114   3.975   3.866  0.1587  0.6641 -2.0140
13511TIP3    H261949   1.183   3.875   3.776  3.0537  0.3300  0.4459
13512TIP3   OH261950   2.551   4.590  15.122  0.1764 -0.0425 -0.6897
13512TIP3    H161951   2.500   4.516  15.153 -0.3718  0.2585 -0.8671
13512TIP3    H261952   2.641   4.558  15.121 -0.1107 -0.8574 -1.2201
13513TIP3   OH261953   4.447   2.962  13.578  0.0134  0.3207 -0.3463
13513TIP3    H161954   4.445   3.011  13.661 -1.6514 -1.9185  1.0588
13513TIP3    H261955   4.371   2.995  13.530 -0.3511  0.0555  0.0339
13514TIP3   OH261956   5.633   1.080  15.762 -0.0632  0.1608 -0.0545
13514TIP3    H161957   5.603   1.021  15.692 -0.4365  0.8785 -0.5156
13514TIP3    H261958   5.681   1.023  15.822 -1.9674 -0.9838  0.4826
13515TIP3   OH261959   2.923   0.220   0.602 -0.0691 -0.3372 -0.2800
13515TIP3    H161960   2.999   0.165   0.622 -0.1940 -0.7780 -0.9730
13515TIP3    H261961   2.955   0.309   0.612 -0.0439 -0.5115  1.5395
13516TIP3   OH261962   3.436   1.653   6.219  0.6304  0.1259  0.1912
13516TIP3    H161963   3.470   1.694   6.299  2.2889 -0.7644  0.0002
13516TIP3    H261964   3.376   1.585   6.250 -0.9799  1.6489  0.5490
13517TIP3   OH261965   5.821   4.877   3.777  0.0467  0.0730  0.3513
13517TIP3    H161966   5.824   4.917   3.864 -4.3732  1.3563  0.1411
13517TIP3    H261967   5.833   4.783   3.793 -0.0060  0.3578  2.2581
13518TIP3   OH261968   5.529   4.297   4.127 -0.0197  0.0375 -0.4791
13518TIP3    H161969   5.589   4.289   4.053  1.7089  0.6499  0.7772
13518TIP3    H261970   5.516   4.392   4.136  0.7346  0.0581  0.6684
13519TIP3   OH261971   2.836   3.304   5.277  0.0496  0.4520 -0.9893
13519TIP3    H161972   2.806   3.258   5.356 -0.9175  1.2890 -0.8417
13519TIP3    H261973   2.794   3.258   5.205  2.0875 -1.2460 -1.1983
13520TIP3   OH261974   5.337   5.486   4.899  0.3311  0.6928 -0.2082
13520TIP3    H161975   5.358   5.422   4.967  0.0923 -0.7187 -1.4278
13520TIP3    H261976   5.292   5.556   4.946  1.9223  0.7157  1.3979
13521TIP3   OH261977   4.249   5.253  15.185 -0.3552 -0.0108 -0.7158
13521TIP3    H161978   4.330   5.249  15.134 -0.4504 -0.5215 -0.8318
13521TIP3    H261979   4.234   5.346  15.199 -0.2886  0.1333 -1.5628
13522TIP3   OH261980   2.521   1.429   5.785  0.2591 -0.2386  0.0959
13522TIP3    H161981   2.431   1.460   5.775 -0.3430 -2.3182 -1.7554
13522TIP3    H261982   2.575   1.504   5.759 -0.9632  0.6721  0.0995
13523TIP3   OH261983   5.993   0.693   0.823 -0.1381 -0.2349  0.3393
13523TIP3    H161984   6.037   0.724   0.902 -1.3283  0.3851  0.7941
13523TIP3    H261985   5.904   0.671   0.852 -0.0821 -1.6786 -0.4915
13524TIP3   OH261986   2.019   2.293  16.451  0.5905 -0.1440  0.0745
13524TIP3    H161987   1.972   2.377  16.452  1.1810  0.2007  0.8476
13524TIP3    H261988   1.966   2.236  16.506  1.5199  0.5316  1.7546
13525TIP3   OH261989   2.481   1.481  17.264 -0.3899 -0.0738  0.0376
13525TIP3    H161990   2.419   1.489  17.337  0.4516 -0.0283  0.7664
13525TIP3    H261991   2.563   1.518  17.298  0.1503 -0.4840 -0.7758
13526TIP3   OH261992   0.813   1.088  11.462 -0.4981 -0.4146  0.0417
13526TIP3    H161993   0.829   1.141  11.541 -0.2149  1.0721 -0.9746
13526TIP3    H261994   0.743   1.029  11.487 -1.1698  0.7788  1.0971
13527TIP3   OH261995   6.216   4.669   2.256  0.3973 -0.0769 -0.2954
13527TIP3    H161996   6.203   4.617   2.335 -0.3707 -0.2945 -0.5606
13527TIP3    H261997   6.224   4.759   2.287  3.0469 -0.4362  0.3037
13528TIP3   OH261998   1.123   6.436  14.693  0.0955 -0.2469  0.2022
13528TIP3    H161999   1.050   6.379  14.718  0.1856 -0.0347  0.9927
13528TIP3    H262000   1.108   6.517  14.742 -0.0043  0.4088 -0.8718
13529TIP3   OH262001   5.711   2.671  15.902  0.5985 -0.2184 -0.0280
13529TIP3    H162002   5.738   2.763  15.891  1.7413 -0.5637 -0.1555
13529TIP3    H262003   5.722   2.654  15.995  0.1857 -0.1725  0.0308
13530TIP3   OH262004   0.322   1.279   3.193 -0.0053  0.6010  0.2357
13530TIP3    H162005   0.333   1.288   3.288  0.3279  0.5826  0.1976
13530TIP3    H262006   0.411   1.285   3.158 -0.1803  1.1922 -0.1199
13531TIP3   OH262007   1.569   3.867  13.385 -0.0307 -0.0595  0.4732
13531TIP3    H162008   1.651   3.866  13.335 -0.1811 -0.4678  0.2224
13531TIP3    H262009   1.557   3.958  13.410  0.3915  0.0406  0.3270
13532TIP3   OH262010   5.741   1.435  12.975  0.0686  0.3569 -0.9372
13532TIP3    H162011   5.684   1.432  13.052 -0.2161  0.2820 -1.1481
13532TIP3    H262012   5.824   1.398  13.005 -0.0140  0.4058 -0.6451
13533TIP3   OH262013   0.414   3.448  16.859 -0.8093 -0.1502 -0.0998
13533TIP3    H162014   0.367   3.521  16.820  1.2624  1.9535  1.0943
13533TIP3    H262015   0.501   3.452  16.819  0.0692 -0.4731  1.6983
13534TIP3   OH262016   1.402   0.327   5.092 -0.3913  0.6077  0.3569
13534TIP3    H162017   1.329   0.371   5.136 -1.4145  0.5309 -1.1765
13534TIP3    H262018   1.379   0.234   5.094 -0.0928  0.5301  0.2916
13535TIP3   OH262019   6.445   0.511  12.551 -0.6376 -0.1298  0.3438
13535TIP3    H162020   6.425   0.605  12.549  0.7214  0.1525 -1.1710
13535TIP3    H262021   6.365   0.471  12.586 -1.2896  1.5648  0.8972
13536TIP3   OH262022   1.276   3.827  14.921 -0.5216 -0.5117 -0.0208
13536TIP3    H162023   1.234   3.744  14.944  0.5261 -0.8753  0.6578
13536TIP3    H262024   1.226   3.893  14.968 -1.7820 -0.6710 -1.0933
13537TIP3   OH262025   2.806   3.758  13.044  0.2433 -0.6724 -0.0006
13537TIP3    H162026   2.870   3.788  12.980  0.3322 -1.3940 -0.2577
13537TIP3    H262027   2.725   3.803  13.019  0.4445 -0.4008 -0.1785
13538TIP3   OH262028   3.122   3.154   5.531 -0.2353  0.1589  0.4036
13538TIP3    H162029   3.113   3.223   5.597  0.4307  0.9482 -0.3079
13538TIP3    H262030   3.074   3.080   5.567 -1.4140  1.1557  0.9569
13539TIP3   OH262031   0.789   4.179  10.651 -0.0796  0.4509 -0.0098
13539TIP3    H162032   0.884   4.169  10.660 -0.2403  0.2380  2.0084
13539TIP3    H262033   0.766   4.248  10.713 -1.3141  0.0417  0.0214
13540TIP3   OH262034   1.535   0.733  16.658  0.4107  0.5268  0.2062
13540TIP3    H162035   1.470   0.776  16.713 -0.8413 -0.2149 -0.6413
13540TIP3    H262036   1.486   0.664  16.613  1.7425  0.0971 -0.6309
13541TIP3   OH262037   5.979   2.031  14.393 -0.1625 -0.0947 -0.0036
13541TIP3    H162038   5.973   1.944  14.354 -2.0664  0.1662 -0.3669
13541TIP3    H262039   5.930   2.087  14.334  1.0584  1.2661  0.2168
13542TIP3   OH262040   1.411   0.917   6.408  0.1053 -0.7010  0.8995
13542TIP3    H162041   1.351   0.986   6.381 -1.4205 -2.0584  0.6957
13542TIP3    H262042   1.403   0.914   6.504 -1.1606 -1.7304  0.7801
13543TIP3   OH262043   1.900   2.439   2.001 -0.4978  0.4229 -0.0529
13543TIP3    H162044   1.954   2.492   2.060  1.7103 -2.1498  0.4588
13543TIP3    H262045   1.840   2.392   2.059 -0.3836  0.1439 -0.1567
13544TIP3   OH262046   4.308   3.494  14.146  0.4504 -0.1925 -0.3584
13544TIP3    H162047   4.325   3.554  14.219  0.6328 -0.3038 -0.3086
13544TIP3    H262048   4.220   3.516  14.116  0.1586 -0.5063  0.2452
13545TIP3   OH262049   3.940   2.880   0.426  0.0879  0.0066 -0.9532
13545TIP3    H162050   3.918   2.844   0.340  0.3730 -2.0434 -0.2151
13545TIP3    H262051   3.990   2.811   0.470 -3.0236 -0.5582  2.2008
13546TIP3   OH262052   2.838   3.408   4.926  0.1889 -0.2104 -0.0809
13546TIP3    H162053   2.902   3.338   4.932 -1.2627 -1.8409 -2.0828
13546TIP3    H262054   2.754   3.366   4.943 -0.5131  1.5984  1.2240
13547TIP3   OH262055   6.678   0.970  13.201  0.2126 -0.1467  0.7451
13547TIP3    H162056   6.658   0.913  13.127 -1.5550  0.9682  0.3162
13547TIP3    H262057   6.732   1.040  13.163  1.8352 -1.1069  1.1506
13548TIP3   OH262058   6.320   4.609  14.946 -0.9055 -0.3579  0.2865
13548TIP3    H162059   6.339   4.684  14.889  0.0474 -0.7402  0.0898
13548TIP3    H262060   6.235   4.630  14.985  0.1871  1.7572  1.7278
13549TIP3   OH262061   1.576   5.469   4.238  0.1127 -0.1513  0.1376
13549TIP3    H162062   1.656   5.522   4.237 -0.2758  0.4546 -1.7269
13549TIP3    H262063   1.522   5.506   4.169 -2.1556 -0.0523  1.8445
13550TIP3   OH262064   1.670   4.345  15.799 -0.1798 -0.0832  0.2670
13550TIP3    H162065   1.756   4.386  15.794 -0.8677  1.3619 -0.4384
13550TIP3    H262066   1.687   4.255  15.826  1.6608 -0.2573 -1.3194
13551TIP3   OH262067   2.982   3.034   0.840 -1.2626 -0.1776  0.1566
13551TIP3    H162068   3.002   3.124   0.868  0.4392 -0.6659  0.6331
13551TIP3    H262069   3.067   2.999   0.813 -1.2744 -2.6533  2.8929
13552TIP3   OH262070   3.492   6.736   2.154  0.3602  0.6515 -0.3241
13552TIP3    H162071   3.477   6.733   2.059  0.2365 -0.5733 -0.2880
13552TIP3    H262072   3.405   6.730   2.192  0.4391  0.7367 -0.1275
13553TIP3   OH262073   0.435   2.295  12.772 -0.1367  0.0711  0.3968
13553TIP3    H162074   0.392   2.330  12.694 -0.6771 -1.6981 -0.1583
13553TIP3    H262075   0.413   2.356  12.842 -0.2607  1.2955 -0.6795
13554TIP3   OH262076   3.171   0.126  12.642  0.1061 -0.3703 -0.0721
13554TIP3    H162077   3.180   0.079  12.559  0.1680 -0.5831  0.0545
13554TIP3    H262078   3.226   0.204  12.632 -1.1403  0.4362 -0.8258
13555TIP3   OH262079   6.078   1.981  11.981 -0.4176 -0.2877 -0.4990
13555TIP3    H162080   5.987   1.966  12.006 -0.6828 -0.5398 -1.5803
13555TIP3    H262081   6.115   1.894  11.971 -0.0957 -0.1858 -0.2027
13556TIP3   OH262082   6.401   1.567   3.571 -0.3799  0.7419  0.4972
13556TIP3    H162083   6.471   1.503   3.558  1.0396  2.3627 -0.2790
13556TIP3    H262084   6.354   1.536   3.649  1.2880 -0.3184  1.1323
13557TIP3   OH262085   4.212   2.109   4.781 -0.4661  0.3941 -0.3712
13557TIP3    H162086   4.252   2.026   4.807 -0.6596 -0.1883 -1.8408
13557TIP3    H262087   4.231   2.117   4.687 -2.5926  0.7824 -0.8210
13558TIP3   OH262088   0.985   2.835   5.066  0.5479  0.0575  0.1393
13558TIP3    H162089   1.050   2.897   5.099  0.6054  2.1225 -3.3345
13558TIP3    H262090   0.901   2.876   5.085  0.5939  1.6477 -2.5697
13559TIP3   OH262091   0.665   0.201  11.298 -0.4129  0.2239  0.3031
13559TIP3    H162092   0.624   0.281  11.329 -2.1238  0.2054 -1.7345
13559TIP3    H262093   0.624   0.184  11.213  1.4824 -1.6215 -0.3242
13560TIP3   OH262094   3.536   0.371  16.531  0.4427 -0.4892 -0.5898
13560TIP3    H162095   3.499   0.335  16.451 -0.8605 -0.6517  0.0542
13560TIP3    H262096   3.545   0.464  16.514  0.5716 -0.5910 -1.0761
13561TIP3   OH262097   5.320   2.564   1.422  0.0134 -0.0967  0.0487
13561TIP3    H162098   5.334   2.648   1.379  0.0972  1.5050  2.9718
13561TIP3    H262099   5.406   2.538   1.453 -0.6060  1.4097  3.5310
13562TIP3   OH262100   4.438   1.219  12.520 -0.4489 -0.3059 -0.5246
13562TIP3    H162101   4.373   1.285  12.544  1.0609  1.7953 -1.7855
13562TIP3    H262102   4.515   1.241  12.572  0.1797 -0.8840 -1.1861
13563TIP3   OH262103   2.568   6.250   4.505 -0.6555 -0.4083  0.1191
13563TIP3    H162104   2.582   6.173   4.560 -0.0351  0.7001  1.5518
13563TIP3    H262105   2.633   6.314   4.534  0.1541  0.0194 -2.3561
13564TIP3   OH262106   2.930   2.664  12.430  0.4535  0.4852 -0.0775
13564TIP3    H162107   2.947   2.589  12.487  0.4201 -0.9199 -1.8357
13564TIP3    H262108   2.937   2.629  12.341 -1.5045  2.1129 -0.9577
13565TIP3   OH262109   0.608   5.334   2.231 -0.7111  0.3221  0.2033
13565TIP3    H162110   0.590   5.276   2.157  3.2039 -0.2051 -0.5315
13565TIP3    H262111   0.615   5.421   2.191 -0.1435  0.2828  0.2185
13566TIP3   OH262112   2.028   1.086  16.597 -0.3536 -0.4638  0.3206
13566TIP3    H162113   1.970   1.017  16.564  1.6505 -1.7111 -0.8299
13566TIP3    H262114   2.017   1.158  16.535 -0.6917 -0.6797  0.1252
13567TIP3   OH262115   4.747   0.621   0.758 -0.2395 -0.0440 -0.0669
13567TIP3    H162116   4.785   0.564   0.825 -0.2269  2.0563  1.8680
13567TIP3    H262117   4.821   0.668   0.721 -0.4317  0.1994 -0.1464
13568TIP3   OH262118   0.237   2.647  11.519 -0.2239 -0.3724  0.6483
13568TIP3    H162119   0.220   2.555  11.542  0.8162 -1.1007 -1.3019
13568TIP3    H262120   0.168   2.696  11.565 -1.2339 -2.1856  1.1738
13569TIP3   OH262121   3.707   3.689   1.169  0.1157 -0.3236  0.1849
13569TIP3    H162122   3.720   3.666   1.077 -0.5544 -0.4459  0.1210
13569TIP3    H262123   3.795   3.709   1.200  0.3529 -0.2990 -0.4761
13570TIP3   OH262124   5.906   3.437  11.689  0.1585  0.8132  0.4763
13570TIP3    H162125   5.999   3.413  11.685  0.2519  1.1649  0.4665
13570TIP3    H262126   5.859   3.356  11.672  0.4810  1.0430 -1.8411
13571TIP3   OH262127   4.887   6.310  12.922  0.4857  0.5293 -0.3381
13571TIP3    H162128   4.919   6.389  12.967 -0.7070  0.1932  1.1514
13571TIP3    H262129   4.865   6.249  12.992  1.5060 -1.2240 -1.4695
13572TIP3   OH262130   2.662   0.480  11.263 -0.6149 -0.1705 -0.3004
13572TIP3    H162131   2.647   0.408  11.202 -2.1920 -0.2702  0.1634
13572TIP3    H262132   2.679   0.556  11.207  0.6166 -0.7733 -0.7959
13573TIP3   OH262133   4.577   0.995   2.698 -0.0132  0.0842  0.1619
13573TIP3    H162134   4.653   0.960   2.652  0.5068  0.8945  0.3923
13573TIP3    H262135   4.522   0.918   2.714  0.8871 -0.5599  0.2469
13574TIP3   OH262136   1.046   3.234   6.077  0.3442 -0.2616  0.0367
13574TIP3    H162137   1.142   3.230   6.079  0.3721  0.1090  2.2634
13574TIP3    H262138   1.019   3.143   6.086  0.5774 -0.1783  2.3017
13575TIP3   OH262139   0.041   0.802   4.141 -0.8980  0.3679  0.0363
13575TIP3    H162140  -0.017   0.845   4.204 -0.3520 -1.2880  1.7705
13575TIP3    H262141   0.061   0.718   4.181  0.3351 -0.3285 -1.9095
13576TIP3   OH262142   3.438   0.249  12.842 -0.1680 -0.3019  0.0683
13576TIP3    H162143   3.496   0.282  12.910 -1.4428  1.3443  0.4158
13576TIP3    H262144   3.368   0.204  12.890  0.4561 -1.7448 -0.3196
13577TIP3   OH262145   0.263   1.890  12.560  0.2124 -0.1407 -0.0782
13577TIP3    H162146   0.200   1.830  12.519 -0.3525 -0.1589  0.7961
13577TIP3    H262147   0.247   1.974  12.518  0.5057 -0.4326 -0.7891
13578TIP3   OH262148   0.181   3.363  17.379  0.0187 -0.2959 -0.7451
13578TIP3    H162149   0.204   3.379  17.287  3.6729  0.6097  0.1586
13578TIP3    H262150   0.148   3.274  17.380  0.0036 -0.3796 -2.9113
13579TIP3   OH262151   2.960   4.581   4.674 -0.2566  0.2735  0.0567
13579TIP3    H162152   2.966   4.502   4.620  0.8592 -0.8841  1.7639
13579TIP3    H262153   3.026   4.640   4.638 -0.7794  0.2655 -0.9449
13580TIP3   OH262154   3.978   5.330   0.139  0.4629 -0.2595 -0.6494
13580TIP3    H162155   3.999   5.303   0.050  1.7003 -2.7795  0.3191
13580TIP3    H262156   3.883   5.321   0.146  0.3327  0.1802 -1.7531
13581TIP3   OH262157   3.732   4.760  11.896  0.2008 -0.6485  0.6637
13581TIP3    H162158   3.791   4.732  11.826  0.2899 -2.1789  1.3187
13581TIP3    H262159   3.791   4.786  11.967  0.0983 -1.3171  0.9955
13582TIP3   OH262160   4.823   0.221  12.776 -0.2592 -0.7905 -0.3929
13582TIP3    H162161   4.884   0.204  12.705 -0.7983 -0.6900 -0.8842
13582TIP3    H262162   4.756   0.153  12.767 -1.2045  0.1891 -0.9766
13583TIP3   OH262163   6.634   4.386  14.599 -0.2324  0.0285  0.0082
13583TIP3    H162164   6.617   4.319  14.664 -0.8989 -1.9021 -2.0314
13583TIP3    H262165   6.713   4.356  14.553 -0.9581  0.1885 -1.4219
13584TIP3   OH262166   6.312   6.550  13.006  0.1550 -0.2109 -0.5828
13584TIP3    H162167   6.304   6.638  13.042 -0.6435  0.1323 -1.5849
13584TIP3    H262168   6.264   6.552  12.923  1.6751 -1.0767 -1.5355
13585TIP3   OH262169   6.049   5.272  11.717 -0.0236 -0.5161  0.1018
13585TIP3    H162170   6.095   5.213  11.776 -0.4653 -1.6465 -0.6344
13585TIP3    H262171   5.966   5.229  11.700  0.2360 -0.4357 -1.6190
13586TIP3   OH262172   0.114   6.629  12.974  0.3264  0.0793 -0.2934
13586TIP3    H162173   0.166   6.695  13.020 -1.9638  2.3779 -0.7961
13586TIP3    H262174   0.148   6.629  12.885  0.4179  0.4959 -0.2612
13587TIP3   OH262175   0.633   1.087  15.950 -0.1289  0.0971  0.5952
13587TIP3    H162176   0.674   1.003  15.929 -0.5876 -0.4141  1.6893
13587TIP3    H262177   0.618   1.128  15.865  1.3613 -0.3108  0.1025
13588TIP3   OH262178   3.516   4.794   4.319  0.3812 -0.1438 -0.1113
13588TIP3    H162179   3.543   4.723   4.262  1.0489  0.9039 -1.1517
13588TIP3    H262180   3.445   4.758   4.371 -0.3913 -1.0825 -1.7485
13589TIP3   OH262181   4.519   5.345  13.988 -0.3275  0.1052  0.5029
13589TIP3    H162182   4.613   5.345  13.968  0.1489 -0.0862  2.5743
13589TIP3    H262183   4.499   5.437  14.006 -0.0988 -0.0782  1.8118
13590TIP3   OH262184   4.489   5.825  13.429  0.5500  0.5251  0.6890
13590TIP3    H162185   4.580   5.821  13.458  0.0824  3.2050  2.9391
13590TIP3    H262186   4.447   5.749  13.469  1.5577 -0.1765  0.4521
13591TIP3   OH262187   3.620   6.142   2.005 -0.8802 -0.0570 -0.2438
13591TIP3    H162188   3.593   6.114   1.918  1.4050  0.8756 -1.3336
13591TIP3    H262189   3.589   6.232   2.013 -1.3110 -0.2242  0.0383
13592TIP3   OH262190   5.264   4.401  14.320 -0.1145  0.3412 -0.1152
13592TIP3    H162191   5.329   4.427  14.385  0.2259  0.4279 -0.4785
13592TIP3    H262192   5.212   4.333  14.362 -0.7651  1.3313  0.7116
13593TIP3   OH262193   5.866   2.751   5.768 -0.0445 -0.0008  0.5480
13593TIP3    H162194   5.791   2.810   5.757 -0.2162 -0.3641 -0.2430
13593TIP3    H262195   5.911   2.753   5.684 -0.9916 -2.2765 -0.0769
13594TIP3   OH262196   5.467   4.188  16.961  0.4536 -0.4934  0.5973
13594TIP3    H162197   5.532   4.127  16.926 -0.1603 -0.9014  0.1283
13594TIP3    H262198   5.469   4.174  17.055 -1.2527 -2.9583  0.3813
13595TIP3   OH262199   2.558   2.999  13.600 -0.0559  0.1867 -0.2396
13595TIP3    H162200   2.494   3.008  13.529 -0.7258 -0.5444  0.2415
13595TIP3    H262201   2.520   2.931  13.657  1.4413 -0.6957 -0.2433
13596TIP3   OH262202   2.439   4.595   1.074  0.4515  0.2409  0.3034
13596TIP3    H162203   2.375   4.525   1.058  1.6089 -1.2391  1.7341
13596TIP3    H262204   2.425   4.657   1.002 -1.5691 -0.7439 -0.2516
13597TIP3   OH262205   1.810   4.196   4.843  0.0478 -0.7637 -0.4488
13597TIP3    H162206   1.738   4.135   4.824  0.1911 -1.0007 -0.2430
13597TIP3    H262207   1.853   4.158   4.920 -0.1345 -0.1686 -0.0422
13598TIP3   OH262208   1.771   1.162   6.174  0.2478  0.3921 -0.2814
13598TIP3    H162209   1.801   1.247   6.142 -2.1663  0.8664 -1.5462
13598TIP3    H262210   1.691   1.145   6.124 -1.0239 -1.1988  2.0987
13599TIP3   OH262211   6.191   3.284  16.240 -0.0243  0.2007  0.0542
13599TIP3    H162212   6.170   3.228  16.165 -0.0056 -0.0612  0.2432
13599TIP3    H262213   6.106   3.312  16.274 -0.1806 -2.1350  1.7915
13600TIP3   OH262214   2.407   1.761  11.422  0.2769 -0.3243  0.0428
13600TIP3    H162215   2.475   1.805  11.473  0.0828 -0.6883  0.6241
13600TIP3    H262216   2.442   1.674  11.406  0.4964 -0.0908 -0.7765
13601TIP3   OH262217   5.972   1.315   0.823 -0.2128  0.1551  0.1447
13601TIP3    H162218   5.966   1.226   0.860  1.0552  0.1774  0.4704
13601TIP3    H262219   5.949   1.304   0.731  0.3305 -0.6024  0.0835
13602TIP3   OH262220   3.330   0.887   0.385 -0.7427 -0.2154 -0.2747
13602TIP3    H162221   3.399   0.921   0.329 -1.5644 -0.2597 -1.3591
13602TIP3    H262222   3.375   0.855   0.463  0.0866  3.1698  0.7676
13603TIP3   OH262223   6.507   0.334   1.259 -0.4424  0.2011  0.1881
13603TIP3    H162224   6.431   0.284   1.289 -1.9310  2.0426 -0.2994
13603TIP3    H262225   6.560   0.347   1.337 -1.6370  0.5072  0.9869
13604TIP3   OH262226   5.525   0.372  13.543  0.3308  0.4955 -1.1387
13604TIP3    H162227   5.490   0.344  13.458 -2.0416  0.5251 -0.2422
13604TIP3    H262228   5.577   0.450  13.522  1.6958 -0.7820 -2.8220
13605TIP3   OH262229   2.786   2.130  10.749  0.0045  0.2009 -0.1199
13605TIP3    H162230   2.722   2.195  10.720 -0.9987  0.1395  1.8066
13605TIP3    H262231   2.750   2.046  10.719 -0.9983  0.1399  1.1740
13606TIP3   OH262232   4.578   2.401  11.590  0.0477 -0.4864 -0.4402
13606TIP3    H162233   4.530   2.340  11.646  1.8628 -2.2045 -0.6465
13606TIP3    H262234   4.593   2.352  11.509  2.1628 -0.0565 -0.3585
13607TIP3   OH262235   1.086   4.047   0.837 -0.0559 -0.0077  0.3546
13607TIP3    H162236   1.069   4.067   0.745  1.1735  0.2274  0.1649
13607TIP3    H262237   1.181   4.035   0.842 -0.2273 -1.1571  1.3755
13608TIP3   OH262238   4.950   4.248   5.078  1.0939 -0.9638  0.3074
13608TIP3    H162239   4.885   4.178   5.081  0.0982 -0.1481 -1.2467
13608TIP3    H262240   4.981   4.249   4.988  0.1710  1.3657 -0.0572
13609TIP3   OH262241   1.033   4.640  17.336  0.0213  0.0537  0.0800
13609TIP3    H162242   0.964   4.656  17.400 -0.8128 -1.2884 -0.4557
13609TIP3    H262243   1.007   4.560  17.291  1.6599 -0.1974 -0.5041
13610TIP3   OH262244   5.136   5.052  14.605  0.4265  0.1324  0.4295
13610TIP3    H162245   5.120   4.970  14.652  0.7736 -0.3933 -0.3360
13610TIP3    H262246   5.088   5.118  14.654 -0.8110 -0.7240  0.4239
13611TIP3   OH262247   5.344   5.827   5.326 -0.2359  0.1560 -0.5355
13611TIP3    H162248   5.306   5.892   5.385  0.8334  0.3215 -0.0100
13611TIP3    H262249   5.435   5.818   5.354  0.2251  0.0153 -1.9654
13612TIP3   OH262250   3.168   1.482   1.119  0.1821 -0.3607  0.2008
13612TIP3    H162251   3.078   1.462   1.095  0.0380  1.4855 -1.0871
13612TIP3    H262252   3.161   1.541   1.194  0.2066  0.9171 -0.7652
13613TIP3   OH262253   6.390   4.829   1.679 -0.2966  0.4956  0.1129
13613TIP3    H162254   6.485   4.830   1.671 -0.1547 -0.3179  1.3326
13613TIP3    H262255   6.369   4.739   1.704 -1.5186  0.3181 -1.3586
13614TIP3   OH262256   5.451   5.067   1.941  0.0825  0.2854 -0.1369
13614TIP3    H162257   5.434   4.989   1.994 -0.4663 -0.4700 -1.3837
13614TIP3    H262258   5.514   5.038   1.875  1.8984  1.5916  0.9288
13615TIP3   OH262259   5.884   5.028   3.323 -0.7656 -0.4493  0.3947
13615TIP3    H162260   5.934   5.074   3.255 -1.5939  0.8581  0.6260
13615TIP3    H262261   5.898   5.081   3.402 -1.4113 -0.8352  0.7688
13616TIP3   OH262262   3.361   6.557  12.856  0.0349 -0.0361  0.0385
13616TIP3    H162263   3.291   6.549  12.792  0.4734 -0.4067 -0.3970
13616TIP3    H262264   3.332   6.504  12.931  0.6172 -1.6111 -0.8145
13617TIP3   OH262265   4.792   4.707  14.493  0.1406 -0.1199 -0.4413
13617TIP3    H162266   4.825   4.727  14.580  0.3983  1.6368 -0.9037
13617TIP3    H262267   4.813   4.615  14.480  0.3451 -0.3402  1.2291
13618TIP3   OH262268   4.249   4.943   2.599 -0.1723  0.1311 -0.3721
13618TIP3    H162269   4.264   5.037   2.607  0.3198 -0.0974  2.1837
13618TIP3    H262270   4.156   4.932   2.616 -0.0160  0.0734  0.4807
13619TIP3   OH262271   2.650   2.479   4.371 -0.2731  0.0693 -0.3738
13619TIP3    H162272   2.681   2.490   4.461 -0.6480 -1.8900  0.0274
13619TIP3    H262273   2.658   2.385   4.353  0.1540  0.4592 -2.5322
13620TIP3   OH262274   1.734   4.159  11.914 -0.1278  0.4960  0.1484
13620TIP3    H162275   1.810   4.122  11.959 -0.2700 -0.3900 -0.3129
13620TIP3    H262276   1.756   4.251  11.899  1.3202 -0.0075 -0.9732
13621TIP3   OH262277   6.011   1.590  11.440  0.0136 -0.3233 -0.3686
13621TIP3    H162278   6.104   1.593  11.463 -0.2854  2.6005  0.9771
13621TIP3    H262279   6.008   1.628  11.352  0.0161  0.9076  0.1421
13622TIP3   OH262280   3.090   5.143  12.905 -0.6070 -0.5314  0.1095
13622TIP3    H162281   3.002   5.154  12.869 -1.4320 -0.0722  2.1571
13622TIP3    H262282   3.146   5.129  12.828 -2.4831 -1.0752 -1.2170
13623TIP3   OH262283   5.855   0.363   5.414 -0.5059 -0.1173 -0.3075
13623TIP3    H162284   5.947   0.391   5.408 -0.9687  1.4289 -0.7336
13623TIP3    H262285   5.846   0.330   5.503  0.9318 -2.1469 -0.8523
13624TIP3   OH262286   5.662   3.828   0.856 -0.7452 -0.1900 -0.5307
13624TIP3    H162287   5.622   3.866   0.778  0.7067 -0.3518 -1.3838
13624TIP3    H262288   5.663   3.899   0.920  0.8760  0.9190 -1.7109
13625TIP3   OH262289   4.838   4.118  16.877 -0.9865 -0.2620  0.3833
13625TIP3    H162290   4.870   4.155  16.795 -2.1919 -0.1142 -0.0517
13625TIP3    H262291   4.903   4.143  16.943 -1.4648  2.1944  0.0032
13626TIP3   OH262292   2.956   6.279   0.340  0.0273 -0.2611 -0.4996
13626TIP3    H162293   2.873   6.246   0.307 -0.5379 -1.4757  1.9000
13626TIP3    H262294   2.989   6.209   0.397  2.1946  0.6212 -0.5590
13627TIP3   OH262295   4.061   5.563   1.091 -0.3956 -0.1082  0.2713
13627TIP3    H162296   3.979   5.518   1.113 -0.9446  1.1337  0.8659
13627TIP3    H262297   4.033   5.643   1.047  0.5918 -0.9939 -2.1488
13628TIP3   OH262298   0.611   0.231   4.018 -0.3586  0.0509 -0.2699
13628TIP3    H162299   0.636   0.208   3.928 -1.7778 -0.1917 -0.6258
13628TIP3    H262300   0.680   0.193   4.072  1.0496  1.0579 -1.3001
13629TIP3   OH262301   3.017   5.656   4.473 -0.3104 -0.0930 -0.1589
13629TIP3    H162302   3.060   5.742   4.475  0.5739 -0.5246 -0.1760
13629TIP3    H262303   3.088   5.593   4.485 -0.8789 -0.8495 -0.6426
13630TIP3   OH262304   1.784   1.712   1.535  0.3552 -0.1350  0.5397
13630TIP3    H162305   1.854   1.777   1.534 -0.5345  0.8433  0.0708
13630TIP3    H262306   1.815   1.643   1.476  0.7383  0.5107 -0.0431
13631TIP3   OH262307   2.515   2.018   1.052  0.0823  0.1517 -0.3293
13631TIP3    H162308   2.503   1.984   1.141 -0.1731  0.1596 -0.3588
13631TIP3    H262309   2.447   2.084   1.043  0.6333  0.7452 -0.2420
13632TIP3   OH262310   4.509   1.198   6.803 -0.2827 -0.6028 -0.6578
13632TIP3    H162311   4.458   1.264   6.850  1.7344 -0.3495  1.4262
13632TIP3    H262312   4.510   1.228   6.712 -2.0330  0.4765 -0.3727
13633TIP3   OH262313   2.917   0.344  12.834 -0.3044 -0.3453 -0.0885
13633TIP3    H162314   2.897   0.282  12.764 -0.7620  2.5489 -2.7854
13633TIP3    H262315   2.832   0.377  12.863 -0.0766  1.4432 -1.2359
13634TIP3   OH262316   3.881   6.630   2.222  0.1470  0.1395  0.2821
13634TIP3    H162317   3.823   6.583   2.161  0.2120  1.4334 -0.8322
13634TIP3    H262318   3.904   6.565   2.288 -1.5755 -0.7517  0.0590
13635TIP3   OH262319   0.425   1.502   3.428  0.0874  0.5230 -0.3063
13635TIP3    H162320   0.427   1.556   3.349 -0.6441  0.4745 -0.3587
13635TIP3    H262321   0.517   1.491   3.451  0.2554  1.8896 -0.2340
13636TIP3   OH262322   5.923   0.142   4.300  0.4098 -0.2921 -0.0698
13636TIP3    H162323   6.006   0.180   4.330 -0.0157  0.1153  0.6122
13636TIP3    H262324   5.856   0.191   4.347 -0.3287  0.6988 -2.0367
13637TIP3   OH262325   3.955   2.756  14.943 -0.2614 -0.2839  0.6289
13637TIP3    H162326   3.898   2.722  15.013  0.3629 -0.6152  0.9810
13637TIP3    H262327   3.894   2.790  14.877 -0.8693 -0.7027  0.9663
13638TIP3   OH262328   4.255   3.083   4.195  0.3567  0.2719 -0.3252
13638TIP3    H162329   4.167   3.118   4.180  0.9566  1.4436 -1.2880
13638TIP3    H262330   4.281   3.119   4.280 -0.7902 -1.6159  0.8825
13639TIP3   OH262331   0.941   6.461  16.787  0.4585 -0.5756  0.4832
13639TIP3    H162332   1.034   6.437  16.789  0.7980  0.6772  2.7495
13639TIP3    H262333   0.918   6.476  16.878 -1.1974  2.0274 -0.2522
13640TIP3   OH262334   4.785   1.911  16.358  0.5747  0.5407 -0.6418
13640TIP3    H162335   4.720   1.841  16.366  1.8414 -0.5125  1.2217
13640TIP3    H262336   4.857   1.871  16.309  0.8531  0.9174 -0.5424
13641TIP3   OH262337   1.472   4.877   1.121  0.6259 -0.1381 -0.5743
13641TIP3    H162338   1.512   4.796   1.152  1.5054  1.1209  1.7725
13641TIP3    H262339   1.394   4.848   1.074  1.2252 -2.3633 -0.3116
13642TIP3   OH262340   5.459   1.022  14.087  0.6282  0.6037  0.0828
13642TIP3    H162341   5.500   0.936  14.086 -0.4604 -0.0543  2.6551
13642TIP3    H262342   5.532   1.084  14.077  1.6857 -0.5925  0.1587
13643TIP3   OH262343   0.553   4.506  14.152  0.3082 -0.7555 -0.2620
13643TIP3    H162344   0.479   4.469  14.202  0.6437 -1.5666 -0.3466
13643TIP3    H262345   0.520   4.590  14.121  0.2637  0.0249  1.7425
13644TIP3   OH262346   0.681   3.378  12.947  0.0937  0.2884 -0.3174
13644TIP3    H162347   0.617   3.446  12.969  0.5050  0.3436  0.7721
13644TIP3    H262348   0.677   3.316  13.020  1.9758  0.8055  0.2880
13645TIP3   OH262349   1.995   3.064  11.992  0.2429  0.3416 -0.2385
13645TIP3    H162350   1.951   2.980  11.984  0.5674  0.1424  0.0351
13645TIP3    H262351   1.992   3.101  11.904  1.7428 -0.7913 -0.8185
13646TIP3   OH262352   1.747   6.094   5.705  0.2226  0.7323  0.0356
13646TIP3    H162353   1.769   6.170   5.759 -2.9014  1.5969  0.3163
13646TIP3    H262354   1.679   6.127   5.645  0.2636 -1.3525 -1.2416
13647TIP3   OH262355   3.645   3.401   4.092  0.6535  0.1673 -0.4522
13647TIP3    H162356   3.560   3.408   4.049  0.8920  0.9629 -0.8028
13647TIP3    H262357   3.644   3.468   4.160  0.7754 -0.2175 -0.0673
13648TIP3   OH262358   2.260   2.110  10.921 -0.1177  0.4657  0.8061
13648TIP3    H162359   2.270   2.125  10.827  1.3431  1.8874  1.1517
13648TIP3    H262360   2.169   2.135  10.940  0.3500  2.8617  0.2047
13649TIP3   OH262361   0.409   1.568   4.554 -0.4299 -0.8881  0.1511
13649TIP3    H162362   0.467   1.617   4.495 -1.0136 -0.2969  0.0624
13649TIP3    H262363   0.355   1.515   4.496  1.1406 -2.7557  0.2903
13650TIP3   OH262364   2.507   0.067  14.880  0.3997 -0.7372  0.1513
13650TIP3    H162365   2.530   0.106  14.795 -1.1064 -0.9135 -0.3750
13650TIP3    H262366   2.561  -0.012  14.885 -0.1751 -1.2432 -1.1029
13651TIP3   OH262367   0.789   6.219   4.683  0.5913 -0.1169  0.4296
13651TIP3    H162368   0.719   6.175   4.635  0.9565 -1.2975  0.9329
13651TIP3    H262369   0.804   6.301   4.636 -1.1591  0.1872  0.3445
13652TIP3   OH262370   1.015   2.159  12.364 -0.2392 -0.0203  0.2610
13652TIP3    H162371   0.945   2.149  12.299  0.3256 -0.2729 -0.3090
13652TIP3    H262372   0.968   2.166  12.448 -0.9350 -0.5997 -0.0701
13653TIP3   OH262373   4.805   2.919  14.146  0.4012 -0.0861 -0.7240
13653TIP3    H162374   4.748   2.844  14.134  1.3828 -0.7002 -1.7841
13653TIP3    H262375   4.801   2.966  14.063  0.6085  0.4620 -0.4349
13654TIP3   OH262376   2.393   3.866  14.122  0.1317 -0.5204  0.0814
13654TIP3    H162377   2.442   3.946  14.105  1.4293 -1.4943 -1.0534
13654TIP3    H262378   2.442   3.822  14.191  0.2573 -0.9966 -0.3048
13655TIP3   OH262379   0.127   6.557  16.330 -0.1804  0.2333  0.5548
13655TIP3    H162380   0.171   6.515  16.256 -0.5118 -0.0162  0.4970
13655TIP3    H262381   0.039   6.576  16.298  0.0008  1.0756  0.5506
13656TIP3   OH262382   5.665   6.378  14.277  0.3523  0.0381  0.5473
13656TIP3    H162383   5.708   6.442  14.221  1.1526 -0.4328  0.6195
13656TIP3    H262384   5.735   6.341  14.330  0.0515 -1.4934 -0.0724
13657TIP3   OH262385   6.676   2.696   1.485 -0.1546 -0.2067  0.3663
13657TIP3    H162386   6.744   2.638   1.451 -0.3459  0.1870 -0.7154
13657TIP3    H262387   6.621   2.640   1.539 -0.0040 -0.9106 -0.2038
13658TIP3   OH262388   3.209   2.069  14.850 -0.8862  0.3305 -0.3871
13658TIP3    H162389   3.166   2.097  14.769 -1.2253  1.5686  0.2074
13658TIP3    H262390   3.137   2.056  14.912 -0.7606 -1.9024 -0.6021
13659TIP3   OH262391   6.109   6.632  14.815 -0.1520  0.0369 -0.2070
13659TIP3    H162392   6.188   6.633  14.762 -0.6740 -0.1310 -0.9963
13659TIP3    H262393   6.122   6.702  14.879  0.5551  0.1204 -0.4348
13660TIP3   OH262394   4.986   2.577   4.732 -0.0455 -0.7225 -0.0729
13660TIP3    H162395   5.033   2.660   4.719 -1.7679  0.8513  2.8253
13660TIP3    H262396   5.056   2.511   4.736  1.5075  0.7804 -0.8498
13661TIP3   OH262397   5.269   4.432   4.233 -0.6336  0.1685 -0.0650
13661TIP3    H162398   5.217   4.487   4.176 -1.1438  0.9815  1.1419
13661TIP3    H262399   5.360   4.451   4.209 -0.7793  1.9653  0.6771
13662TIP3   OH262400   0.224   3.420   4.430  0.3775 -0.2981  0.3026
13662TIP3    H162401   0.183   3.446   4.513  1.9931 -1.9755  1.7308
13662TIP3    H262402   0.318   3.428   4.447  0.7876  1.6008 -2.2258
13663TIP3   OH262403   1.727   5.184   2.621  0.4191 -0.3321 -0.6161
13663TIP3    H162404   1.746   5.188   2.527 -0.6014 -0.5396 -0.8388
13663TIP3    H262405   1.738   5.092   2.645  1.2526 -0.1838 -0.3986
13664TIP3   OH262406   0.996   6.345   4.090 -0.6596 -0.0251  0.8094
13664TIP3    H162407   0.988   6.255   4.058 -1.5323 -1.0551  3.5942
13664TIP3    H262408   0.946   6.397   4.028  1.0049 -1.1840 -1.6499
13665TIP3   OH262409   5.640   1.669   3.359  0.5131  0.7865 -0.8650
13665TIP3    H162410   5.703   1.666   3.430  0.1760 -2.0014 -0.5852
13665TIP3    H262411   5.584   1.745   3.379  0.7649  0.3869  1.5377
13666TIP3   OH262412   0.181   4.428   5.696  0.3610 -0.1536 -0.4748
13666TIP3    H162413   0.249   4.458   5.757  0.1738 -0.2670 -0.2091
13666TIP3    H262414   0.182   4.333   5.704 -0.1043 -0.1398 -0.1647
13667TIP3   OH262415   5.783   0.587  14.152  0.5384  0.5375 -0.4379
13667TIP3    H162416   5.866   0.544  14.134  0.1464 -0.4746  0.1020
13667TIP3    H262417   5.728   0.519  14.192 -0.6996  1.0529 -1.1884
13668TIP3   OH262418   6.081   2.078  16.009 -0.2235 -0.6726 -0.0921
13668TIP3    H162419   6.037   2.084  16.094  2.4616  1.2434  1.3058
13668TIP3    H262420   6.042   2.148  15.957 -0.5136 -0.5850  0.2349
13669TIP3   OH262421   1.858   1.221   3.495 -0.2208 -0.1425  0.3461
13669TIP3    H162422   1.780   1.185   3.539 -0.7260 -1.5474 -1.5689
13669TIP3    H262423   1.875   1.159   3.424  1.4291  1.2663 -0.5354
13670TIP3   OH262424   5.279   5.719  10.913 -0.0811 -0.2041 -0.1281
13670TIP3    H162425   5.254   5.805  10.880  0.7750  0.6812  1.4175
13670TIP3    H262426   5.357   5.735  10.967 -0.4740 -1.7961  0.9916
13671TIP3   OH262427   6.204   5.959  17.272  0.2784  0.6488 -0.3810
13671TIP3    H162428   6.123   5.924  17.309 -1.6773  1.6024 -3.3825
13671TIP3    H262429   6.265   5.961  17.345 -2.5519  0.3600  2.1767
13672TIP3   OH262430   4.002   2.151  14.477  0.0275  0.2018  0.1661
13672TIP3    H162431   3.986   2.066  14.436  0.7180 -0.3608  0.9965
13672TIP3    H262432   4.070   2.191  14.423  3.5660 -2.0237  2.4759
13673TIP3   OH262433   3.509   5.757  14.117  0.1950 -0.3676 -0.0442
13673TIP3    H162434   3.478   5.841  14.151 -0.7186 -0.9444  0.5725
13673TIP3    H262435   3.472   5.692  14.175 -1.8759 -1.4497 -2.3935
13674TIP3   OH262436   4.896   1.653   0.557 -0.0342  0.2912 -0.1214
13674TIP3    H162437   4.894   1.719   0.626  1.9400 -0.5590  0.8020
13674TIP3    H262438   4.938   1.697   0.483  3.6344 -0.5203  1.2942
13675TIP3   OH262439   2.758   0.196  17.320  0.5215  0.0333 -0.5506
13675TIP3    H162440   2.826   0.143  17.361 -0.4596 -0.3483  0.6526
13675TIP3    H262441   2.742   0.266  17.384  0.4774  0.6915 -1.2730
13676TIP3   OH262442   2.757   2.939  15.631 -0.2422  0.5084  0.2827
13676TIP3    H162443   2.734   2.860  15.680  1.3752 -0.3134 -0.2052
13676TIP3    H262444   2.819   2.909  15.566 -1.5327  1.7633 -1.6207
13677TIP3   OH262445   1.949   4.398   1.401 -0.7203  0.9319  0.4042
13677TIP3    H162446   1.982   4.404   1.312 -2.7805 -0.6548 -0.5364
13677TIP3    H262447   2.025   4.421   1.456  0.9916  0.5853 -1.6818
13678TIP3   OH262448   1.442   1.485  10.552 -0.6123 -0.5424  0.0167
13678TIP3    H162449   1.377   1.553  10.534  0.2248  0.5139  0.8324
13678TIP3    H262450   1.414   1.447  10.635  0.3305  0.6165  0.9018
13679TIP3   OH262451   3.684   5.005  16.811 -0.6344  0.5528 -0.5712
13679TIP3    H162452   3.707   5.013  16.904 -0.7304 -0.8853 -0.4052
13679TIP3    H262453   3.613   5.068  16.799 -1.3611  0.0049  0.6023
13680TIP3   OH262454   4.900   0.106  11.631  0.5153  0.1980 -0.4095
13680TIP3    H162455   4.880   0.184  11.683  0.7745  1.8488 -2.6144
13680TIP3    H262456   4.976   0.067  11.674 -0.4436  0.3280  1.5277
13681TIP3   OH262457   5.757   4.692  16.309  0.4067 -0.5767  0.2315
13681TIP3    H162458   5.818   4.735  16.369 -1.7447  0.6926  1.6324
13681TIP3    H262459   5.703   4.636  16.364 -2.5845  1.7042 -0.1339
13682TIP3   OH262460   3.619   3.249  13.464  0.3827  0.3635 -0.0123
13682TIP3    H162461   3.611   3.209  13.377 -2.2297  2.0689 -0.6951
13682TIP3    H262462   3.567   3.194  13.522 -0.4098  0.8495 -0.2357
13683TIP3   OH262463   5.664   2.013  15.359 -0.1272  0.0896 -0.1911
13683TIP3    H162464   5.749   2.057  15.370 -1.1645  1.9546  0.8992
13683TIP3    H262465   5.647   2.018  15.265  1.3109 -1.0295 -0.5438
13684TIP3   OH262466   3.175   2.624   0.709  0.0270 -0.0853 -0.2264
13684TIP3    H162467   3.161   2.607   0.615  0.0248 -0.4477 -0.1604
13684TIP3    H262468   3.160   2.540   0.751 -0.9461  0.2900  0.2105
13685TIP3   OH262469   5.011   3.201   2.517 -0.7321 -0.7231 -0.0455
13685TIP3    H162470   5.031   3.174   2.427  1.0815 -0.6805  0.3066
13685TIP3    H262471   5.077   3.158   2.570 -2.4774 -1.6956  1.4608
13686TIP3   OH262472   6.741   0.914   5.183  0.2252  0.3682 -0.2153
13686TIP3    H162473   6.680   0.848   5.150 -1.0530  1.3065  0.1587
13686TIP3    H262474   6.685   0.990   5.203  1.3898  0.9334  1.0671
13687TIP3   OH262475   5.527   4.675  15.312  0.4781  0.2480 -0.2701
13687TIP3    H162476   5.557   4.584  15.315 -0.0785  0.0488 -0.6471
13687TIP3    H262477   5.604   4.724  15.285  0.4602 -0.2705 -1.3192
13688TIP3   OH262478   1.557   2.533   4.938  0.0391 -0.5797 -0.5524
13688TIP3    H162479   1.484   2.596   4.936  1.3685  1.0477 -2.3877
13688TIP3    H262480   1.598   2.547   5.024 -1.0408 -0.6106 -0.0150
13689TIP3   OH262481   3.309   6.293  11.775  0.5209 -0.1556  0.0731
13689TIP3    H162482   3.309   6.247  11.859 -0.8844 -2.3319 -1.0374
13689TIP3    H262483   3.217   6.298  11.750  0.8604  1.0556 -1.0449
13690TIP3   OH262484   6.069   4.216   5.715 -0.2990 -0.5659  0.6725
13690TIP3    H162485   6.158   4.230   5.682 -0.6937  0.1412 -0.1445
13690TIP3    H262486   6.081   4.185   5.805  0.7336  1.5168  1.3059
13691TIP3   OH262487   0.437   2.137   3.210 -0.0257 -0.4383 -0.4954
13691TIP3    H162488   0.394   2.060   3.247 -0.6829 -0.1228 -0.5791
13691TIP3    H262489   0.373   2.208   3.222 -0.0286 -0.2115 -1.6984
13692TIP3   OH262490   0.347   1.156  14.659 -0.4399  0.0184 -0.2674
13692TIP3    H162491   0.427   1.159  14.606 -1.8077 -2.2888 -2.6751
13692TIP3    H262492   0.286   1.215  14.613  0.3020  3.4505  2.6964
13693TIP3   OH262493   6.415   5.543  13.276 -0.5883  0.1809  0.3904
13693TIP3    H162494   6.470   5.464  13.273  0.7942  1.0399  1.8252
13693TIP3    H262495   6.336   5.515  13.323 -2.7651 -1.7456 -3.7781
13694TIP3   OH262496   6.279   2.410  14.477 -0.8725 -0.3082  0.2406
13694TIP3    H162497   6.186   2.405  14.498 -0.8364  0.0454  0.4925
13694TIP3    H262498   6.284   2.391  14.384 -1.1570 -0.6991  0.3028
13695TIP3   OH262499   0.813   4.211  12.034 -0.3991 -0.5760  0.3291
13695TIP3    H162500   0.722   4.187  12.047 -0.3231 -0.0428  2.0823
13695TIP3    H262501   0.831   4.276  12.102  0.9022  0.3831 -0.8623
13696TIP3   OH262502   3.383   2.403  15.510 -0.4925  0.6187  0.5590
13696TIP3    H162503   3.318   2.344  15.550  1.3223 -1.1601  1.0507
13696TIP3    H262504   3.387   2.376  15.419  2.4239 -2.2438  1.3483
13697TIP3   OH262505   0.798   4.359   5.418  0.0500  0.4049 -0.2576
13697TIP3    H162506   0.765   4.415   5.348 -1.4861  0.7396  0.6893
13697TIP3    H262507   0.888   4.387   5.431  1.0311 -0.9385 -3.3489
13698TIP3   OH262508   0.822   1.104  11.061 -0.0086 -0.2278 -0.1382
13698TIP3    H162509   0.798   1.041  10.993 -0.2919 -0.1457 -0.1149
13698TIP3    H262510   0.749   1.166  11.064 -0.1747 -0.4477  0.5031
13699TIP3   OH262511   1.356   4.219   5.438  0.0414 -0.1568 -0.1280
13699TIP3    H162512   1.420   4.177   5.495  0.6362  0.9306  0.0348
13699TIP3    H262513   1.301   4.148   5.407  1.6248 -1.2169 -0.6605
13700TIP3   OH262514   4.066   5.775   6.568 -0.3537 -0.3843 -0.2551
13700TIP3    H162515   4.059   5.832   6.645  0.1915 -2.0142  1.0427
13700TIP3    H262516   4.060   5.836   6.494  2.1183  1.6248  1.0267
13701TIP3   OH262517   0.028   2.197  14.503  0.1163  0.4903  0.5340
13701TIP3    H162518  -0.038   2.232  14.444  0.6168  0.9427  0.2300
13701TIP3    H262519   0.011   2.103  14.506 -0.0920  0.5041 -0.0971
13702TIP3   OH262520   1.213   3.396   2.270 -0.6740 -0.0068  0.5952
13702TIP3    H162521   1.205   3.343   2.350 -1.0236 -1.2153 -0.2104
13702TIP3    H262522   1.182   3.338   2.200  1.7099  0.2041 -0.7538
13703TIP3   OH262523   5.691   4.292  17.379  0.0970  0.1584 -0.2439
13703TIP3    H162524   5.727   4.244  17.454  0.5940 -1.2030 -1.3121
13703TIP3    H262525   5.719   4.241  17.302 -1.9819  0.4534 -1.2598
13704TIP3   OH262526   5.934   5.449  12.662  0.0955 -0.0332  0.0752
13704TIP3    H162527   5.918   5.483  12.750  2.1231  0.6137  0.2644
13704TIP3    H262528   5.941   5.527  12.607  0.0145 -0.3811 -0.4366
13705TIP3   OH262529   2.707   6.292  12.033 -0.1307  0.4397 -0.1057
13705TIP3    H162530   2.761   6.216  12.052  0.0007  0.7102  0.6291
13705TIP3    H262531   2.768   6.355  11.994 -1.0493 -1.5250 -5.5982
13706TIP3   OH262532   4.193   5.651   1.862 -0.3655  0.0616 -0.5870
13706TIP3    H162533   4.277   5.620   1.895 -0.6287 -0.5096 -0.4476
13706TIP3    H262534   4.128   5.603   1.913 -0.7819  0.7738 -0.4287
13707TIP3   OH262535   0.497   4.410   2.485 -0.3874 -0.2044  0.0093
13707TIP3    H162536   0.419   4.446   2.443 -0.8189 -0.1403  0.8589
13707TIP3    H262537   0.538   4.485   2.528  0.4819 -0.1211 -0.9355
13708TIP3   OH262538   4.719   3.947   0.996  0.4204 -0.0109  0.0521
13708TIP3    H162539   4.767   3.882   1.047 -0.2739 -0.6790 -0.1076
13708TIP3    H262540   4.713   3.908   0.908  0.4746  0.5227 -0.1915
13709TIP3   OH262541   3.695   2.619  11.317  0.5159 -0.5865 -0.0136
13709TIP3    H162542   3.735   2.702  11.290  1.7233 -0.9383  0.6532
13709TIP3    H262543   3.699   2.565  11.238  1.8270 -0.7821  0.1621
13710TIP3   OH262544   3.087   5.077   5.041  0.0839  0.1183 -0.0668
13710TIP3    H162545   3.124   5.142   5.101  0.5849 -0.3231  0.1072
13710TIP3    H262546   3.161   5.022   5.015 -0.4316 -0.7649  0.2765
13711TIP3   OH262547   3.183   2.287  15.619 -0.2745 -0.0074 -0.8449
13711TIP3    H162548   3.117   2.259  15.682 -1.0694 -0.9135 -2.0226
13711TIP3    H262549   3.133   2.330  15.549  0.3673 -0.6184 -1.7153
13712TIP3   OH262550   1.382   1.948   6.496  0.5343  0.0631 -0.0734
13712TIP3    H162551   1.444   1.998   6.550  0.2830  0.9031 -0.5485
13712TIP3    H262552   1.297   1.965   6.535  0.2010  1.5907 -1.3547
13713TIP3   OH262553   0.944   3.212   4.063 -0.3650 -0.4062 -0.3200
13713TIP3    H162554   0.944   3.272   3.989  0.3813 -0.4193 -0.3442
13713TIP3    H262555   0.943   3.268   4.140  1.7587 -0.2845 -0.3253
13714TIP3   OH262556   5.260   3.954  13.622  0.4254 -0.4669  0.4678
13714TIP3    H162557   5.195   3.931  13.556  1.4168 -0.6345 -0.4908
13714TIP3    H262558   5.277   3.873  13.669 -0.5011 -0.2801  1.1378
13715TIP3   OH262559   5.425   1.804  17.046 -0.0132 -0.0822  0.2524
13715TIP3    H162560   5.457   1.744  17.112 -0.3585  0.0687  0.5574
13715TIP3    H262561   5.333   1.782  17.035  0.4189 -1.2737 -1.4480
13716TIP3   OH262562   5.454   2.925   3.455 -0.3617  0.5312  0.3915
13716TIP3    H162563   5.377   2.981   3.450 -1.3894 -0.9569 -2.9093
13716TIP3    H262564   5.528   2.985   3.464 -1.5638  2.3299 -1.1470
13717TIP3   OH262565   5.899   1.473  10.916  0.5939 -0.2091 -0.4369
13717TIP3    H162566   5.814   1.430  10.906  0.4973 -0.8155  2.2057
13717TIP3    H262567   5.951   1.441  10.842 -0.8134 -1.5344 -0.9096
13718TIP3   OH262568   1.305   4.981  15.466  0.0209  0.0779  0.0795
13718TIP3    H162569   1.303   4.903  15.521  1.7621  0.7869  1.2372
13718TIP3    H262570   1.219   5.021  15.478 -1.6430 -2.4854 -1.9415
13719TIP3   OH262571   6.643   6.280  17.049  0.2366  0.2774  0.0171
13719TIP3    H162572   6.596   6.198  17.066  1.1752 -0.4866 -0.9121
13719TIP3    H262573   6.586   6.348  17.085 -0.8022 -0.7398  0.3742
13720TIP3   OH262574   4.196   0.826  15.425 -0.0904  0.1970  0.2022
13720TIP3    H162575   4.140   0.889  15.379 -0.1505 -1.6292 -2.4752
13720TIP3    H262576   4.285   0.845  15.395 -0.1283 -1.0262 -0.7858
13721TIP3   OH262577   2.097   3.148   1.330  0.1915 -0.0829  0.5783
13721TIP3    H162578   2.083   3.059   1.365  2.9504 -0.5053  0.8180
13721TIP3    H262579   2.092   3.205   1.407 -1.0433 -0.0587  0.5029
13722TIP3   OH262580   6.563   2.822  14.043 -0.1952  0.6857 -0.4454
13722TIP3    H162581   6.529   2.815  14.133 -0.6466 -1.2938 -0.7329
13722TIP3    H262582   6.507   2.888  14.002 -0.0243  1.5762  0.6955
13723TIP3   OH262583   1.143   2.940   3.643 -0.4657 -0.0114 -0.3299
13723TIP3    H162584   1.216   2.942   3.705  0.1624 -0.7307 -1.0112
13723TIP3    H262585   1.081   3.004   3.676 -0.1260 -0.3381  1.0049
13724TIP3   OH262586   0.780   6.641  17.258 -0.2233 -0.2651 -0.3488
13724TIP3    H162587   0.693   6.609  17.285 -0.0098  0.0044  0.6756
13724TIP3    H262588   0.792   6.722  17.306  1.3614 -1.2033  0.9141
13725TIP3   OH262589   3.882   1.317  12.229 -0.0962  0.2500  0.5958
13725TIP3    H162590   3.870   1.390  12.169 -2.2066 -0.1001  0.5013
13725TIP3    H262591   3.938   1.255  12.181 -1.1310  0.3062 -0.7522
13726TIP3   OH262592   0.372   2.718  11.866  0.3884  0.1962 -0.0996
13726TIP3    H162593   0.461   2.754  11.874  0.4814 -0.1701  0.5426
13726TIP3    H262594   0.315   2.795  11.870  0.6766  0.4580 -0.7466
13727TIP3   OH262595   5.034   4.841  17.379  0.2612  0.3663  0.0057
13727TIP3    H162596   4.981   4.886  17.314  0.5327 -0.4484 -0.8046
13727TIP3    H262597   5.113   4.894  17.387  0.2913  0.3965 -0.4526
13728TIP3   OH262598   4.767   5.059  11.598 -0.7092 -0.4152  0.6986
13728TIP3    H162599   4.847   5.076  11.647 -0.2637  1.0571 -0.4288
13728TIP3    H262600   4.726   5.145  11.589 -0.7368 -0.5943 -1.4916
13729TIP3   OH262601   2.030   6.614  14.245 -0.4131 -0.2380 -0.2686
13729TIP3    H162602   2.037   6.684  14.309 -1.5993  0.5358 -0.9499
13729TIP3    H262603   1.943   6.576  14.259 -0.5423 -0.2979 -1.1687
13730TIP3   OH262604   1.416   1.700   2.776  0.6590  0.4545  0.0161
13730TIP3    H162605   1.429   1.695   2.681  1.0082 -2.5205  0.1334
13730TIP3    H262606   1.374   1.617   2.798 -0.4397  1.5578  2.3475
13731TIP3   OH262607   2.835   0.376  15.666 -0.9610 -0.1130 -0.0446
13731TIP3    H162608   2.899   0.408  15.602  0.2188 -0.9880  0.6524
13731TIP3    H262609   2.880   0.305  15.711 -1.0054  1.6349  3.0661
13732TIP3   OH262610   4.663   4.928  13.537 -0.1937 -0.0897 -0.1962
13732TIP3    H162611   4.590   4.897  13.591 -1.0202  2.7106  0.4408
13732TIP3    H262612   4.625   4.993  13.479  1.8140  1.7210  0.3861
13733TIP3   OH262613   0.975   2.745  11.924  0.7463 -0.2290 -0.4157
13733TIP3    H162614   0.901   2.718  11.870  1.2248 -1.4406 -0.4956
13733TIP3    H262615   0.995   2.669  11.978  1.5719  0.2706  0.0097
13734TIP3   OH262616   1.181   4.630   4.950 -0.2223 -0.2882  0.0750
13734TIP3    H162617   1.232   4.609   4.871 -0.1553 -0.9888  0.3015
13734TIP3    H262618   1.167   4.725   4.945  0.4295 -0.2128 -0.3946
13735TIP3   OH262619   4.060   1.097   1.345 -0.1854 -0.0104 -0.2154
13735TIP3    H162620   4.063   1.034   1.274 -0.0998 -0.2508 -0.0024
13735TIP3    H262621   4.146   1.091   1.386  0.1198  0.8611 -0.7161
13736TIP3   OH262622   6.293   4.949  12.152 -0.0530 -0.3455  0.5398
13736TIP3    H162623   6.286   4.922  12.060 -3.5239 -0.1509  0.6200
13736TIP3    H262624   6.353   4.886  12.191  0.8597 -0.9439 -1.6573
13737TIP3   OH262625   2.465   4.113  17.223 -0.1342 -0.3556  0.4134
13737TIP3    H162626   2.542   4.057  17.224  0.5679  0.5564  1.8554
13737TIP3    H262627   2.490   4.188  17.278 -1.2400  1.0663 -0.9530
13738TIP3   OH262628   6.739   2.259  16.358  0.1708  0.5333  0.3614
13738TIP3    H162629   6.648   2.235  16.376 -0.1397  1.4041  0.0052
13738TIP3    H262630   6.765   2.315  16.431  1.1066 -1.3304  1.5306
13739TIP3   OH262631   2.753   5.743  13.028  0.2238 -0.3462 -0.2742
13739TIP3    H162632   2.732   5.759  13.120  1.5158 -0.8494  0.1342
13739TIP3    H262633   2.672   5.760  12.981 -0.2017  0.9053  0.8474
13740TIP3   OH262634   4.820   5.163   2.051  0.0913 -0.6050  0.1788
13740TIP3    H162635   4.902   5.209   2.031 -0.5546  1.0462  1.0352
13740TIP3    H262636   4.843   5.103   2.122  0.4803  0.2788  0.8333
13741TIP3   OH262637   1.655   0.282   2.508  0.3167 -0.4297  0.1327
13741TIP3    H162638   1.616   0.355   2.557  3.0592  0.6642  0.8920
13741TIP3    H262639   1.718   0.243   2.569 -0.6838 -3.1624 -0.4454
13742TIP3   OH262640   3.048   2.388  13.037 -0.0461  0.0850 -0.3904
13742TIP3    H162641   3.008   2.436  13.110  0.4582  0.0581 -0.0902
13742TIP3    H262642   3.133   2.361  13.071  0.1526 -0.0074 -0.9640
13743TIP3   OH262643   2.950   3.351   4.172 -0.2794  0.0771  0.5455
13743TIP3    H162644   2.917   3.261   4.173 -1.2646  0.4206  0.4344
13743TIP3    H262645   3.045   3.342   4.171 -0.3696 -0.9665  0.2345
13744TIP3   OH262646   1.207   0.801   4.286 -0.1685 -0.0157 -0.4470
13744TIP3    H162647   1.264   0.860   4.334  0.0388 -0.3209 -0.3115
13744TIP3    H262648   1.253   0.785   4.204  0.0139 -0.3797 -0.2757
13745TIP3   OH262649   5.203   1.433   0.147 -0.1803  0.5622 -0.4883
13745TIP3    H162650   5.224   1.484   0.069  0.7079 -0.2634 -0.8064
13745TIP3    H262651   5.157   1.355   0.114  0.4956  0.0419 -0.2358
13746TIP3   OH262652   5.316   5.444  15.336  0.3895  0.0604 -1.0371
13746TIP3    H162653   5.321   5.510  15.267  1.0119  0.9183 -0.1837
13746TIP3    H262654   5.225   5.413  15.332  0.2767  0.4632 -1.8967
13747TIP3   OH262655   6.067   4.633  15.059 -0.0917 -0.2253 -0.7839
13747TIP3    H162656   6.087   4.662  15.148  0.4545  0.7995 -1.2234
13747TIP3    H262657   5.984   4.586  15.068 -1.0068  1.4183  0.0069
13748TIP3   OH262658   2.553   4.447  11.543  0.2262  0.0686 -0.1442
13748TIP3    H162659   2.635   4.402  11.521 -0.0464 -0.3320 -0.3583
13748TIP3    H262660   2.487   4.404  11.488  0.2536  1.9809 -1.7739
13749TIP3   OH262661   2.933   4.767  12.621  0.8479 -0.6970  0.3019
13749TIP3    H162662   2.866   4.765  12.689  0.1335 -1.3305 -0.4068
13749TIP3    H262663   3.006   4.716  12.659 -0.8407 -4.1243 -0.6523
13750TIP3   OH262664   6.713   1.589  13.667  0.3385 -0.3340  0.2656
13750TIP3    H162665   6.660   1.543  13.732 -0.6789  1.7315  0.9841
13750TIP3    H262666   6.697   1.682  13.684  1.5842  0.3077 -1.6953
13751TIP3   OH262667   1.709   3.298   1.039 -0.1724  0.4355  0.1714
13751TIP3    H162668   1.795   3.255   1.035 -0.0557  0.6775  0.0709
13751TIP3    H262669   1.722   3.383   0.997 -0.7718 -0.0293 -1.0016
13752TIP3   OH262670   1.736   4.130   2.630 -0.7601  0.2354  0.0776
13752TIP3    H162671   1.793   4.096   2.698  0.2712  1.2088 -0.2819
13752TIP3    H262672   1.648   4.100   2.655  0.1461 -3.6440 -0.7816
13753TIP3   OH262673   2.097   0.246   3.598  0.2586 -0.2753  0.2685
13753TIP3    H162674   2.022   0.237   3.657 -0.1465 -0.9714 -0.3374
13753TIP3    H262675   2.071   0.316   3.538 -0.9384 -2.0397 -1.4005
13754TIP3   OH262676   3.478   6.062   3.429  0.6474  0.4430 -0.0090
13754TIP3    H162677   3.572   6.049   3.443  1.1460  2.4832 -1.0056
13754TIP3    H262678   3.437   5.984   3.467  2.7153 -0.4371  0.5836
13755TIP3   OH262679   4.130   6.143  11.830 -0.1730  0.0089 -0.5932
13755TIP3    H162680   4.191   6.168  11.899  1.0602 -2.4399 -0.6826
13755TIP3    H262681   4.082   6.068  11.866 -1.6397  0.5656 -1.3252
13756TIP3   OH262682   3.248   0.743   4.475  0.3197  0.3514  0.1918
13756TIP3    H162683   3.205   0.678   4.531  1.0806  1.0128  1.6114
13756TIP3    H262684   3.336   0.710   4.461  0.3792  0.5692  0.0368
13757TIP3   OH262685   2.928   2.394  16.717  0.1361  0.6033 -0.1128
13757TIP3    H162686   2.947   2.301  16.704  0.0060  0.7778 -1.7160
13757TIP3    H262687   3.010   2.438  16.693  0.5997  0.8649  1.8061
13758TIP3   OH262688   4.202   2.679  16.476  0.2792  0.5505  0.2441
13758TIP3    H162689   4.158   2.697  16.393  0.8158  0.2108 -0.1176
13758TIP3    H262690   4.293   2.662  16.452 -0.0428 -2.0223  0.6003
13759TIP3   OH262691   6.006   5.481  13.261  0.2377 -0.1917 -0.3564
13759TIP3    H162692   5.985   5.550  13.324 -0.3784 -0.6014 -0.1104
13759TIP3    H262693   6.080   5.434  13.301 -0.6676 -0.9634  0.4710
13760TIP3   OH262694   5.160   5.724   2.636  0.2491  0.1651 -0.5138
13760TIP3    H162695   5.174   5.819   2.633 -3.0929  0.7541 -1.4503
13760TIP3    H262696   5.210   5.690   2.561  1.2765  1.1643 -0.3123
13761TIP3   OH262697   5.971   5.096  12.122  0.0155  0.4557 -0.0663
13761TIP3    H162698   5.961   5.015  12.073 -0.1984 -0.1712  0.9931
13761TIP3    H262699   5.884   5.137  12.119 -0.2215  0.0073  0.4852
13762TIP3   OH262700   1.531   6.346  15.388  0.6344  0.1441  0.0678
13762TIP3    H162701   1.618   6.378  15.413  1.4009 -1.6680 -0.1618
13762TIP3    H262702   1.537   6.251  15.397 -0.7761 -0.1472 -1.6432
13763TIP3   OH262703   0.398   6.565  11.263 -0.1092  0.3196 -0.4177
13763TIP3    H162704   0.427   6.479  11.232  1.0881  1.1200 -1.6301
13763TIP3    H262705   0.342   6.546  11.338  0.4247 -1.4979 -0.4370
13764TIP3   OH262706   1.888   5.428   1.240  0.4383  0.4930 -0.2948
13764TIP3    H162707   1.967   5.378   1.261 -0.3215 -0.0362  1.5530
13764TIP3    H262708   1.866   5.474   1.322 -0.8788  1.0330 -0.9112
13765TIP3   OH262709   1.286   4.153  16.967  0.0793 -0.1585 -0.1262
13765TIP3    H162710   1.362   4.147  17.025  1.1078 -1.6641 -1.5409
13765TIP3    H262711   1.322   4.189  16.885 -0.8834 -0.2289 -0.5867
13766TIP3   OH262712   4.934   1.116  14.198  0.1916 -0.0908  0.2185
13766TIP3    H162713   5.004   1.103  14.133 -0.8564 -1.1238 -0.7558
13766TIP3    H262714   4.941   1.040  14.255  0.4247  0.2672  0.6679
13767TIP3   OH262715   4.259   0.481   4.691  0.5370 -0.2739  0.3043
13767TIP3    H162716   4.221   0.541   4.754 -0.6100 -2.2220  1.5693
13767TIP3    H262717   4.352   0.504   4.688 -0.1646  2.8720 -0.8817
13768TIP3   OH262718   1.636   2.673   1.422 -0.5678 -0.2627 -0.3679
13768TIP3    H162719   1.673   2.756   1.452 -3.0002  0.1914  1.7701
13768TIP3    H262720   1.697   2.607   1.456 -0.5915  0.5169  1.2881
13769TIP3   OH262721   0.690   1.371  12.359  0.2905  0.1421 -0.3821
13769TIP3    H162722   0.758   1.346  12.420 -0.0265 -0.4336 -0.2561
13769TIP3    H262723   0.708   1.463  12.338  0.0007  0.5590  1.1014
13770TIP3   OH262724   1.387   1.335  16.401 -0.1116  0.6075 -0.0070
13770TIP3    H162725   1.387   1.403  16.469  2.2501  0.5787  0.0856
13770TIP3    H262726   1.449   1.269  16.433  0.7387  0.3891 -2.0086
13771TIP3   OH262727   6.081   5.738   4.244  0.5841  0.4617 -0.3501
13771TIP3    H162728   6.069   5.693   4.328 -1.4448  0.9042 -0.3499
13771TIP3    H262729   6.133   5.815   4.265 -1.6153  1.6817  0.9513
13772TIP3   OH262730   6.279   4.765   2.933 -0.7479  0.5854 -0.6771
13772TIP3    H162731   6.239   4.682   2.958  0.2104  0.2263 -0.2722
13772TIP3    H262732   6.288   4.813   3.015  3.8078 -1.2066  0.1807
13773TIP3   OH262733   2.111   6.440   2.024 -0.2088  0.1021 -0.5262
13773TIP3    H162734   2.086   6.524   1.987  0.2493  0.2228 -0.5700
13773TIP3    H262735   2.205   6.432   2.004 -0.2528 -0.4200 -0.5323
13774TIP3   OH262736   4.346   5.072   3.944 -0.5039 -0.2961 -0.2198
13774TIP3    H162737   4.423   5.018   3.929 -0.3818  0.2640 -1.7838
13774TIP3    H262738   4.380   5.154   3.979 -0.3785 -0.0558 -0.8934
13775TIP3   OH262739   0.188   4.386  14.049 -0.8311 -0.2639 -0.2082
13775TIP3    H162740   0.107   4.422  14.084  0.1525  0.3934  1.5446
13775TIP3    H262741   0.222   4.454  13.991 -0.4611  0.4076  0.7728
13776TIP3   OH262742   4.058   0.745  12.059 -0.2029 -0.8409 -0.3611
13776TIP3    H162743   4.017   0.661  12.038  0.8188 -1.7482  1.1212
13776TIP3    H262744   4.145   0.723  12.091  0.4207  0.8542 -0.7450
13777TIP3   OH262745   4.984   5.872  12.218 -0.0408 -0.5160 -0.2484
13777TIP3    H162746   4.947   5.916  12.142  1.1961 -1.0471 -1.1888
13777TIP3    H262747   5.051   5.814  12.182  1.1918 -0.1263  1.3064
13778TIP3   OH262748   4.331   5.965  14.446  0.4994 -0.0851 -0.3005
13778TIP3    H162749   4.392   5.931  14.380 -0.4051 -0.7894 -0.7952
13778TIP3    H262750   4.253   5.990  14.396 -0.1370 -0.4732  0.4716
13779TIP3   OH262751   0.083   3.162  15.179  0.1574  0.1031  0.1825
13779TIP3    H162752  -0.002   3.119  15.190 -1.3204  2.6208 -0.6055
13779TIP3    H262753   0.128   3.108  15.114 -1.1996 -0.7959 -0.0675
13780TIP3   OH262754   3.556   5.476   5.670 -0.5097  0.2668 -0.4318
13780TIP3    H162755   3.477   5.458   5.721 -1.1952 -0.1310 -1.5966
13780TIP3    H262756   3.545   5.424   5.591  0.5052  0.9054 -1.0060
13781TIP3   OH262757   3.450   5.449   6.355  0.4674 -0.7455 -0.0271
13781TIP3    H162758   3.386   5.497   6.303  0.5704 -0.4876  0.0863
13781TIP3    H262759   3.474   5.374   6.300  1.8265  0.3921 -1.0731
13782TIP3   OH262760   5.200   2.101   4.478 -0.5306 -0.0954  0.2283
13782TIP3    H162761   5.290   2.127   4.462 -1.5909  2.7396 -1.9558
13782TIP3    H262762   5.164   2.169   4.535 -1.0196 -1.9603  2.3203
13783TIP3   OH262763   2.626   2.321  17.132  0.1685  0.3033 -0.2867
13783TIP3    H162764   2.605   2.228  17.127  0.7093  0.2305 -1.7899
13783TIP3    H262765   2.719   2.326  17.108  0.3343  1.1692  0.4736
13784TIP3   OH262766   6.737   4.685  13.087  0.0227  0.6958  0.7089
13784TIP3    H162767   6.750   4.592  13.072 -2.3022  0.6596 -1.8255
13784TIP3    H262768   6.701   4.690  13.176 -0.0443 -0.8192  0.7922
13785TIP3   OH262769   4.180   0.158  14.899  0.7007 -0.7571 -0.0798
13785TIP3    H162770   4.159   0.153  14.805 -2.0266 -2.0312  0.4866
13785TIP3    H262771   4.258   0.105  14.909  1.8913  0.5489 -1.7875
13786TIP3   OH262772   6.456   3.221   2.595 -0.4037  0.3104  0.1789
13786TIP3    H162773   6.529   3.251   2.649 -0.1578  0.6277 -0.3215
13786TIP3    H262774   6.456   3.126   2.604 -0.7380  0.3941  1.2078
13787TIP3   OH262775   1.277   6.532  16.311  0.3027 -0.1144  0.0903
13787TIP3    H162776   1.263   6.438  16.301  0.1808 -0.0047 -0.8799
13787TIP3    H262777   1.346   6.539  16.377  1.8352 -0.9750 -1.3416
13788TIP3   OH262778   4.810   0.890   3.997 -0.1725 -0.5287 -0.2220
13788TIP3    H162779   4.805   0.829   4.071  0.3271 -0.1439  0.1300
13788TIP3    H262780   4.718   0.904   3.972 -0.4066  0.0541  0.9165
13789TIP3   OH262781   6.632   1.118   2.678  0.0159  0.0495  0.2525
13789TIP3    H162782   6.661   1.078   2.596 -2.2831 -1.6406  0.1521
13789TIP3    H262783   6.695   1.188   2.695  0.0447  1.1497 -3.4867
13790TIP3   OH262784   4.617   1.351   1.138  0.8133  0.1752  0.3771
13790TIP3    H162785   4.568   1.276   1.103  0.3657 -0.7167  2.6841
13790TIP3    H262786   4.631   1.408   1.063 -0.9557 -1.0850 -1.0059
13791TIP3   OH262787   2.886   2.872   1.710  0.5261  0.4743  0.2039
13791TIP3    H162788   2.838   2.794   1.739  0.5945 -0.1854 -1.3314
13791TIP3    H262789   2.962   2.838   1.664  0.6184  1.4465 -0.4051
13792TIP3   OH262790   2.398   4.372   3.572  0.1639 -0.0973  0.0337
13792TIP3    H162791   2.336   4.351   3.502 -0.9271  0.7675  0.7071
13792TIP3    H262792   2.401   4.468   3.573  3.0025 -0.0850 -1.2402
13793TIP3   OH262793   5.571   3.220  16.429 -0.5777 -0.1291  0.0764
13793TIP3    H162794   5.500   3.229  16.366 -1.5906 -0.7391  1.0918
13793TIP3    H262795   5.528   3.226  16.515  0.5269 -0.9015  0.7127
13794TIP3   OH262796   5.788   2.303  12.975  0.4331 -0.4289  0.1518
13794TIP3    H162797   5.739   2.261  13.046  0.8334 -1.0510  0.0715
13794TIP3    H262798   5.878   2.308  13.008  0.1948  1.4713  0.6387
13795TIP3   OH262799   1.158   3.044   0.218 -0.0748  0.3198  0.0371
13795TIP3    H162800   1.176   2.979   0.150 -2.2799 -0.7068  0.3539
13795TIP3    H262801   1.144   3.126   0.170  0.1719  0.0088 -0.5802
13796TIP3   OH262802   2.024   2.694  14.701 -0.4683  0.1858 -0.0669
13796TIP3    H162803   2.005   2.779  14.662  0.7325 -0.7461 -2.8777
13796TIP3    H262804   1.974   2.632  14.648  2.2725 -1.2749 -1.1440
13797TIP3   OH262805   0.191   1.253  10.698  0.1151 -0.3656 -0.1331
13797TIP3    H162806   0.282   1.270  10.675 -0.0941 -1.1490 -1.6268
13797TIP3    H262807   0.142   1.271  10.618 -0.7250 -2.5195 -0.1583
13798TIP3   OH262808   6.746   2.892  13.423  0.4051 -0.0904 -0.9198
13798TIP3    H162809   6.831   2.876  13.382  1.8700  0.2285  1.7819
13798TIP3    H262810   6.741   2.987  13.431 -1.2533  0.0635 -2.9540
13799TIP3   OH262811   4.416   1.244   4.819 -0.6712 -0.0997 -0.2221
13799TIP3    H162812   4.488   1.289   4.775 -0.2809  0.2085  0.7004
13799TIP3    H262813   4.460   1.181   4.876 -1.1290  0.1476  0.4068
13800TIP3   OH262814   1.029   3.315   4.579 -0.1109 -1.0337  0.1341
13800TIP3    H162815   1.060   3.265   4.503  0.1374  0.5734 -0.8806
13800TIP3    H262816   1.103   3.373   4.601 -1.3628  0.9337 -0.5976
13801TIP3   OH262817   1.577   4.831   0.064 -0.6475  0.1907 -0.1998
13801TIP3    H162818   1.528   4.831   0.146  0.3455  0.9339  0.4205
13801TIP3    H262819   1.516   4.796  -0.001 -1.7104  0.3277  0.6959
13802TIP3   OH262820   6.530   4.662  15.877 -0.2378 -0.5184  0.0142
13802TIP3    H162821   6.549   4.715  15.800  2.1166 -1.6450 -0.2593
13802TIP3    H262822   6.562   4.574  15.854 -1.2170 -1.3328  1.5816
13803TIP3   OH262823   5.284   1.457   5.309  0.0269 -0.4536 -0.1281
13803TIP3    H162824   5.330   1.483   5.389  1.3597  0.3635 -1.1082
13803TIP3    H262825   5.251   1.538   5.272 -1.1829 -0.9053 -0.0711
13804TIP3   OH262826   6.552   3.566   5.160  0.2318  0.1591  0.0102
13804TIP3    H162827   6.643   3.563   5.188  0.4371  2.1315 -0.2871
13804TIP3    H262828   6.509   3.623   5.224 -0.7327 -0.4913 -0.0357
13805TIP3   OH262829   0.660   3.365  12.675 -0.0074 -0.3380  0.3821
13805TIP3    H162830   0.603   3.289  12.663 -0.4381  0.0477 -0.0547
13805TIP3    H262831   0.671   3.372  12.770 -2.0896  0.5832  0.6248
13806TIP3   OH262832   2.361   3.402  12.486  0.7971 -0.9440  0.2327
13806TIP3    H162833   2.396   3.316  12.464  0.7144 -0.8961 -0.0896
13806TIP3    H262834   2.267   3.388  12.497  0.3383 -0.4255 -2.4317
13807TIP3   OH262835   3.831   2.478   3.406  0.4588  0.5581  0.2899
13807TIP3    H162836   3.914   2.510   3.370  0.0406  0.8567 -0.4340
13807TIP3    H262837   3.764   2.514   3.348 -0.0192 -2.2895 -1.1202
13808TIP3   OH262838   0.631   0.167  12.305  0.3702  0.2151  0.2477
13808TIP3    H162839   0.633   0.261  12.321  0.6194  0.1434  0.6549
13808TIP3    H262840   0.585   0.131  12.381 -1.8160  0.2246 -1.0033
13809TIP3   OH262841   0.308   5.942  15.343 -0.4047  0.4070  0.3093
13809TIP3    H162842   0.277   5.894  15.266 -1.0211  0.4332  0.5378
13809TIP3    H262843   0.388   5.984  15.314 -1.9450  2.5420 -1.1141
13810TIP3   OH262844   4.402   1.206   5.511  0.5434 -0.0969 -0.9485
13810TIP3    H162845   4.331   1.258   5.550 -0.2801  0.1948 -2.7269
13810TIP3    H262846   4.451   1.173   5.586 -0.3855  1.2063  0.2995
13811TIP3   OH262847   1.978   2.596  15.693 -0.5257  0.3021 -0.5848
13811TIP3    H162848   2.062   2.604  15.648  0.0248 -1.0793  0.1505
13811TIP3    H262849   1.997   2.547  15.772 -2.3345 -1.7994 -1.3437
13812TIP3   OH262850   4.551   2.572   2.403 -0.9006 -0.4759  0.3822
13812TIP3    H162851   4.465   2.530   2.414 -0.6964 -1.5990 -1.8141
13812TIP3    H262852   4.531   2.665   2.396 -1.7016 -0.4914  1.9209
13813TIP3   OH262853   0.782   4.352   1.645 -0.1390  0.3564  0.2613
13813TIP3    H162854   0.872   4.380   1.628 -0.0122 -1.4737 -2.9005
13813TIP3    H262855   0.731   4.433   1.635  0.9518  1.0205 -0.1963
13814TIP3   OH262856   4.913   3.570   2.889 -0.0046  0.2409  0.3983
13814TIP3    H162857   4.934   3.661   2.912 -1.0903  0.9631 -1.2955
13814TIP3    H262858   4.825   3.557   2.925  1.5044 -1.4781  3.9868
13815TIP3   OH262859   1.280   4.939  14.051  0.1518  0.6935 -0.4622
13815TIP3    H162860   1.367   4.921  14.016  0.2196  0.5144 -0.2056
13815TIP3    H262861   1.241   5.001  13.989 -0.4838 -1.1299 -1.9852
13816TIP3   OH262862   1.288   5.939   1.747  0.2695 -0.1941 -0.1446
13816TIP3    H162863   1.341   5.914   1.671  0.1725  0.8948 -0.5836
13816TIP3    H262864   1.244   6.020   1.721 -0.5320 -0.3317  0.7219
13817TIP3   OH262865   3.463   2.821  17.282  0.3608 -0.3514  0.5429
13817TIP3    H162866   3.460   2.862  17.195 -0.6197 -1.3863  0.0545
13817TIP3    H262867   3.555   2.795  17.293  0.9614  1.7185  0.7818
13818TIP3   OH262868   5.669   5.974   5.928 -0.1981  0.0391 -0.3824
13818TIP3    H162869   5.746   5.926   5.897 -1.7375 -1.3470 -2.3730
13818TIP3    H262870   5.678   5.976   6.023  1.9184 -0.6980 -0.5209
13819TIP3   OH262871   4.036   3.152   1.447 -0.1951  0.0990  0.6133
13819TIP3    H162872   4.053   3.222   1.510 -0.3737 -0.0925  0.8750
13819TIP3    H262873   4.055   3.192   1.362 -1.8143  0.9701  0.6235
13820TIP3   OH262874   5.261   0.211   2.352  0.2015  0.0774  0.0186
13820TIP3    H162875   5.329   0.146   2.333 -0.3246 -0.9697  1.5156
13820TIP3    H262876   5.309   0.283   2.393  0.5618 -0.1661  0.0362
13821TIP3   OH262877   5.755   0.607  13.744 -0.2107  0.4386 -0.0482
13821TIP3    H162878   5.706   0.678  13.703 -3.3694 -1.3438  0.2835
13821TIP3    H262879   5.781   0.551  13.670 -0.5188  0.3387 -0.0823
13822TIP3   OH262880   0.317   2.946  11.290 -0.5046  0.3049 -0.3108
13822TIP3    H162881   0.256   3.005  11.333  0.3056  0.4987  0.6119
13822TIP3    H262882   0.263   2.874  11.257 -1.2961  0.7854 -0.0746
13823TIP3   OH262883   2.857   2.767   6.109 -0.2032  0.1578  0.2807
13823TIP3    H162884   2.835   2.674   6.116  0.9028 -0.2774 -1.4574
13823TIP3    H262885   2.892   2.790   6.195  0.1801 -1.2318  0.5206
13824TIP3   OH262886   4.188   2.121  15.451 -0.8158  0.2996 -0.1029
13824TIP3    H162887   4.184   2.036  15.495 -1.3818 -0.7343 -2.0487
13824TIP3    H262888   4.232   2.103  15.368  2.4728  2.6551  0.9415
13825TIP3   OH262889   1.217   1.173  13.893  0.7313  0.2054 -0.1568
13825TIP3    H162890   1.183   1.087  13.919  0.5633  0.9018  2.1658
13825TIP3    H262891   1.139   1.223  13.868  0.7657 -0.1105 -0.9221
13826TIP3   OH262892   0.293   6.525   3.377 -0.2501 -0.0161  0.1403
13826TIP3    H162893   0.234   6.600   3.381 -0.1462  0.1064 -0.5672
13826TIP3    H262894   0.246   6.460   3.326  0.2182  0.0780 -0.4238
13827TIP3   OH262895   3.641   0.244   3.618  0.2411  0.5490 -0.1525
13827TIP3    H162896   3.649   0.159   3.575 -2.7349  0.7555 -1.3721
13827TIP3    H262897   3.549   0.249   3.645  1.2269  1.7242  3.6636
13828TIP3   OH262898   3.666   2.595  13.170  0.9098 -0.1178 -0.3795
13828TIP3    H162899   3.743   2.634  13.128  0.4085 -0.3415 -1.5368
13828TIP3    H262900   3.630   2.536  13.104 -0.3451  0.0954  0.0931
13829TIP3   OH262901   5.233   1.841   3.929  0.5846  0.4957  0.1017
13829TIP3    H162902   5.249   1.918   3.984 -0.4975 -0.1421  1.3641
13829TIP3    H262903   5.159   1.866   3.873 -0.0782  0.2332  0.8438
13830TIP3   OH262904   0.720   3.166   4.962  0.1869 -0.2891 -0.5065
13830TIP3    H162905   0.715   3.105   5.036 -0.9980  0.4635  0.0727
13830TIP3    H262906   0.639   3.150   4.913  0.4063  0.0400 -0.9745
13831TIP3   OH262907   2.990   1.325  13.495 -0.0729 -0.1173  0.1457
13831TIP3    H162908   3.004   1.243  13.543 -0.0675 -1.2908 -1.7819
13831TIP3    H262909   2.901   1.351  13.518 -0.4296 -1.1824  0.0329
13832TIP3   OH262910   4.391   4.351  17.146 -0.3815 -0.2256  0.3182
13832TIP3    H162911   4.295   4.354  17.140 -0.4000 -0.0174  0.6989
13832TIP3    H262912   4.408   4.340  17.240 -0.0391 -0.5093  0.2233
13833TIP3   OH262913   6.396   3.800  16.010  0.5598 -0.7139  0.4522
13833TIP3    H162914   6.427   3.725  16.060  0.0035 -1.0125  0.3624
13833TIP3    H262915   6.475   3.838  15.972  0.8447 -1.2936  0.4468
13834TIP3   OH262916   6.468   5.783   3.582 -0.1386 -0.1699 -0.1345
13834TIP3    H162917   6.525   5.753   3.512  0.0805  1.0927 -0.5268
13834TIP3    H262918   6.403   5.713   3.592  0.6512 -0.9964 -0.6263
13835TIP3   OH262919   2.753   0.804   0.182 -0.2658 -0.1750 -0.1801
13835TIP3    H162920   2.670   0.841   0.155  0.2884  1.0633 -0.2713
13835TIP3    H262921   2.733   0.713   0.205 -1.6987  0.2001  0.1557
13836TIP3   OH262922   4.431   5.428   0.720 -0.0442 -0.1461  0.2823
13836TIP3    H162923   4.458   5.414   0.629  0.2458 -0.7223  0.4535
13836TIP3    H262924   4.360   5.493   0.714  1.7597  1.8834 -0.1143
13837TIP3   OH262925   3.690   0.578  14.719 -0.1070  0.0293  0.0992
13837TIP3    H162926   3.647   0.587  14.804  0.8183  0.3686  0.5465
13837TIP3    H262927   3.723   0.488  14.719  0.7132  0.3224  0.5053
13838TIP3   OH262928   5.856   3.994   3.286 -0.0668 -0.0450 -0.0352
13838TIP3    H162929   5.947   3.964   3.291 -0.1386 -0.2316  0.1862
13838TIP3    H262930   5.820   3.975   3.373 -0.6329 -0.9615 -0.4631
13839TIP3   OH262931   0.569   3.855  13.623 -0.4253 -0.3221  0.0035
13839TIP3    H162932   0.584   3.938  13.576  0.3448  0.5800  1.7334
13839TIP3    H262933   0.479   3.861  13.654 -1.0387 -1.0523 -1.5235
13840TIP3   OH262934   0.020   3.938  14.977 -0.2176 -0.6300  0.1913
13840TIP3    H162935   0.001   4.009  15.037 -0.2017  0.9648 -1.5972
13840TIP3    H262936   0.055   3.981  14.899  2.4188 -2.8081  0.0423
13841TIP3   OH262937   5.955   1.350  15.667 -0.3987 -0.6130 -0.3652
13841TIP3    H162938   5.959   1.255  15.672  1.6381 -0.5543  0.0188
13841TIP3    H262939   6.043   1.379  15.691 -1.2820  1.4261  0.6689
13842TIP3   OH262940   1.222   3.102  11.381  0.0871 -0.5818  0.0374
13842TIP3    H162941   1.222   3.013  11.417 -0.5881 -0.6049 -0.0097
13842TIP3    H262942   1.223   3.089  11.286 -0.1687 -0.5442  0.0282
13843TIP3   OH262943   0.989   2.899  12.444  0.2838  0.0469  0.3501
13843TIP3    H162944   1.068   2.890  12.392 -0.8865  0.6670 -1.6494
13843TIP3    H262945   0.991   2.989  12.477 -0.0564  0.4006 -0.5635
13844TIP3   OH262946   3.918   2.984  12.058 -0.1475  0.0151 -0.5508
13844TIP3    H162947   3.854   2.945  11.999 -0.1611 -1.3270  0.3136
13844TIP3    H262948   3.866   3.028  12.125 -0.1428  0.0745 -0.5855
13845TIP3   OH262949   3.574   6.443  16.003  0.3295  0.0709  0.0804
13845TIP3    H162950   3.505   6.407  15.946  0.0721  0.0344  0.4104
13845TIP3    H262951   3.630   6.493  15.944 -0.2948  0.5605 -0.1118
13846TIP3   OH262952   3.179   2.769  12.212 -0.5960  0.2700 -0.0860
13846TIP3    H162953   3.200   2.846  12.264  1.8040  0.0142 -0.5552
13846TIP3    H262954   3.213   2.695  12.264 -0.3840 -0.2075 -0.8841
13847TIP3   OH262955   1.967   4.134  16.781 -0.3582 -0.4244 -0.0054
13847TIP3    H162956   1.948   4.040  16.782  0.8328 -0.6850 -0.1839
13847TIP3    H262957   2.057   4.140  16.749 -0.6368  0.8247 -0.6060
13848TIP3   OH262958   2.755   3.183  14.449 -0.3060  0.1985  0.6270
13848TIP3    H162959   2.787   3.273  14.456  2.5318 -0.7813  1.6416
13848TIP3    H262960   2.723   3.176  14.359 -1.2421  2.3638  0.7306
13849TIP3   OH262961   5.947   1.230  15.388  0.0660  0.7130  0.3992
13849TIP3    H162962   5.901   1.152  15.417  0.5671  0.7580  1.3546
13849TIP3    H262963   5.913   1.300  15.444  0.5197  0.9423  0.3940
13850TIP3   OH262964   4.438   6.182  14.576 -0.2145  0.7288  0.4207
13850TIP3    H162965   4.529   6.163  14.597 -0.6995 -0.9428  1.1859
13850TIP3    H262966   4.409   6.105  14.526 -0.9096  1.7396 -0.7824
13851TIP3   OH262967   6.738   1.496  12.932 -0.8020  0.2227 -0.0213
13851TIP3    H162968   6.702   1.554  13.000  0.5647 -0.9921  1.8420
13851TIP3    H262969   6.819   1.463  12.970 -1.3059 -2.5725 -1.1710
13852TIP3   OH262970   4.936   2.076  14.024 -0.2709 -0.1749  0.1942
13852TIP3    H162971   4.868   2.077  14.091 -1.2758  0.6864 -0.7818
13852TIP3    H262972   4.972   1.987  14.026 -1.0812 -0.4965  1.0562
13853TIP3   OH262973   1.377   3.068   4.902 -0.2054 -0.1663  0.4512
13853TIP3    H162974   1.447   3.004   4.900 -0.5835 -0.6566  1.8701
13853TIP3    H262975   1.348   3.070   4.993 -2.4276 -0.4184 -0.1919
13854TIP3   OH262976   1.013   2.213   5.558 -0.0666 -0.8390  0.1986
13854TIP3    H162977   1.002   2.125   5.524 -1.5904 -0.8767  0.7171
13854TIP3    H262978   1.045   2.201   5.648 -1.2297 -0.9186  0.6187
13855TIP3   OH262979   2.237   1.528  16.816 -0.1392 -0.7920  0.2206
13855TIP3    H162980   2.325   1.561  16.797 -0.8190  1.0416 -0.0082
13855TIP3    H262981   2.248   1.475  16.895  0.7322  2.0618  2.2089
13856TIP3   OH262982   4.324   2.138  14.939  0.7040 -0.1774 -0.0228
13856TIP3    H162983   4.412   2.105  14.920  0.8816  0.6090 -0.6205
13856TIP3    H262984   4.300   2.188  14.861  0.1232  0.4252  0.5356
13857TIP3   OH262985   2.974   0.787  13.772 -0.0611 -0.3968  0.1717
13857TIP3    H162986   3.052   0.828  13.734 -0.3124  0.6093  0.6894
13857TIP3    H262987   2.903   0.815  13.715 -0.1057 -0.9338 -0.0359
13858TIP3   OH262988   5.860   6.265   3.175  0.3418 -0.4263  0.7660
13858TIP3    H162989   5.914   6.264   3.254 -1.1526 -0.5398  1.8283
13858TIP3    H262990   5.825   6.354   3.170 -0.5170 -0.7463  0.9193
13859TIP3   OH262991   3.866   6.576   4.927  0.3599  0.3693 -0.0754
13859TIP3    H162992   3.824   6.591   5.012 -1.2344 -1.4152 -0.4859
13859TIP3    H262993   3.955   6.547   4.949  0.2895  0.8822  0.9455
13860TIP3   OH262994   2.066   2.138   1.491  0.5010  0.6824  0.1267
13860TIP3    H162995   2.148   2.094   1.510  0.1784 -0.0700 -0.1530
13860TIP3    H262996   2.081   2.182   1.407 -0.0504 -1.3702 -1.1442
13861TIP3   OH262997   4.596   3.237   3.706  0.0867 -0.3389 -0.0148
13861TIP3    H162998   4.579   3.224   3.800 -1.2437 -1.8557 -0.4152
13861TIP3    H262999   4.512   3.267   3.671  1.0237  1.8699 -0.4899
13862TIP3   OH263000   3.463   0.511   2.223 -0.4979 -0.8175  0.5602
13862TIP3    H163001   3.382   0.498   2.273 -1.7284  0.3305 -1.0533
13862TIP3    H263002   3.447   0.589   2.171  1.0757 -1.4712 -0.9895
13863TIP3   OH263003   4.139   0.636  16.009  0.2963  0.1596  0.7113
13863TIP3    H163004   4.145   0.562  16.070  0.4573  0.6895  1.3513
13863TIP3    H263005   4.164   0.600  15.924 -0.5440 -0.7418  0.8312
13864TIP3   OH263006   6.239   2.834  14.991 -0.1150 -0.4253  0.6605
13864TIP3    H163007   6.144   2.841  14.998  0.0440  1.3195  1.6009
13864TIP3    H263008   6.254   2.782  14.911 -1.8367 -1.1799  0.7987
13865TIP3   OH263009   0.037   2.563  14.388  0.2206  0.0614 -0.6847
13865TIP3    H163010   0.084   2.520  14.316  1.0848  0.1187 -0.1697
13865TIP3    H263011  -0.055   2.544  14.371  0.4838 -0.7355 -1.2846
13866TIP3   OH263012   6.212   1.713   3.063 -0.5273 -0.0527  0.1977
13866TIP3    H163013   6.262   1.632   3.077  1.9410  0.7851 -2.7638
13866TIP3    H263014   6.123   1.689   3.088  0.2259 -3.4404  0.2589
13867TIP3   OH263015   2.834   2.319  11.310 -0.2157 -0.0776  1.0049
13867TIP3    H163016   2.890   2.366  11.248 -0.3275  2.2035  2.5400
13867TIP3    H263017   2.894   2.283  11.375 -0.1508 -2.0343 -0.0359
13868TIP3   OH263018   4.755   3.545   6.129  0.1169 -0.1131  0.2688
13868TIP3    H163019   4.835   3.596   6.137 -0.5615  0.9119  0.6196
13868TIP3    H263020   4.734   3.518   6.219  0.8639 -1.6733  0.0180
13869TIP3   OH263021   5.740   6.473   2.541 -0.5558  0.2080 -0.1966
13869TIP3    H163022   5.670   6.498   2.481  0.2480  0.6881 -0.9612
13869TIP3    H263023   5.716   6.513   2.624 -0.6215  1.3345 -0.7439
13870TIP3   OH263024   0.721   3.965   1.508 -0.1161  0.5501 -0.6380
13870TIP3    H163025   0.719   3.891   1.447 -1.1983 -0.3724  0.4565
13870TIP3    H263026   0.730   4.042   1.452  2.8142 -0.4572 -1.7325
13871TIP3   OH263027   4.289   2.413  15.399  0.0245 -0.2935  0.1118
13871TIP3    H163028   4.234   2.344  15.436 -0.7481 -0.0886 -0.6153
13871TIP3    H263029   4.238   2.493  15.410 -0.1261 -0.1992 -1.1844
13872TIP3   OH263030   0.717   2.480  15.130 -0.6807 -0.3014  0.3409
13872TIP3    H163031   0.747   2.428  15.204  2.6459  0.8169 -0.0325
13872TIP3    H263032   0.679   2.416  15.070  0.6645 -1.9243  1.1138
13873TIP3   OH263033   0.504   5.715   1.238  0.2044  0.2972  0.2232
13873TIP3    H163034   0.481   5.639   1.291 -0.4006 -0.2277 -0.7635
13873TIP3    H263035   0.523   5.784   1.302 -1.4731 -0.0165  1.1243
13874TIP3   OH263036   5.105   4.376   6.144 -1.1884 -0.3482 -0.3353
13874TIP3    H163037   5.079   4.402   6.056  1.6883 -1.0375 -1.4986
13874TIP3    H263038   5.113   4.280   6.139  2.1039 -0.1640 -0.3724
13875TIP3   OH263039   6.461   2.192   6.101 -0.7128  0.0029 -0.3579
13875TIP3    H163040   6.478   2.233   6.016  0.5284  0.8869  0.2752
13875TIP3    H263041   6.490   2.257   6.165  1.7120 -1.9474  0.7047
13876TIP3   OH263042   2.241   4.405  14.429  0.3860  0.1750  0.3836
13876TIP3    H163043   2.211   4.422  14.339 -0.8256  0.3477  0.7980
13876TIP3    H263044   2.259   4.492  14.465  0.7342  0.1151  0.3581
13877TIP3   OH263045   4.485   6.677   1.237 -0.5412  0.2819 -0.5373
13877TIP3    H163046   4.563   6.642   1.280 -0.7271 -0.4674 -0.8040
13877TIP3    H263047   4.514   6.700   1.149 -0.4351  0.7577 -0.3835
13878TIP3   OH263048   6.081   2.553  15.577  0.0475 -0.1444  0.4559
13878TIP3    H163049   6.017   2.484  15.559 -0.6092 -0.0657  2.2289
13878TIP3    H263050   6.053   2.589  15.661  0.6892  1.9478 -0.1768
13879TIP3   OH263051   4.440   4.619  16.431  0.1213  0.0028  0.3931
13879TIP3    H163052   4.488   4.691  16.388  1.5376 -0.7852  0.5694
13879TIP3    H263053   4.449   4.638  16.524  0.6024 -0.4427  0.4435
13880TIP3   OH263054   4.613   5.563  13.736 -0.0119 -0.2092 -0.6790
13880TIP3    H163055   4.690   5.523  13.776  0.2811  2.2035  1.4513
13880TIP3    H263056   4.539   5.530  13.786  0.1518  1.0516  0.4774
13881TIP3   OH263057   4.710   0.119   0.221 -0.3349  0.0932 -0.2876
13881TIP3    H163058   4.749   0.055   0.162  0.6867  1.7746 -1.5478
13881TIP3    H263059   4.624   0.138   0.184 -0.2025  0.2266 -0.5282
13882TIP3   OH263060   3.672   5.362  12.033 -0.1812 -0.2101  0.7009
13882TIP3    H163061   3.678   5.457  12.035 -0.7590 -0.1568  0.1558
13882TIP3    H263062   3.596   5.344  11.978  0.7413 -1.0137 -0.3437
13883TIP3   OH263063   2.498   5.751   5.707 -0.1823  0.1807  0.4043
13883TIP3    H163064   2.445   5.786   5.636  1.8152 -0.4059 -1.5056
13883TIP3    H263065   2.556   5.688   5.664  1.7005  0.4237  2.4085
13884TIP3   OH263066   2.478   2.087  16.745 -0.1767  0.4537  0.2415
13884TIP3    H163067   2.515   2.168  16.778  1.3136  0.0608 -0.3904
13884TIP3    H263068   2.513   2.019  16.803  1.6203 -0.1244 -1.4417
13885TIP3   OH263069   1.701   2.313  14.360  0.1022  0.0836  0.7515
13885TIP3    H163070   1.672   2.396  14.321  0.5811 -0.2155 -0.2410
13885TIP3    H263071   1.662   2.245  14.305  0.4304 -0.3480  1.0449
13886TIP3   OH263072   0.898   4.963  11.711 -0.2153 -0.1620  0.3544
13886TIP3    H163073   0.956   5.021  11.662  0.3009 -0.3429  0.7350
13886TIP3    H263074   0.887   5.005  11.796 -0.4111 -0.2727  0.3847
13887TIP3   OH263075   0.551   5.010   3.701  0.2353  0.5003  0.1058
13887TIP3    H163076   0.503   4.953   3.761 -0.4246  1.2191  0.2794
13887TIP3    H263077   0.619   4.954   3.663 -0.2639 -0.3363  0.4286
13888TIP3   OH263078   3.594   5.620  14.913  0.0997  0.4857  0.1126
13888TIP3    H163079   3.580   5.598  14.821  2.7220  0.7504 -0.4393
13888TIP3    H263080   3.675   5.574  14.937 -0.5134  0.4312  2.3029
13889TIP3   OH263081   0.187   5.640   4.100 -0.0870 -0.5938  0.4056
13889TIP3    H163082   0.180   5.607   4.190 -2.0140  0.7314  0.7999
13889TIP3    H263083   0.138   5.578   4.047  0.5254 -1.0358  0.3424
13890TIP3   OH263084   2.032   3.046  13.912  0.0286  0.4362  0.0914
13890TIP3    H163085   2.095   3.009  13.851 -0.7467 -2.2315  0.7851
13890TIP3    H263086   2.084   3.066  13.990  0.4216  0.5515 -0.1956
13891TIP3   OH263087   2.966   5.406   5.401  0.0901  0.5694  0.7208
13891TIP3    H163088   3.012   5.475   5.450 -0.3901  0.7027  0.9903
13891TIP3    H263089   2.908   5.454   5.341 -0.2913  0.4016  0.9544
13892TIP3   OH263090   4.492   3.972   4.371  0.0001  0.3631  0.1896
13892TIP3    H163091   4.542   4.048   4.339 -0.1444  0.8553  1.1138
13892TIP3    H263092   4.558   3.915   4.410  0.2682 -0.5382 -1.4699
13893TIP3   OH263093   4.361   6.560   4.377 -0.1148 -0.5357 -0.1984
13893TIP3    H163094   4.344   6.633   4.437  0.0831  0.4416 -1.2957
13893TIP3    H263095   4.296   6.571   4.307  2.3702  0.9753 -2.4541
13894TIP3   OH263096   5.046   0.606  16.478 -0.6556 -0.1838  0.5629
13894TIP3    H163097   5.018   0.656  16.555  0.5827  0.9807  0.2945
13894TIP3    H263098   5.137   0.632  16.464 -0.4694 -1.3280 -0.5610
13895TIP3   OH263099   2.899   6.118   3.405  0.0380  0.3749 -0.5979
13895TIP3    H163100   2.961   6.135   3.334 -0.8265  0.7336 -1.2894
13895TIP3    H263101   2.938   6.160   3.482  1.0412 -0.1173 -0.8231
13896TIP3   OH263102   4.813   2.041  11.059 -0.1906 -0.1068 -0.1535
13896TIP3    H163103   4.736   2.023  11.005 -0.0735 -0.8854 -0.0670
13896TIP3    H263104   4.827   2.135  11.049 -1.2331  0.0732 -0.0656
13897TIP3   OH263105   3.108   1.741   4.053  0.3386 -0.1655 -0.8566
13897TIP3    H163106   3.043   1.759   3.985 -0.4224 -0.0133 -0.0984
13897TIP3    H263107   3.102   1.646   4.067  2.5584 -0.7385 -3.0388
13898TIP3   OH263108   1.107   3.938  14.746  0.0198 -0.3027 -0.3223
13898TIP3    H163109   1.196   3.929  14.781 -0.3085  0.1664  0.6597
13898TIP3    H263110   1.115   4.002  14.675 -0.0328  2.1926  1.7893
13899TIP3   OH263111   6.396   2.126   3.121 -0.2165 -0.3195  0.3906
13899TIP3    H163112   6.431   2.044   3.157  1.4395  0.6850  1.1597
13899TIP3    H263113   6.385   2.183   3.196 -1.9665  0.0126 -0.0564
13900TIP3   OH263114   6.711   4.333   3.362  0.0050 -0.1112 -0.7378
13900TIP3    H163115   6.770   4.258   3.364  2.0925  1.3948 -1.9709
13900TIP3    H263116   6.691   4.346   3.269 -2.5453 -0.6983 -0.3521
13901TIP3   OH263117   6.627   1.926   4.879 -0.2603 -0.0390 -0.2693
13901TIP3    H163118   6.552   1.900   4.931 -0.4847 -0.7977 -0.9482
13901TIP3    H263119   6.656   1.845   4.836 -1.9370  1.0066 -3.6866
13902TIP3   OH263120   5.668   2.777   3.347 -0.4880 -0.4002 -0.5730
13902TIP3    H163121   5.714   2.858   3.325 -1.1687  0.3444  0.5903
13902TIP3    H263122   5.580   2.806   3.372 -0.3530 -1.3391  1.1476
13903TIP3   OH263123   1.158   1.550   4.073  0.7843  0.4829 -0.1043
13903TIP3    H163124   1.122   1.466   4.100 -0.1969  0.7649 -0.5006
13903TIP3    H263125   1.154   1.605   4.151  2.7503 -0.2275  0.5641
13904TIP3   OH263126   5.432   5.736   0.013 -0.0627  0.6134 -0.6569
13904TIP3    H163127   5.409   5.780   0.095  1.0129 -0.1175  0.0675
13904TIP3    H263128   5.373   5.774  -0.052 -1.8158  0.2932  0.6803
13905TIP3   OH263129   5.302   4.343  12.415  0.0870  0.2781  0.2228
13905TIP3    H163130   5.269   4.308  12.498  0.6884  1.1056  0.8166
13905TIP3    H263131   5.371   4.404  12.440  0.5936  0.1882 -0.9144
13906TIP3   OH263132   2.309   6.074  14.320  0.3020  0.0978 -0.5040
13906TIP3    H163133   2.360   6.057  14.398  0.4429  0.3231 -0.5460
13906TIP3    H263134   2.228   6.114  14.352 -1.2314 -3.0069 -0.1624
13907TIP3   OH263135   4.924   4.396  14.735 -0.1892 -0.1327  0.4413
13907TIP3    H163136   5.007   4.445  14.736  0.7139 -1.5175 -1.2500
13907TIP3    H263137   4.918   4.359  14.823 -0.7374  2.6283  1.6705
13908TIP3   OH263138   0.347   5.213   5.140  0.3639  0.4606  0.1291
13908TIP3    H163139   0.264   5.254   5.116  0.4173  0.6069  0.1927
13908TIP3    H263140   0.321   5.135   5.189  0.2687  0.7624  0.5646
13909TIP3   OH263141   3.500   6.185  14.429 -0.2046 -0.5458  0.1131
13909TIP3    H163142   3.546   6.217  14.507 -0.9357 -0.4888  0.5321
13909TIP3    H263143   3.408   6.182  14.455 -0.7494  1.3063 -1.3233
13910TIP3   OH263144   1.767   3.732   0.364 -0.2138 -0.3644  0.3774
13910TIP3    H163145   1.767   3.781   0.446 -0.1137  1.0973 -0.4638
13910TIP3    H263146   1.730   3.792   0.300  0.8677 -1.0117 -0.9099
13911TIP3   OH263147   0.928   3.838  13.260  0.3772  0.1222  0.0369
13911TIP3    H163148   0.949   3.774  13.192  2.2373 -1.7202  2.1769
13911TIP3    H263149   0.832   3.841  13.261  0.2796 -0.1302 -2.2621
13912TIP3   OH263150   4.868   2.731   5.856  0.3145  0.2070  0.4365
13912TIP3    H163151   4.884   2.821   5.885  0.9461  0.9283 -1.9673
13912TIP3    H263152   4.942   2.682   5.891  1.6968  1.2841 -0.8341
13913TIP3   OH263153   4.452   5.090   1.883  0.2771  0.1206 -0.1423
13913TIP3    H163154   4.499   5.141   1.816  0.7634  0.0462  0.1347
13913TIP3    H263155   4.433   5.007   1.840 -0.0580  0.3414 -0.4275
13914TIP3   OH263156   3.598   0.579  14.998  0.1700 -0.4288 -0.0504
13914TIP3    H163157   3.621   0.608  15.086  0.6845  0.5204 -0.4830
13914TIP3    H263158   3.502   0.573  14.999  0.2509 -3.1486  1.3768
13915TIP3   OH263159   1.211   0.121  12.765  0.2533  0.4334 -0.1626
13915TIP3    H163160   1.218   0.212  12.795  0.3541 -0.0472  1.3312
13915TIP3    H263161   1.141   0.083  12.817 -0.4614 -0.0961 -1.4740
13916TIP3   OH263162   1.591   6.216  16.310 -0.0942 -0.1948  0.0421
13916TIP3    H163163   1.642   6.297  16.315 -0.8269  0.2863 -0.2618
13916TIP3    H263164   1.532   6.220  16.385  0.6694 -1.0186  0.7219
13917TIP3   OH263165   3.938   3.569   0.565  0.0112 -0.0814  0.7446
13917TIP3    H163166   3.981   3.650   0.537 -1.0942  0.2888  0.0482
13917TIP3    H263167   3.850   3.575   0.527  0.1621 -1.9645  0.0284
13918TIP3   OH263168   5.084   5.016   4.653  0.7339 -0.2961  0.1607
13918TIP3    H163169   4.988   5.026   4.650  0.8983  1.5672 -0.4416
13918TIP3    H263170   5.099   4.955   4.725 -0.9370 -1.1891 -0.1893
13919TIP3   OH263171   3.053   2.913  11.728  0.1085 -0.2940 -0.5028
13919TIP3    H163172   3.081   2.845  11.668 -0.9567 -1.2447  0.0553
13919TIP3    H263173   2.999   2.972  11.676 -1.5109 -1.5740 -0.3255
13920TIP3   OH263174   3.666   1.647  15.750 -0.0251 -0.6047  0.0428
13920TIP3    H163175   3.735   1.596  15.709  0.1190 -0.8937  0.6401
13920TIP3    H263176   3.705   1.733  15.765  0.5739 -1.0801  1.3569
13921TIP3   OH263177   2.951   1.165  14.905  0.0504 -0.2724  0.1626
13921TIP3    H163178   2.947   1.259  14.926 -0.2926  0.2558 -2.0333
13921TIP3    H263179   3.040   1.151  14.875 -0.7675  0.2434 -2.9082
13922TIP3   OH263180   0.134   5.715  15.949 -0.2821  0.1607  0.1069
13922TIP3    H163181   0.140   5.698  15.855  3.3058 -0.4289  0.2768
13922TIP3    H263182   0.082   5.794  15.957  0.9015  1.3278 -2.5864
13923TIP3   OH263183   6.429   4.686  13.714 -0.7449 -0.1671 -0.2122
13923TIP3    H163184   6.519   4.704  13.744 -0.7003 -1.2204  0.3321
13923TIP3    H263185   6.433   4.696  13.619 -0.6108  2.0875 -0.0366
13924TIP3   OH263186   6.375   3.050  11.233  0.3599 -0.0299  0.1552
13924TIP3    H163187   6.462   3.065  11.198  0.2008 -0.0042 -0.2356
13924TIP3    H263188   6.322   3.025  11.157  0.2004 -0.7837  0.5054
13925TIP3   OH263189   0.185   4.599  11.781  0.2913  0.0051 -0.4040
13925TIP3    H163190   0.171   4.693  11.785  1.3744  0.1845 -0.5279
13925TIP3    H263191   0.199   4.573  11.873  1.6545  0.2531 -0.5229
13926TIP3   OH263192   1.070   6.136  17.021  0.0158  0.1147  0.1246
13926TIP3    H163193   1.083   6.053  16.974 -0.0905  0.7971 -1.1619
13926TIP3    H263194   0.976   6.151  17.016 -0.0159  0.1086  0.7171
13927TIP3   OH263195   2.470   0.576  13.510  0.0159 -0.8211  0.3409
13927TIP3    H163196   2.449   0.495  13.556 -2.3426 -3.4541 -4.5546
13927TIP3    H263197   2.386   0.622  13.504  0.2641 -0.5234 -1.1149
13928TIP3   OH263198   2.803   3.193   5.552 -0.7433 -0.5180  0.4673
13928TIP3    H163199   2.862   3.136   5.601 -0.7569  0.3644  1.5683
13928TIP3    H263200   2.720   3.189   5.600 -0.6097  0.7516  0.8535
13929TIP3   OH263201   4.987   3.482  14.112  0.2994 -0.1206  0.1330
13929TIP3    H163202   4.942   3.458  14.193  0.3184 -0.6686 -0.0147
13929TIP3    H263203   5.069   3.433  14.114  0.5379  0.2766  0.0340
13930TIP3   OH263204   4.709   4.049  16.011  0.2564 -0.8149  0.2027
13930TIP3    H163205   4.735   3.976  16.067  1.4112 -0.7623 -0.2269
13930TIP3    H263206   4.695   4.122  16.070  1.0185 -0.8793  0.4685
13931TIP3   OH263207   6.329   5.593   4.744 -0.4399 -0.2242  0.0906
13931TIP3    H163208   6.245   5.617   4.704 -1.1124 -0.1396  1.4826
13931TIP3    H263209   6.310   5.513   4.792  0.4501 -0.5616 -0.1183
13932TIP3   OH263210   6.655   2.109   1.886 -0.2849  0.4507 -0.0586
13932TIP3    H163211   6.639   2.050   1.812  0.5512  0.0948  0.0342
13932TIP3    H263212   6.570   2.149   1.903 -0.7943 -0.4677 -0.3532
13933TIP3   OH263213   3.097   5.709  13.948 -0.2603 -0.3964  0.0862
13933TIP3    H163214   3.044   5.716  14.027 -1.5725 -0.8555 -0.7248
13933TIP3    H263215   3.081   5.790  13.900 -0.9268 -0.8987 -0.5641
13934TIP3   OH263216   6.691   0.486   2.801  0.2354 -0.3623 -0.1566
13934TIP3    H163217   6.753   0.429   2.756 -0.5978  0.6312 -2.7988
13934TIP3    H263218   6.683   0.562   2.744 -2.4117  0.1314  0.7115
13935TIP3   OH263219   0.678   2.974  15.691  0.6570  0.1997  0.0937
13935TIP3    H163220   0.710   2.887  15.667  0.2098 -0.2948  1.2096
13935TIP3    H263221   0.665   2.969  15.786 -2.1334  0.5613 -0.1857
13936TIP3   OH263222   2.728   3.901   0.300 -0.2062  0.3140  0.0298
13936TIP3    H163223   2.654   3.958   0.321 -1.9695 -0.9436 -2.2947
13936TIP3    H263224   2.759   3.870   0.386 -0.5268  3.0219  1.2131
13937TIP3   OH263225   6.309   1.597  12.396  0.1528  0.0186 -0.0484
13937TIP3    H163226   6.337   1.675  12.348 -0.0551  0.1996  0.1258
13937TIP3    H263227   6.323   1.525  12.334  1.8547 -0.0222  0.3280
13938TIP3   OH263228   4.500   5.694  10.790 -0.4616 -0.2710  0.2049
13938TIP3    H163229   4.490   5.729  10.878 -0.5779  1.1647 -0.3501
13938TIP3    H263230   4.446   5.615  10.789 -0.4240 -0.3338  1.4208
13939TIP3   OH263231   5.672   3.627  11.990 -0.4504  0.4709 -0.1628
13939TIP3    H163232   5.624   3.550  11.960  1.7632 -1.4778  0.9742
13939TIP3    H263233   5.604   3.691  12.011 -2.3285 -0.5655 -2.5207
13940TIP3   OH263234   5.790   3.811   1.676  0.6315  0.8396  0.3466
13940TIP3    H163235   5.876   3.831   1.713  1.1503  1.4243 -1.0744
13940TIP3    H263236   5.728   3.831   1.746  1.5944  1.2786  1.1017
13941TIP3   OH263237   6.659   2.496  11.821 -0.3679 -0.2722 -0.3623
13941TIP3    H163238   6.654   2.524  11.729  0.0080 -0.6864 -0.5116
13941TIP3    H263239   6.730   2.432  11.822 -0.2046 -0.0837  0.2692
13942TIP3   OH263240   0.434   2.467  15.281  0.3345 -0.5918  0.5556
13942TIP3    H163241   0.522   2.431  15.267  0.6915  0.1127  0.9311
13942TIP3    H263242   0.444   2.525  15.356 -0.6070 -1.0160  1.0180
13943TIP3   OH263243   5.564   2.762  14.493  0.2842  0.2935  0.0867
13943TIP3    H163244   5.626   2.785  14.424 -0.8760  1.2480 -0.6874
13943TIP3    H263245   5.482   2.746  14.447 -0.8627  2.2209  1.3114
13944TIP3   OH263246   5.553   1.480   1.593 -0.2274 -0.0148 -0.1745
13944TIP3    H163247   5.554   1.446   1.683 -1.4274  0.3947  0.0124
13944TIP3    H263248   5.460   1.485   1.571  0.0505  0.1708 -1.3408
13945TIP3   OH263249   5.392   5.747   3.560  0.1224  0.0186 -0.0827
13945TIP3    H163250   5.361   5.747   3.650 -0.1371  0.1967 -0.1724
13945TIP3    H263251   5.323   5.791   3.510  0.5066  0.4031 -0.2853
13946TIP3   OH263252   1.946   1.649  14.939 -0.0478 -0.4529  0.0346
13946TIP3    H163253   1.968   1.734  14.978 -0.6206  0.0196 -0.6476
13946TIP3    H263254   1.852   1.654  14.922  0.1739 -0.6358 -1.3912
13947TIP3   OH263255   4.565   1.586   6.440  0.5172  0.1627  0.3768
13947TIP3    H163256   4.504   1.543   6.379  0.4369 -1.9238  1.8227
13947TIP3    H263257   4.541   1.678   6.437  0.4917  0.1544 -2.6916
13948TIP3   OH263258   3.288   4.418  14.316 -0.0150  0.0081  0.1756
13948TIP3    H163259   3.374   4.456  14.298 -0.6267  1.2178 -0.3537
13948TIP3    H263260   3.237   4.491  14.352 -0.8019 -0.7039  0.5330
13949TIP3   OH263261   4.588   1.477   0.028 -0.0151  0.4287 -0.3706
13949TIP3    H163262   4.619   1.556   0.072  0.1936 -0.9183  2.1107
13949TIP3    H263263   4.596   1.408   0.094  1.6085 -2.1169 -2.9913
13950TIP3   OH263264   5.816   2.923   6.634  0.7185  0.0025 -0.3553
13950TIP3    H163265   5.754   2.863   6.592 -0.7742  1.8702 -0.9441
13950TIP3    H263266   5.873   2.952   6.562  1.9855 -1.2859  0.0839
13951TIP3   OH263267   3.779   0.973  11.207 -0.1682 -0.3088  0.3044
13951TIP3    H163268   3.764   1.063  11.177  1.4204  0.0273  0.3913
13951TIP3    H263269   3.738   0.918  11.140  0.8062  0.4648 -0.9849
13952TIP3   OH263270   4.154   5.407  13.991  0.2630 -0.1400 -0.3561
13952TIP3    H163271   4.244   5.418  14.023  0.8387 -1.2988 -1.4635
13952TIP3    H263272   4.130   5.319  14.021 -0.1295 -0.2236 -0.9145
13953TIP3   OH263273   2.909   6.353   4.796  0.0724  0.1235  0.1086
13953TIP3    H163274   2.951   6.269   4.814 -2.0738 -0.5381  2.6672
13953TIP3    H263275   2.974   6.418   4.824  1.1651 -0.6764 -0.4577
13954TIP3   OH263276   3.871   1.227  13.009 -0.2238  0.2024 -0.0540
13954TIP3    H163277   3.841   1.269  13.090  0.8583  2.4269 -0.7174
13954TIP3    H263278   3.916   1.148  13.037 -0.6660  0.4566  1.4431
13955TIP3   OH263279   1.959   5.328   3.777  0.1504  0.7084 -0.1133
13955TIP3    H163280   1.988   5.351   3.866  1.2646  0.8047 -0.4842
13955TIP3    H263281   1.935   5.411   3.737  0.9785  0.8380 -0.3527
13956TIP3   OH263282   2.056   5.803   3.873 -0.2510  0.1115 -1.1462
13956TIP3    H163283   2.037   5.895   3.857  1.6383  1.0581  1.4830
13956TIP3    H263284   2.104   5.775   3.795  0.7723  1.8965 -1.1923
13957TIP3   OH263285   4.872   4.056   4.486 -0.3072  0.0128 -0.1090
13957TIP3    H163286   4.820   4.124   4.529 -0.1025  1.3402 -1.8398
13957TIP3    H263287   4.812   4.017   4.422 -0.4517 -1.5635  0.9247
13958TIP3   OH263288   2.662   4.984  16.753 -0.9745 -0.8260 -0.0253
13958TIP3    H163289   2.709   4.946  16.678 -2.9029  1.0611 -2.3598
13958TIP3    H263290   2.729   5.032  16.801  0.0127 -0.5399 -1.6233
13959TIP3   OH263291   5.866   1.262   5.521 -0.2200  0.2779 -0.4118
13959TIP3    H163292   5.775   1.272   5.494  0.2569  3.5070 -1.3110
13959TIP3    H263293   5.870   1.306   5.607  0.5695  0.7189 -0.6600
13960TIP3   OH263294   2.673   0.665  10.590  0.3352  0.1241  0.3064
13960TIP3    H163295   2.721   0.587  10.619  1.3324  0.5466 -0.1430
13960TIP3    H263296   2.581   0.641  10.597  0.6324 -1.2396 -0.1924
13961TIP3   OH263297   3.566   5.716   5.145 -0.2930  0.2325 -0.3229
13961TIP3    H163298   3.555   5.643   5.206 -0.0487  1.0048  0.6752
13961TIP3    H263299   3.661   5.729   5.140 -0.2344 -0.4571 -1.6730
13962TIP3   OH263300   3.548   4.602  12.792 -0.1441  0.7255  0.2274
13962TIP3    H163301   3.493   4.680  12.795 -1.7604 -0.3257 -0.5476
13962TIP3    H263302   3.528   4.562  12.707 -0.2440 -1.1441  1.0816
13963TIP3   OH263303   0.346   0.019   0.367 -0.5506  0.3262 -0.1677
13963TIP3    H163304   0.416   0.041   0.428 -1.6970  1.8795  0.6588
13963TIP3    H263305   0.357   0.081   0.294 -1.7327  1.4355  0.5411
13964TIP3   OH263306   3.444   3.391   2.467 -0.3778 -0.4668  0.3459
13964TIP3    H163307   3.375   3.455   2.450 -0.9451 -0.6260  1.8801
13964TIP3    H263308   3.411   3.309   2.431 -0.7601 -0.4216  0.5873
13965TIP3   OH263309   1.691   4.672   3.402 -0.3241 -0.2709 -0.1386
13965TIP3    H163310   1.704   4.596   3.460  0.8072 -2.2424 -2.7864
13965TIP3    H263311   1.653   4.739   3.459 -2.2800 -3.0985  2.1779
13966TIP3   OH263312   0.081   2.684   2.309  0.6231 -0.3329  0.5636
13966TIP3    H163313   0.125   2.660   2.227  0.1767  1.7766 -0.3591
13966TIP3    H263314   0.152   2.691   2.373  1.5773  1.7795 -0.6067
13967TIP3   OH263315   4.246   2.093   6.301 -0.2471 -0.3205 -0.6296
13967TIP3    H163316   4.267   2.182   6.330 -1.1151  0.4221 -2.1374
13967TIP3    H263317   4.327   2.044   6.314 -0.2614  0.1960  1.9245
13968TIP3   OH263318   4.287   6.739  15.255  0.0945  0.0382  0.2538
13968TIP3    H163319   4.333   6.724  15.172  0.7658 -0.0213  0.6286
13968TIP3    H263320   4.229   6.813  15.237  2.1472  1.7956  0.4146
13969TIP3   OH263321   2.275   5.348   5.545 -0.2300 -0.0198 -0.2676
13969TIP3    H163322   2.336   5.308   5.607  0.4169 -2.0924 -2.1147
13969TIP3    H263323   2.188   5.325   5.580 -0.0412  2.0380  1.7930
13970TIP3   OH263324   1.462   0.594  11.091 -0.0125  0.5747 -0.1351
13970TIP3    H163325   1.371   0.570  11.107  0.4821 -1.8158 -0.5847
13970TIP3    H263326   1.464   0.617  10.999  0.0503 -0.5560 -0.4263
13971TIP3   OH263327   1.992   3.367  15.516  0.0726 -0.5806  0.3790
13971TIP3    H163328   2.061   3.414  15.564  0.0327  0.9843 -0.9899
13971TIP3    H263329   1.931   3.436  15.488 -0.5498 -1.5794 -0.8275
13972TIP3   OH263330   6.075   4.929  15.571 -0.0054 -0.1522  0.0424
13972TIP3    H163331   5.979   4.929  15.578  0.0141 -2.9169  1.2128
13972TIP3    H263332   6.106   4.912  15.660  1.6912  2.0081 -0.0462
13973TIP3   OH263333   2.674   3.819   5.882  0.8221  0.0155  1.0209
13973TIP3    H163334   2.661   3.834   5.789 -2.9069 -0.8175  1.2196
13973TIP3    H263335   2.724   3.895   5.913  0.2418  1.4198 -1.2801
13974TIP3   OH263336   1.351   4.104  15.703 -0.2994 -0.8818 -0.1050
13974TIP3    H163337   1.422   4.140  15.649  0.4253 -3.0402 -0.7102
13974TIP3    H263338   1.271   4.122  15.653 -0.0199  0.1788 -0.1909
13975TIP3   OH263339   3.812   3.639  14.598 -0.3782 -0.3988 -0.2973
13975TIP3    H163340   3.855   3.724  14.594 -0.9992 -0.0395  0.3405
13975TIP3    H263341   3.882   3.576  14.583  0.3531  0.1637  0.6356
13976TIP3   OH263342   5.074   5.787   1.886  0.2225 -0.0102  0.3640
13976TIP3    H163343   5.081   5.806   1.792  1.4381  0.2910  0.4978
13976TIP3    H263344   5.164   5.793   1.918 -0.2468  0.4326  1.6554
13977TIP3   OH263345   2.619   4.171   2.070  0.1080  0.3110  0.2002
13977TIP3    H163346   2.571   4.138   2.146 -0.9263 -0.4946 -0.7562
13977TIP3    H263347   2.594   4.263   2.063 -1.2860 -0.0744 -0.2285
13978TIP3   OH263348   1.369   4.593  11.765 -0.4569 -0.0028 -0.2819
13978TIP3    H163349   1.320   4.538  11.826 -0.4823  0.8447  0.4943
13978TIP3    H263350   1.414   4.532  11.707 -0.0225 -0.8394  0.9189
13979TIP3   OH263351   6.421   3.454   1.588  0.0815 -0.3549 -0.8801
13979TIP3    H163352   6.446   3.535   1.544 -1.2755 -0.3052 -1.6221
13979TIP3    H263353   6.503   3.409   1.605  0.7102 -0.1799 -3.1199
13980TIP3   OH263354   5.024   1.295  11.263 -0.2222 -0.1410 -0.1259
13980TIP3    H163355   4.981   1.364  11.213  0.3979  0.4280  0.1118
13980TIP3    H263356   5.033   1.222  11.201 -0.2647  0.2337 -0.5765
13981TIP3   OH263357   5.843   6.747   6.520 -0.0327 -0.0946 -0.3767
13981TIP3    H163358   5.826   6.696   6.599 -0.6066  1.4540  0.5642
13981TIP3    H263359   5.934   6.775   6.529 -0.6730  1.8154  0.8699
13982TIP3   OH263360   1.630   0.871   6.177  1.1700 -0.5728 -0.0214
13982TIP3    H163361   1.604   0.879   6.269 -0.1747 -1.5327 -0.2887
13982TIP3    H263362   1.557   0.826   6.136  1.1500  1.0250 -1.8605
13983TIP3   OH263363   3.454   0.359   0.160 -0.0355  0.5227  0.4373
13983TIP3    H163364   3.494   0.425   0.217 -0.4066  0.6860  0.5185
13983TIP3    H263365   3.360   0.378   0.166 -0.1380  0.0189  0.4161
13984TIP3   OH263366   0.477   0.761   6.553 -0.0854 -0.2932 -0.7336
13984TIP3    H163367   0.554   0.731   6.506  0.1761 -0.2005 -0.3654
13984TIP3    H263368   0.416   0.788   6.484  1.2776  2.3825 -1.0555
13985TIP3   OH263369   3.044   1.079  11.797 -0.3767 -0.4252 -0.6553
13985TIP3    H163370   2.985   1.011  11.764 -0.9652  0.3964 -1.3105
13985TIP3    H263371   3.128   1.033  11.809 -1.4578 -2.0017  1.8084
13986TIP3   OH263372   5.797   4.914  12.545 -0.6140 -0.4810  0.0635
13986TIP3    H163373   5.705   4.931  12.525 -0.4503  0.5450  0.1085
13986TIP3    H263374   5.839   4.907  12.459 -0.1924  2.3413 -0.0712
13987TIP3   OH263375   1.115   3.018   0.729 -0.2916 -0.2376  0.6381
13987TIP3    H163376   1.090   2.947   0.669  1.4020  0.0762 -0.5237
13987TIP3    H263377   1.036   3.072   0.736 -1.7440 -2.3605  1.8363
13988TIP3   OH263378   5.706   5.809  16.215  0.3412 -0.4451 -0.6218
13988TIP3    H163379   5.725   5.891  16.262 -0.9812  0.4378 -1.5744
13988TIP3    H263380   5.734   5.827  16.125 -0.6215 -0.7794 -0.9919
13989TIP3   OH263381   2.998   0.102   4.864  0.2103  0.2696  0.4896
13989TIP3    H163382   3.025   0.073   4.777  0.8034 -2.7246  1.5637
13989TIP3    H263383   2.933   0.171   4.847 -0.0842 -0.5703 -2.3091
13990TIP3   OH263384   3.647   3.252   4.580  0.0915 -0.7805  0.1989
13990TIP3    H163385   3.700   3.184   4.539  0.4229 -0.1233 -0.4823
13990TIP3    H263386   3.711   3.315   4.613 -0.2208 -0.6742  0.6124
13991TIP3   OH263387   1.697   2.481   6.523  0.0497  0.7013  0.6655
13991TIP3    H163388   1.605   2.467   6.544  0.2367 -0.4394  0.7510
13991TIP3    H263389   1.697   2.560   6.468 -0.9982  0.5389  0.4132
13992TIP3   OH263390   0.493   3.872   1.369 -0.1689  0.1686  0.1932
13992TIP3    H163391   0.527   3.933   1.303 -0.3431 -0.4182 -0.4512
13992TIP3    H263392   0.411   3.840   1.332 -0.2580 -0.1819  0.6877
13993TIP3   OH263393   5.071   0.401  16.283 -0.3873  0.1798 -0.2527
13993TIP3    H163394   5.028   0.376  16.201  0.9003  0.2872 -0.9891
13993TIP3    H263395   5.008   0.459  16.326 -0.9715  0.3599 -1.3089
13994TIP3   OH263396   0.577   2.334   2.627  0.2792  0.0489 -0.2904
13994TIP3    H163397   0.597   2.316   2.535 -0.6323  0.1721 -0.5192
13994TIP3    H263398   0.487   2.364   2.626  0.4003  0.4539  0.6045
13995TIP3   OH263399   0.644   5.932   2.638  0.6894 -0.8219 -0.2459
13995TIP3    H163400   0.730   5.893   2.653  1.2714 -0.3879 -2.1553
13995TIP3    H263401   0.642   5.950   2.544 -0.6845  1.0626  0.0835
13996TIP3   OH263402   5.643   0.230   4.360 -0.1990 -0.1826  0.2115
13996TIP3    H163403   5.557   0.267   4.381  0.1561  1.0580 -0.4005
13996TIP3    H263404   5.670   0.185   4.439 -0.1977  1.7877  1.4033
13997TIP3   OH263405   3.954   5.132   1.816 -0.0225 -0.3738 -0.4888
13997TIP3    H163406   4.031   5.107   1.866 -1.3035 -0.4348  1.5578
13997TIP3    H263407   3.923   5.051   1.777 -1.9241 -1.5027  2.9323
13998TIP3   OH263408   1.195   3.816   3.600 -0.1475  0.3062  0.0087
13998TIP3    H163409   1.191   3.799   3.505 -0.3284 -4.9030  0.6766
13998TIP3    H263410   1.110   3.854   3.621 -0.4812  0.6281 -1.7559
13999TIP3   OH263411   1.320   3.662  11.991  0.6269  1.0804  0.0255
13999TIP3    H163412   1.364   3.632  11.912 -1.5039 -1.6851 -0.2669
13999TIP3    H263413   1.301   3.755  11.973  0.6974  0.6888 -2.4972
14000TIP3   OH263414   5.758   0.887   0.491  0.2554 -0.0418 -0.1692
14000TIP3    H163415   5.689   0.865   0.429 -0.3552  0.2494  0.3983
14000TIP3    H263416   5.819   0.814   0.486 -0.7605 -0.9510  0.2812
14001TIP3   OH263417   3.860   2.519  14.480  0.0913 -0.4991  0.2302
14001TIP3    H163418   3.937   2.576  14.470 -0.7218  0.6967  0.5491
14001TIP3    H263419   3.841   2.488  14.391  0.0779  0.3911 -0.0939
14002TIP3   OH263420   3.507   4.326  11.621 -0.2886  0.2024  0.0066
14002TIP3    H163421   3.517   4.261  11.552 -0.9833  2.6333 -2.5683
14002TIP3    H263422   3.415   4.316  11.649 -0.1667 -0.4201  0.2046
14003TIP3   OH263423   4.268   3.730  15.526 -0.0284 -0.7918 -0.5726
14003TIP3    H163424   4.270   3.823  15.505  0.8259 -0.6489  0.0769
14003TIP3    H263425   4.326   3.690  15.462  2.7762 -0.3237  1.4826
14004TIP3   OH263426   1.234   4.220  15.368  0.3419 -0.1128  0.1289
14004TIP3    H163427   1.239   4.310  15.335  0.0403 -0.0830  0.1638
14004TIP3    H263428   1.294   4.171  15.312 -0.6199 -0.1841 -0.8727
14005TIP3   OH263429   1.894   6.513  11.456 -0.1126  0.2473 -0.6475
14005TIP3    H163430   1.903   6.494  11.363  1.4033 -0.0468 -0.4571
14005TIP3    H263431   1.916   6.431  11.500 -1.0538  0.3155 -0.0202
14006TIP3   OH263432   3.279   1.121   5.934  0.0312  0.3790 -0.2283
14006TIP3    H163433   3.228   1.081   5.864 -1.0096 -0.9341  1.2213
14006TIP3    H263434   3.221   1.120   6.010  1.6955  0.1965  1.1005
14007TIP3   OH263435   3.078   4.965   0.314  0.4215 -0.2166  0.2915
14007TIP3    H163436   2.998   5.004   0.279  0.2722  0.3084  1.1804
14007TIP3    H263437   3.102   5.022   0.387  1.1599 -0.8266  0.5352
14008TIP3   OH263438   2.767   5.762  16.617  0.0177 -0.1507  0.1492
14008TIP3    H163439   2.792   5.849  16.587 -0.2061  0.0599  0.5644
14008TIP3    H263440   2.743   5.774  16.709 -0.5774 -0.5424  0.0503
14009TIP3   OH263441   3.838   2.569   0.339  0.2037 -0.0142 -0.4024
14009TIP3    H163442   3.793   2.581   0.423 -1.8977 -0.5067 -1.4142
14009TIP3    H263443   3.819   2.648   0.290  2.0307  0.5971 -0.2253
14010TIP3   OH263444   1.154   4.121   4.323  0.0548  1.0108  0.2684
14010TIP3    H163445   1.204   4.124   4.242 -1.7593  1.2365 -0.9209
14010TIP3    H263446   1.167   4.033   4.357 -1.4905 -0.1463 -1.9081
14011TIP3   OH263447   5.412   0.237  13.276 -0.2043 -0.0056  0.1054
14011TIP3    H163448   5.392   0.207  13.187 -0.6043 -0.0899  0.2182
14011TIP3    H263449   5.377   0.326  13.280  1.7837  0.8636 -0.5161
14012TIP3   OH263450   3.019   3.310  14.160  0.5113  0.0595 -0.5595
14012TIP3    H163451   2.961   3.319  14.236  0.1137 -0.3034 -0.8136
14012TIP3    H263452   3.099   3.356  14.185  0.4594 -0.2267  0.1542
14013TIP3   OH263453   5.893   0.471  15.572 -0.5340 -0.3787  0.1173
14013TIP3    H163454   5.898   0.530  15.497 -0.3759 -1.2402 -0.5723
14013TIP3    H263455   5.956   0.506  15.635 -0.6352  0.3284 -0.1685
14014TIP3   OH263456   1.899   1.313   4.224 -0.0133  0.4448 -0.3385
14014TIP3    H163457   1.966   1.348   4.165  0.3491  1.5068  0.6633
14014TIP3    H263458   1.827   1.287   4.166  0.1285  1.9103 -1.2305
14015TIP3   OH263459   0.650   3.459   6.255  0.4184 -0.0436 -0.4654
14015TIP3    H163460   0.578   3.484   6.313  1.1304 -0.4841  0.6492
14015TIP3    H263461   0.676   3.540   6.212 -0.9224  0.0660 -1.0986
14016TIP3   OH263462   2.313   0.923   3.514 -0.3502  0.3270  0.5383
14016TIP3    H163463   2.376   0.969   3.458  0.7483  1.4180  2.5520
14016TIP3    H263464   2.230   0.967   3.499 -0.0725  0.5871 -0.2481
14017TIP3   OH263465   5.951   2.134  16.258  0.2734 -0.2525  0.2025
14017TIP3    H163466   5.945   2.229  16.247  0.4625 -0.2825 -0.1747
14017TIP3    H263467   5.998   2.122  16.340 -0.1707 -0.0215  0.4945
14018TIP3   OH263468   6.737   2.464  12.818  0.0403  0.3699  0.1652
14018TIP3    H163469   6.763   2.426  12.734 -0.6494 -0.7983  0.4497
14018TIP3    H263470   6.741   2.391  12.879 -0.0791  1.0630  1.0150
14019TIP3   OH263471   6.635   5.822   0.309  0.2765 -0.6692  0.7995
14019TIP3    H163472   6.582   5.889   0.351  0.0262  1.3036 -2.3428
14019TIP3    H263473   6.572   5.759   0.275 -0.2522  1.3421 -2.3705
14020TIP3   OH263474   5.209   3.202   2.816  0.3026  0.5262  0.1919
14020TIP3    H163475   5.123   3.236   2.840  0.1025  0.5614 -0.5527
14020TIP3    H263476   5.267   3.236   2.884 -0.2139  0.7779  0.5212
14021TIP3   OH263477   2.423   3.498   0.361  0.1581  0.1961 -0.1925
14021TIP3    H163478   2.486   3.454   0.419 -0.7034 -0.2926  0.3837
14021TIP3    H263479   2.348   3.439   0.358  0.3387 -0.0026 -2.1656
14022TIP3   OH263480   6.398   6.376   6.431  0.5493 -0.5151 -0.7261
14022TIP3    H163481   6.351   6.391   6.349 -0.2689 -0.5767 -0.2758
14022TIP3    H263482   6.473   6.321   6.406  0.3202 -0.5170 -1.4281
14023TIP3   OH263483   0.352   1.683   1.820 -0.2415 -0.0307 -0.1681
14023TIP3    H163484   0.345   1.778   1.812 -1.4972 -0.1769 -1.1127
14023TIP3    H263485   0.271   1.649   1.781  0.5153 -1.5174 -0.5434
14024TIP3   OH263486   5.388   1.608   1.956 -0.9048 -0.1823  0.0962
14024TIP3    H163487   5.301   1.592   1.919 -1.5850  3.1571 -0.0820
14024TIP3    H263488   5.371   1.637   2.046  0.3374 -2.3447  1.1398
14025TIP3   OH263489   2.725   3.256   6.012  0.1420  0.2647 -0.6301
14025TIP3    H163490   2.734   3.171   5.969 -1.1755  0.5546 -1.5419
14025TIP3    H263491   2.787   3.253   6.084 -0.7640 -1.9757  0.1387
14026TIP3   OH263492   5.441   5.339  11.993  0.1952 -0.0589  0.6925
14026TIP3    H163493   5.473   5.275  11.929 -2.2619 -2.4239  1.6498
14026TIP3    H263494   5.501   5.332  12.067 -0.3187 -1.6998  0.9846
14027TIP3   OH263495   3.494   5.626  16.334 -0.6808 -0.0115  0.4912
14027TIP3    H163496   3.403   5.649  16.355 -0.5169 -0.7222  2.1656
14027TIP3    H263497   3.526   5.584  16.414  1.7364  1.9829  0.7021
14028TIP3   OH263498   2.609   0.541  10.945  0.3747 -0.0788 -0.3073
14028TIP3    H163499   2.529   0.547  10.996 -0.5496 -0.6785 -1.6190
14028TIP3    H263500   2.654   0.463  10.978 -0.9661 -1.3653 -1.3685
14029TIP3   OH263501   1.318   4.318   0.227  0.2576  0.2601  0.3671
14029TIP3    H163502   1.224   4.303   0.235 -0.1036  1.8566 -0.4971
14029TIP3    H263503   1.355   4.231   0.212 -0.9775 -0.4816  1.3865
14030TIP3   OH263504   3.810   5.708   3.261 -0.5932 -0.3301  0.3470
14030TIP3    H163505   3.748   5.780   3.257 -1.0302 -0.6565  0.9632
14030TIP3    H263506   3.849   5.715   3.349  2.1367  1.3985 -0.8669
14031TIP3   OH263507   2.218   5.138   4.607  0.4827  0.4495 -0.1299
14031TIP3    H163508   2.248   5.128   4.698 -0.1243  0.5944  0.0975
14031TIP3    H263509   2.297   5.129   4.554  0.8704  0.5183  0.4254
14032TIP3   OH263510   3.433   5.379  15.480 -0.1247 -0.2708  1.0232
14032TIP3    H163511   3.453   5.295  15.521 -0.4922 -1.8554 -1.7909
14032TIP3    H263512   3.487   5.382  15.402 -1.3809  1.3388  0.1411
14033TIP3   OH263513   2.987   6.675  12.797 -0.2379  0.5135 -0.0080
14033TIP3    H163514   2.986   6.767  12.768 -3.6520  0.9973  1.1981
14033TIP3    H263515   2.915   6.634  12.749  0.7959 -1.4143  0.0021
14034TIP3   OH263516   0.082   3.622   5.204  0.7807  0.0812  0.7969
14034TIP3    H163517   0.076   3.686   5.133  0.7217  0.6167  1.2764
14034TIP3    H263518   0.092   3.537   5.160 -0.2701  0.2860  0.1325
14035TIP3   OH263519   2.431   5.258   5.764 -0.1434 -0.1065  0.0358
14035TIP3    H163520   2.368   5.199   5.806  0.1038  0.5951  1.4133
14035TIP3    H263521   2.435   5.335   5.820 -0.9561  1.5840 -2.0613
14036TIP3   OH263522   3.417   3.492  15.992 -0.1088 -0.5119 -0.2983
14036TIP3    H163523   3.364   3.474  16.070  0.8279  1.1607  0.7788
14036TIP3    H263524   3.367   3.455  15.920 -2.3498  0.2666  0.7711
14037TIP3   OH263525   2.316   6.404   4.066 -0.5161 -0.0566 -0.6313
14037TIP3    H163526   2.326   6.345   3.992 -0.8267 -0.4696 -0.3497
14037TIP3    H263527   2.387   6.381   4.125 -0.7233 -0.2444 -0.4560
14038TIP3   OH263528   0.427   6.179   3.473  0.6587 -0.1492  0.2142
14038TIP3    H163529   0.418   6.116   3.544 -0.0335  0.2824  0.5128
14038TIP3    H263530   0.360   6.245   3.489  0.4704 -0.0541 -0.8462
14039TIP3   OH263531   6.227   0.528   6.599  0.1873 -0.7197  0.2328
14039TIP3    H163532   6.163   0.578   6.549 -0.1788 -1.8718 -0.4777
14039TIP3    H263533   6.289   0.496   6.533 -0.1009 -1.9556  0.5310
14040TIP3   OH263534   1.080   0.400   4.113 -0.3915 -0.0548 -0.8579
14040TIP3    H163535   1.134   0.357   4.180  2.3196  2.5306 -1.1728
14040TIP3    H263536   1.020   0.331   4.082  1.6540 -2.7085  0.6813
14041TIP3   OH263537   5.626   1.141  16.100  0.3610  0.3673 -0.0253
14041TIP3    H163538   5.619   1.045  16.099  0.5853  0.3516 -1.2255
14041TIP3    H263539   5.573   1.167  16.175  0.5835 -0.7173  0.5407
14042TIP3   OH263540   5.131   0.712  14.881 -0.0715 -0.8113 -0.5354
14042TIP3    H163541   5.063   0.704  14.948  0.7768  0.1061  0.4835
14042TIP3    H263542   5.089   0.682  14.800 -1.6084 -0.4617  0.0966
14043TIP3   OH263543   0.192   3.777  17.160  0.1676  0.0380 -0.0855
14043TIP3    H163544   0.212   3.764  17.252  0.9439  0.0081 -0.2504
14043TIP3    H263545   0.225   3.865  17.140 -1.6134  0.7948  0.0911
14044TIP3   OH263546   5.131   0.813  14.307  0.0799 -0.0702 -0.6630
14044TIP3    H163547   5.153   0.865  14.230 -0.2978 -0.8541 -1.3117
14044TIP3    H263548   5.061   0.862  14.349 -0.4743 -0.1872 -1.4251
14045TIP3   OH263549   2.972   0.379  14.069 -0.1949  0.1982 -0.3779
14045TIP3    H163550   2.900   0.336  14.022 -1.2960  1.8020 -0.2471
14045TIP3    H263551   2.942   0.381  14.160 -0.6543  2.0602 -0.5227
14046TIP3   OH263552   1.631   5.634  16.546 -0.1128 -0.1326  0.2707
14046TIP3    H163553   1.574   5.646  16.621  2.3928  0.8737  2.1817
14046TIP3    H263554   1.637   5.539  16.534 -0.1473 -0.3339  1.7053
14047TIP3   OH263555   5.728   1.147  16.998  0.0438  0.2062 -0.1234
14047TIP3    H163556   5.736   1.226  16.944 -0.1326  0.6010  0.4234
14047TIP3    H263557   5.797   1.156  17.064  0.4789 -0.4363 -0.4753
14048TIP3   OH263558   4.109   4.452   1.491  0.0610 -0.3707 -0.6896
14048TIP3    H163559   4.062   4.497   1.561  1.6270 -0.4762  0.5001
14048TIP3    H263560   4.142   4.522   1.435 -1.3534 -0.2915 -1.4649
14049TIP3   OH263561   5.450   6.001  16.321  0.2261 -0.1879  0.3934
14049TIP3    H163562   5.468   6.079  16.268  1.5155 -0.7743 -0.0519
14049TIP3    H263563   5.388   5.950  16.268  0.4115 -0.0999  0.0954
14050TIP3   OH263564   1.909   5.767   1.172  0.3587  0.3334 -0.3497
14050TIP3    H163565   1.932   5.807   1.256  0.9637  0.8556 -0.7516
14050TIP3    H263566   1.953   5.683   1.172  0.7496  0.5340 -0.3309
14051TIP3   OH263567   0.920   4.979  10.956  0.2125  0.3461  0.0848
14051TIP3    H163568   0.935   5.074  10.952  0.4238  0.3371  0.6181
14051TIP3    H263569   0.846   4.969  11.016 -1.6536  0.3500 -2.0708
14052TIP3   OH263570   4.221   2.972   0.547  0.4187  0.2268 -0.3553
14052TIP3    H163571   4.137   2.972   0.500 -0.1219  0.2742  0.5894
14052TIP3    H263572   4.198   2.988   0.638  1.3097 -1.4211  0.1965
14053TIP3   OH263573   2.363   2.824  12.704 -0.1225  0.2031 -0.4655
14053TIP3    H163574   2.376   2.823  12.799 -1.5408 -1.6834 -0.2369
14053TIP3    H263575   2.268   2.825  12.693 -0.0010 -0.8140 -1.8419
14054TIP3   OH263576   5.411   5.525  16.535 -0.3000  0.9396 -0.4890
14054TIP3    H163577   5.448   5.573  16.460  1.1105  0.3129 -0.2380
14054TIP3    H263578   5.442   5.435  16.524 -0.2864  0.7761  0.6874
14055TIP3   OH263579   6.193   3.214   3.013  0.1098  0.0123 -0.5720
14055TIP3    H163580   6.243   3.138   2.982 -0.8464 -1.8244  2.0146
14055TIP3    H263581   6.128   3.229   2.945  1.1745 -0.5844 -1.7752
14056TIP3   OH263582   2.212   3.920  11.901 -0.4164 -0.4564  0.2895
14056TIP3    H163583   2.182   3.966  11.823 -1.5211  0.5019  1.2357
14056TIP3    H263584   2.306   3.938  11.905 -0.6751  1.0581  0.1717
14057TIP3   OH263585   6.410   2.014  12.341  0.8436 -0.3263  0.2182
14057TIP3    H163586   6.392   1.988  12.431  0.1441  1.5349  0.6535
14057TIP3    H263587   6.327   2.047  12.308  1.3760  0.1169 -0.7187
14058TIP3   OH263588   0.625   6.007   4.122  0.1785 -0.5081 -0.1514
14058TIP3    H163589   0.654   6.065   4.052 -1.1226 -0.0880 -0.3705
14058TIP3    H263590   0.599   5.926   4.079  1.1030 -0.9261  0.0557
14059TIP3   OH263591   5.125   4.778  15.081  0.4928 -0.8805 -0.1905
14059TIP3    H163592   5.098   4.715  15.148  1.4781  1.1730  2.3679
14059TIP3    H263593   5.165   4.850  15.132  1.0126  0.9814 -3.0149
14060TIP3   OH263594   6.680   5.488  13.107  0.0586  0.0802  0.5970
14060TIP3    H163595   6.654   5.434  13.033 -1.7942 -0.7481  1.7866
14060TIP3    H263596   6.725   5.428  13.167 -0.4540  0.2182  1.1357
14061TIP3   OH263597   3.668   0.151   1.667  0.3483 -0.1837 -0.1140
14061TIP3    H163598   3.629   0.114   1.746 -2.4154  0.3219 -1.1446
14061TIP3    H263599   3.708   0.076   1.623  0.2678 -0.7937  0.8160
14062TIP3   OH263600   4.629   0.132  12.434 -0.2084  0.1563  0.0029
14062TIP3    H163601   4.581   0.084  12.502  0.3638 -0.1507  0.2011
14062TIP3    H263602   4.720   0.107  12.447  0.0671  1.0532 -0.0961
14063TIP3   OH263603   5.627   5.128   1.277  0.1330 -0.2420  0.4097
14063TIP3    H163604   5.605   5.123   1.184  0.2268 -0.3344  0.3924
14063TIP3    H263605   5.651   5.219   1.291 -0.7578 -0.0228  0.5417
14064TIP3   OH263606   2.560   5.029  14.703 -0.2223  0.2915 -0.3630
14064TIP3    H163607   2.500   4.961  14.672  1.3409 -0.6597 -1.4556
14064TIP3    H263608   2.631   4.981  14.747 -0.2875  1.3929  1.0408
14065TIP3   OH263609   4.826   3.464  12.178  0.5613 -0.0339  0.7159
14065TIP3    H163610   4.849   3.439  12.267  0.7350  3.0974  1.6593
14065TIP3    H263611   4.762   3.534  12.188  0.1944  0.0717 -1.6552
14066TIP3   OH263612   1.161   3.406   6.737  0.5539 -0.1658 -0.3536
14066TIP3    H163613   1.244   3.364   6.761  0.1364 -0.9054 -0.1730
14066TIP3    H263614   1.160   3.487   6.788  1.3857  0.0855 -0.7244
14067TIP3   OH263615   4.885   1.553   3.698  0.1517 -0.0374  0.3975
14067TIP3    H163616   4.808   1.499   3.720  0.4642 -0.8260 -0.3755
14067TIP3    H263617   4.956   1.515   3.749  0.4613 -0.6364 -0.4611
14068TIP3   OH263618   2.210   5.656  11.397 -0.2424  0.3888 -0.4575
14068TIP3    H163619   2.191   5.573  11.354 -0.3394  0.6646 -0.9529
14068TIP3    H263620   2.166   5.722  11.344  2.2143  1.0833 -1.7884
14069TIP3   OH263621   6.328   6.662   6.712 -0.4965  0.6699 -0.0573
14069TIP3    H163622   6.418   6.637   6.692 -0.4829  0.5028  0.2083
14069TIP3    H263623   6.296   6.703   6.632 -0.3201  0.3486 -0.2932
14070TIP3   OH263624   4.037   1.067  15.390 -0.6227  0.0467  0.0008
14070TIP3    H163625   4.032   1.144  15.447 -2.4869  0.5098 -0.6779
14070TIP3    H263626   3.965   1.080  15.327  0.4681 -1.1208 -1.5744
14071TIP3   OH263627   4.450   1.029   2.462  0.3428  0.1096 -0.4517
14071TIP3    H163628   4.492   1.084   2.396 -2.6215  2.3804 -0.6333
14071TIP3    H263629   4.494   1.051   2.544 -0.4469  2.5700 -0.5997
14072TIP3   OH263630   0.744   3.355   5.673 -0.1391 -0.1417 -0.0842
14072TIP3    H163631   0.658   3.357   5.717 -0.4332  1.1101 -0.6841
14072TIP3    H263632   0.771   3.446   5.669  2.7756 -0.6864  3.0019
14073TIP3   OH263633   5.911   4.890  11.964  0.0443  0.0657 -0.4050
14073TIP3    H163634   5.817   4.888  11.950 -0.1048  1.8111 -0.0145
14073TIP3    H263635   5.949   4.897  11.876 -0.3375  1.3996 -0.4933
14074TIP3   OH263636   2.635   1.797   3.463  0.3005  0.2991 -0.0559
14074TIP3    H163637   2.597   1.767   3.380 -1.1669 -1.3681  1.1415
14074TIP3    H263638   2.559   1.820   3.517  1.1865  0.5155  1.1334
14075TIP3   OH263639   4.925   2.789   6.186  0.5611 -1.1480  0.4137
14075TIP3    H163640   4.897   2.795   6.278  1.7433 -0.8666  0.7682
14075TIP3    H263641   4.929   2.695   6.168 -1.1807 -1.2047  0.1572
14076TIP3   OH263642   2.328   5.219   2.420 -0.2107 -0.4496 -0.1437
14076TIP3    H163643   2.261   5.185   2.360  0.7928  0.4826 -1.8790
14076TIP3    H263644   2.395   5.151   2.420  0.3072  0.0387 -1.0275
14077TIP3   OH263645   6.453   3.922   1.785  0.7169 -0.1521  0.0458
14077TIP3    H163646   6.540   3.951   1.813  0.9676 -0.6968 -0.1467
14077TIP3    H263647   6.430   3.854   1.847 -1.0898  2.2791  2.2474
14078TIP3   OH263648   2.874   3.418   3.132  0.9931  0.0115  0.7144
14078TIP3    H163649   2.836   3.409   3.219  0.6344 -0.7182  0.4863
14078TIP3    H263650   2.902   3.510   3.128 -0.5164  0.5028  0.9814
14079TIP3   OH263651   4.771   6.738  16.732  0.2488 -0.0050  0.1719
14079TIP3    H163652   4.856   6.772  16.761  1.9833 -3.4744 -0.2307
14079TIP3    H263653   4.769   6.755  16.638  0.1341  0.7662  0.3119
14080TIP3   OH263654   2.631   0.998  16.231 -0.0044  0.0419 -0.2282
14080TIP3    H163655   2.656   1.035  16.146 -1.1180 -1.2232 -1.1624
14080TIP3    H263656   2.675   0.914  16.235  0.0656  0.1023  0.4854
14081TIP3   OH263657   2.871   2.674  16.478  0.2919 -0.0689  0.5084
14081TIP3    H163658   2.938   2.694  16.544 -1.5827 -0.8301  2.8134
14081TIP3    H263659   2.789   2.685  16.525 -1.1742 -0.3777 -1.8607
14082TIP3   OH263660   6.645   4.863  17.272 -0.3542 -0.2583  0.0006
14082TIP3    H163661   6.612   4.774  17.259  0.0725 -0.4642  0.2929
14082TIP3    H263662   6.574   4.920  17.242 -0.4221 -0.6981 -0.6777
14083TIP3   OH263663   5.269   3.146  11.428  0.5123  0.1185 -0.1029
14083TIP3    H163664   5.352   3.107  11.456 -0.4871  0.2521  3.5971
14083TIP3    H263665   5.289   3.239  11.416  0.8851  0.2112  1.0881
14084TIP3   OH263666   1.544   4.499   4.534 -0.0887  0.2119  0.2440
14084TIP3    H163667   1.471   4.454   4.492  0.4246 -0.5148  0.1223
14084TIP3    H263668   1.587   4.546   4.463 -0.3843  0.5901  0.3052
14085TIP3   OH263669   1.117   0.232  16.954  0.2190  0.1212  0.5548
14085TIP3    H163670   1.095   0.317  16.993 -1.1923  0.5826 -1.1160
14085TIP3    H263671   1.193   0.202  17.004 -0.5348  1.3620  2.5812
14086TIP3   OH263672   0.858   5.268  15.304  0.5414  0.0042 -0.2221
14086TIP3    H163673   0.797   5.267  15.230 -1.6384  1.6339  1.4078
14086TIP3    H263674   0.893   5.179  15.308  0.2763 -0.2686 -2.8169
14087TIP3   OH263675   1.580   1.596  14.688 -0.1654  0.1225 -0.1826
14087TIP3    H163676   1.646   1.654  14.650 -0.2125  0.0979 -0.3026
14087TIP3    H263677   1.497   1.625  14.650 -0.1626 -0.1569 -0.4061
14088TIP3   OH263678   1.143   5.199  12.788  0.0092  0.0288 -0.0396
14088TIP3    H163679   1.080   5.138  12.826 -0.4383  0.0503 -0.7219
14088TIP3    H263680   1.147   5.272  12.850 -0.8848  0.1723 -0.1382
14089TIP3   OH263681   5.843   3.557  12.815  0.0096 -0.1488 -0.5299
14089TIP3    H163682   5.923   3.539  12.865 -0.7778  3.0497  2.2462
14089TIP3    H263683   5.865   3.533  12.725  3.4991 -0.9224  0.3892
14090TIP3   OH263684   3.578   3.596  11.629 -0.0535 -0.0290  0.1296
14090TIP3    H163685   3.525   3.530  11.672  0.5032  0.4371  1.5826
14090TIP3    H263686   3.539   3.680  11.654  1.1743  0.3133  1.0076
14091TIP3   OH263687   3.831   2.425  15.179 -0.9198  0.0953 -0.1239
14091TIP3    H163688   3.882   2.389  15.252 -1.3068 -0.6838 -0.2263
14091TIP3    H263689   3.879   2.397  15.101 -1.2182 -0.2060 -0.2027
14092TIP3   OH263690   3.343   5.916  12.794  0.0102  0.1951 -0.3968
14092TIP3    H163691   3.259   5.961  12.796  0.1539  0.4534  0.7359
14092TIP3    H263692   3.324   5.827  12.822 -0.1080 -0.1803 -1.6143
14093TIP3   OH263693   2.982   2.123  15.004 -0.8517  0.0198 -0.0325
14093TIP3    H163694   2.938   2.208  15.001 -1.4062 -0.2843 -1.9143
14093TIP3    H263695   2.916   2.061  14.974  0.0316 -0.8450 -0.2402
14094TIP3   OH263696   4.736   6.138   0.165  0.5307  0.0470 -0.4077
14094TIP3    H163697   4.807   6.084   0.198  0.6975  1.0698  1.0264
14094TIP3    H263698   4.768   6.228   0.172 -0.8937  0.5395  0.3699
14095TIP3   OH263699   2.967   1.687   0.808 -0.0342  0.0021  0.0108
14095TIP3    H163700   3.026   1.674   0.734 -0.1523  1.1164 -0.3042
14095TIP3    H263701   2.885   1.716   0.768 -0.1775  0.3703  0.5600
14096TIP3   OH263702   3.255   2.157  14.172  0.4509 -0.7397 -0.3100
14096TIP3    H163703   3.287   2.164  14.262  0.2355 -1.1017 -0.2012
14096TIP3    H263704   3.220   2.068  14.166  1.8289 -1.2539 -1.2099
14097TIP3   OH263705   1.443   5.096  13.026 -0.3458 -0.4243 -0.0177
14097TIP3    H163706   1.369   5.043  12.998  1.1577 -1.6142 -1.9487
14097TIP3    H263707   1.427   5.182  12.988 -1.3301 -0.2827  0.6670
14098TIP3   OH263708   1.811   1.677  16.735 -0.2570  0.6494  0.3188
14098TIP3    H163709   1.833   1.689  16.827  1.5203 -1.1369  0.1878
14098TIP3    H263710   1.892   1.647  16.694 -1.4695 -0.4405 -1.4406
14099TIP3   OH263711   4.328   2.682   1.722  0.4690  0.2856 -0.1819
14099TIP3    H163712   4.286   2.727   1.795  0.3222 -0.1661  0.0149
14099TIP3    H263713   4.410   2.730   1.708  0.1138  0.8747 -0.2592
14100TIP3   OH263714   3.470   0.141  16.014  0.0119 -0.2977 -0.1263
14100TIP3    H163715   3.421   0.061  15.995  0.3354 -0.4594 -0.2711
14100TIP3    H263716   3.411   0.212  15.985  0.0846 -0.5091 -0.8138
14101TIP3   OH263717   6.003   1.888   0.095 -0.1371  0.2799 -0.5006
14101TIP3    H163718   6.085   1.853   0.061  0.4254  1.6333 -0.5941
14101TIP3    H263719   5.992   1.845   0.180 -1.3081 -2.7654 -2.0417
14102TIP3   OH263720   5.741   2.862  12.326 -0.0908  0.1181 -0.4981
14102TIP3    H163721   5.746   2.866  12.422  0.7268 -0.3747 -0.5151
14102TIP3    H263722   5.667   2.919  12.304 -0.3106  0.2066  0.4273
14103TIP3   OH263723   4.145   2.175   1.736 -0.1414  0.5156  0.3981
14103TIP3    H163724   4.230   2.153   1.772 -0.6337  0.0978  1.3404
14103TIP3    H263725   4.162   2.196   1.644  0.7608 -0.9776  0.1966
14104TIP3   OH263726   2.571   6.343  16.554 -0.3329  0.2164 -0.1193
14104TIP3    H163727   2.484   6.313  16.580 -0.3931  0.8115  0.3854
14104TIP3    H263728   2.566   6.439  16.558  0.1086  0.2828 -0.8720
14105TIP3   OH263729   6.198   1.602  12.637  0.1453  0.3267 -0.3839
14105TIP3    H163730   6.218   1.513  12.664 -1.9350 -0.4665 -1.2430
14105TIP3    H263731   6.230   1.608  12.547 -0.9468 -0.0544 -0.8169
14106TIP3   OH263732   0.564   4.010  12.262  0.3684  0.1308 -0.7099
14106TIP3    H163733   0.550   4.044  12.173  0.4002 -0.7010 -1.0430
14106TIP3    H263734   0.602   3.923  12.248  0.6553  0.1168  0.1276
14107TIP3   OH263735   4.412   6.502   0.810  0.3677 -0.5726 -0.4941
14107TIP3    H163736   4.326   6.530   0.840  1.1879 -0.0097  1.5219
14107TIP3    H263737   4.397   6.415   0.773 -0.9447 -0.8615  0.6329
14108TIP3   OH263738   6.438   2.431   5.242 -0.5159 -0.2806  0.2819
14108TIP3    H163739   6.484   2.377   5.179  2.3773 -0.6176  2.4892
14108TIP3    H263740   6.436   2.378   5.322 -1.1158  1.3516  1.4106
14109TIP3   OH263741   2.028   0.922   5.327  0.2556  0.0460  0.0019
14109TIP3    H163742   2.083   1.000   5.321  0.4341  0.1449  2.1042
14109TIP3    H263743   1.938   0.956   5.330  0.3318  0.2001  0.8875
14110TIP3   OH263744   0.899   4.797  14.068 -0.4741 -0.7655  0.7737
14110TIP3    H163745   0.985   4.795  14.027 -0.8472 -0.4858 -0.0414
14110TIP3    H263746   0.905   4.734  14.139  0.6706 -0.1141  1.2777
14111TIP3   OH263747   5.040   0.052  15.673 -0.3781  0.0147 -0.4165
14111TIP3    H163748   4.985  -0.008  15.623  1.3603  0.1087 -2.5935
14111TIP3    H263749   5.048   0.130  15.618  2.0842 -0.1100 -0.3688
14112TIP3   OH263750   0.839   2.419  16.368  0.5811 -0.2022 -0.2069
14112TIP3    H163751   0.894   2.342  16.383 -0.4734 -0.7318  1.2061
14112TIP3    H263752   0.759   2.383  16.329  0.8384  0.4474 -1.3946
14113TIP3   OH263753   5.607   3.270   4.056 -0.0299 -0.3720  0.5540
14113TIP3    H163754   5.613   3.265   3.961  0.5163 -0.5597  0.5948
14113TIP3    H263755   5.513   3.276   4.074 -0.3811 -3.1396  0.1129
14114TIP3   OH263756   1.482   2.142  12.163  0.3592  0.7149 -0.0404
14114TIP3    H163757   1.427   2.207  12.205  0.5989  0.7527  0.2193
14114TIP3    H263758   1.430   2.109  12.090 -1.2647 -1.4683  1.9666
14115TIP3   OH263759   3.582   6.003   5.788 -0.4721 -0.1017 -0.9906
14115TIP3    H163760   3.505   5.945   5.788 -0.2504 -0.4328  0.4983
14115TIP3    H263761   3.589   6.033   5.878  1.6234 -0.7394 -0.8839
14116TIP3   OH263762   1.519   1.204  12.042  0.0488 -0.3545  0.9558
14116TIP3    H163763   1.487   1.281  11.994 -0.6786 -0.8375  0.6497
14116TIP3    H263764   1.509   1.228  12.135  2.5736  1.0498  0.9512
14117TIP3   OH263765   2.966   3.769  14.449  0.2226 -0.4915  0.2716
14117TIP3    H163766   2.950   3.807  14.363  1.4977 -1.8013 -0.5783
14117TIP3    H263767   2.897   3.805  14.504  0.5795  2.0045 -0.7754
14118TIP3   OH263768   3.283   2.254   1.611  0.3929 -0.0515 -0.1798
14118TIP3    H163769   3.243   2.178   1.569 -1.3799  0.5252  0.3428
14118TIP3    H263770   3.210   2.316   1.621  1.3805  0.9456  1.1263
14119TIP3   OH263771   0.616   2.349  12.479 -0.4038 -0.5813 -0.1129
14119TIP3    H163772   0.548   2.409  12.450  1.0020  0.8217 -0.6531
14119TIP3    H263773   0.660   2.322  12.398  1.9577  1.3985  0.4136
14120TIP3   OH263774   3.715   0.726   2.556 -0.3212  0.0951 -0.1062
14120TIP3    H163775   3.678   0.683   2.634 -0.2088  0.7299  0.3052
14120TIP3    H263776   3.763   0.802   2.591  0.3338 -0.0175 -0.7350
14121TIP3   OH263777   2.658   2.217   1.408  0.2973  0.4404  0.2753
14121TIP3    H163778   2.630   2.220   1.317  1.2357 -0.2949 -0.0553
14121TIP3    H263779   2.684   2.126   1.422 -1.3817  0.1377  1.7710
14122TIP3   OH263780   1.742   0.735   3.104 -0.0055 -0.3549 -0.1734
14122TIP3    H163781   1.737   0.692   3.189  1.8082  0.7126  0.5270
14122TIP3    H263782   1.801   0.809   3.118  0.1680 -0.0287 -2.3111
14123TIP3   OH263783   1.282   4.558  17.133 -0.9145  0.0544 -0.4971
14123TIP3    H163784   1.314   4.470  17.154  0.8023  0.8865  0.5059
14123TIP3    H263785   1.225   4.544  17.058 -0.2685 -1.8529 -0.7017
14124TIP3   OH263786   1.439   1.233   3.888  0.2952  0.0701 -0.4903
14124TIP3    H163787   1.420   1.318   3.848 -1.1385 -0.9343 -2.0675
14124TIP3    H263788   1.364   1.216   3.945 -0.8762 -1.3407 -2.3405
14125TIP3   OH263789   3.275   4.911  11.663  0.6366 -0.2540  0.4053
14125TIP3    H163790   3.344   4.901  11.729 -1.6095  2.1545  3.4097
14125TIP3    H263791   3.199   4.868  11.702 -0.2669 -0.5738 -1.6335
14126TIP3   OH263792   5.278   5.900  13.092 -0.4030  0.0146 -0.2933
14126TIP3    H163793   5.264   5.913  13.186 -1.3825 -0.2043 -0.4024
14126TIP3    H263794   5.196   5.862  13.061  0.7332 -2.1733 -0.8089
14127TIP3   OH263795   0.683   4.414  11.836 -0.4181 -0.3060  0.2363
14127TIP3    H163796   0.610   4.453  11.885 -3.2947 -1.6491 -2.6166
14127TIP3    H263797   0.645   4.338  11.792  2.6957 -1.0041 -1.5680
14128TIP3   OH263798   3.582   1.509  16.045  0.2696  0.1887  0.0789
14128TIP3    H163799   3.608   1.514  15.953 -0.5115  0.5582 -0.1343
14128TIP3    H263800   3.496   1.551  16.048 -0.0128 -0.4132  0.8671
14129TIP3   OH263801   1.677   5.958   1.062 -0.0768 -0.0912  0.3442
14129TIP3    H163802   1.605   5.985   1.004 -0.2225 -0.2185  0.4628
14129TIP3    H263803   1.668   5.862   1.067  1.1916 -0.3166 -1.0665
14130TIP3   OH263804   3.288   6.397   3.971 -0.0069 -0.7754 -0.3367
14130TIP3    H163805   3.371   6.441   3.951  0.6485 -1.8880 -0.1618
14130TIP3    H263806   3.289   6.385   4.066 -2.4672  3.2034  0.4216
14131TIP3   OH263807   3.540   3.598  10.849 -0.0272 -0.7241 -0.3132
14131TIP3    H163808   3.475   3.649  10.896 -0.0571 -1.6021  0.6429
14131TIP3    H263809   3.530   3.509  10.883  1.2925 -0.9882 -0.5433
14132TIP3   OH263810   3.052   3.155   0.078  0.2180  0.6275  0.1789
14132TIP3    H163811   3.017   3.213   0.146 -1.1868  0.5862 -0.4893
14132TIP3    H263812   3.075   3.214   0.006 -0.6204  0.4349 -0.2573
14133TIP3   OH263813   1.445   0.517   3.519  0.2968 -0.4503 -0.1903
14133TIP3    H163814   1.469   0.590   3.577  0.1119 -1.2134  0.8757
14133TIP3    H263815   1.356   0.538   3.490  1.1583  1.0293 -1.9920
14134TIP3   OH263816   4.359   3.141  12.506 -0.4691  0.5719 -0.3261
14134TIP3    H163817   4.438   3.097  12.537 -0.3149  2.2955  1.9445
14134TIP3    H263818   4.386   3.183  12.424  0.5901  0.0614 -0.2567
14135TIP3   OH263819   2.007   5.602  17.028 -0.0126 -0.0977  0.0873
14135TIP3    H163820   2.021   5.682  17.079 -0.4172  0.7956 -1.1496
14135TIP3    H263821   1.960   5.543  17.088 -0.6820  1.0023  0.6709
14136TIP3   OH263822   0.567   2.299  14.927 -0.2012  0.0392  0.0951
14136TIP3    H163823   0.637   2.284  14.864 -0.8904 -1.3087 -0.3745
14136TIP3    H263824   0.487   2.274  14.881 -0.7598 -0.6195  1.3692
14137TIP3   OH263825   4.821   5.089   0.926  0.5649 -0.0609 -0.1447
14137TIP3    H163826   4.872   5.138   0.990  1.2246 -0.1338 -0.6106
14137TIP3    H263827   4.885   5.037   0.878 -0.1221 -1.3690  0.3155
14138TIP3   OH263828   3.524   2.497   2.903  0.4198  0.1997  0.3297
14138TIP3    H163829   3.593   2.510   2.968 -1.4506  0.2041  2.4420
14138TIP3    H263830   3.495   2.407   2.916 -0.8608  0.6114  0.3992
14139TIP3   OH263831   1.113   1.204  12.177  0.6862 -0.2783  0.0673
14139TIP3    H163832   1.136   1.112  12.184 -0.0450 -0.3562  1.8810
14139TIP3    H263833   1.018   1.205  12.180  0.5581  0.3963 -2.3374
14140TIP3   OH263834   5.153   2.560   0.839  0.4391  0.6291 -0.0860
14140TIP3    H163835   5.064   2.594   0.841 -0.5054 -1.6246  0.9601
14140TIP3    H263836   5.182   2.571   0.748 -1.8764 -0.7387 -1.0928
14141TIP3   OH263837   0.835   3.318   3.266  0.2258  0.1233  0.6054
14141TIP3    H163838   0.923   3.351   3.246  0.8079 -1.1785  0.9224
14141TIP3    H263839   0.776   3.377   3.219  1.3384  0.0881 -0.8986
14142TIP3   OH263840   5.317   0.857   1.850  0.2210  0.2210  0.4300
14142TIP3    H163841   5.322   0.768   1.817 -2.5673 -0.3473  1.3342
14142TIP3    H263842   5.302   0.911   1.772  1.3998 -0.1153 -0.0511
14143TIP3   OH263843   1.629   2.110   2.948  0.3293  0.4121 -0.1477
14143TIP3    H163844   1.563   2.169   2.913  1.4662  0.8621 -1.6459
14143TIP3    H263845   1.702   2.168   2.973  1.1656 -0.2659 -0.9461
14144TIP3   OH263846   4.908   4.744   1.070  0.3589  0.1691  0.3801
14144TIP3    H163847   4.885   4.692   0.992 -0.4414  1.4820 -0.2894
14144TIP3    H263848   5.001   4.764   1.058  0.1849  0.5815 -0.4000
14145TIP3   OH263849   5.003   2.054  14.789 -0.7620  0.2814  0.2324
14145TIP3    H163850   5.079   2.001  14.811 -0.7684  0.2283  0.1277
14145TIP3    H263851   5.016   2.136  14.836  0.3641  1.0634 -1.3559
14146TIP3   OH263852   5.271   6.129  13.842  0.0401 -0.9665  0.0241
14146TIP3    H163853   5.346   6.112  13.785 -0.0962 -0.5253 -0.2906
14146TIP3    H263854   5.197   6.137  13.782 -0.1089 -0.5160  0.2614
14147TIP3   OH263855   5.457   5.885  15.947 -0.1922 -0.2408 -0.0880
14147TIP3    H163856   5.467   5.881  15.852 -0.3951  0.3698 -0.1419
14147TIP3    H263857   5.546   5.903  15.980 -0.3834  1.2179 -0.2885
14148TIP3   OH263858   1.295   5.274   5.031 -0.3075  0.4150 -0.1699
14148TIP3    H163859   1.264   5.283   4.941 -0.9050 -0.3399 -0.0495
14148TIP3    H263860   1.222   5.303   5.085  0.5521  2.2683  0.0774
14149TIP3   OH263861   6.659   0.779   5.903 -0.0636  0.3344  0.1287
14149TIP3    H163862   6.600   0.714   5.943  1.0929  0.9814  3.1951
14149TIP3    H263863   6.746   0.742   5.914  0.3425  0.6351 -1.8216
14150TIP3   OH263864   0.360   3.326   6.096 -0.1685 -0.1057  0.6097
14150TIP3    H163865   0.327   3.344   6.184 -1.2928  3.3815 -0.3718
14150TIP3    H263866   0.312   3.248   6.068 -0.9489 -0.3534  2.4982
14151TIP3   OH263867   6.733   3.568   6.602 -0.3459 -0.1781  0.5802
14151TIP3    H163868   6.707   3.548   6.691  0.0258 -1.0701  0.5050
14151TIP3    H263869   6.825   3.540   6.597 -0.1529  0.5151  0.1227
14152TIP3   OH263870   1.437   3.888   5.264 -0.4198 -0.4109  0.1444
14152TIP3    H163871   1.490   3.912   5.340 -0.3187  0.9759 -0.3204
14152TIP3    H263872   1.421   3.794   5.274 -1.3702 -0.0668  2.4620
14153TIP3   OH263873   3.184   0.037  15.519  0.7211 -0.1450 -0.1266
14153TIP3    H163874   3.172  -0.050  15.557 -1.2402  0.6811  1.3640
14153TIP3    H263875   3.104   0.052  15.469  1.4096  0.4867 -1.0603
14154TIP3   OH263876   4.421   1.271  15.463 -0.4663  0.0633  0.0136
14154TIP3    H163877   4.417   1.209  15.536 -0.6277 -0.3768 -0.3683
14154TIP3    H263878   4.512   1.268  15.434  0.0282  1.4849  1.2567
14155TIP3   OH263879   2.772   5.632  13.556 -0.4082 -0.2578  0.0424
14155TIP3    H163880   2.803   5.678  13.634 -1.1667  0.8979 -0.3115
14155TIP3    H263881   2.677   5.626  13.567 -0.6715  0.8593 -1.2291
14156TIP3   OH263882   1.457   2.775  15.548  0.0773 -0.0281  0.5197
14156TIP3    H163883   1.420   2.709  15.490  1.3910  0.3448 -0.8100
14156TIP3    H263884   1.444   2.740  15.636 -0.3019 -1.4901 -0.0967
14157TIP3   OH263885   5.201   2.971   0.808 -0.4176  0.0613 -0.2424
14157TIP3    H163886   5.123   2.915   0.807 -0.5955  0.2966 -1.5642
14157TIP3    H263887   5.185   3.037   0.740  1.1659 -0.2310 -0.9578
14158TIP3   OH263888   5.545   3.059  15.659  0.0721  0.2187 -0.4036
14158TIP3    H163889   5.602   3.089  15.731  0.3907  1.0090 -0.9684
14158TIP3    H263890   5.476   3.125  15.655  0.4264  0.5458 -1.2543
14159TIP3   OH263891   5.356   1.408  11.287  0.0216 -0.4152  0.9572
14159TIP3    H163892   5.296   1.466  11.334 -1.2686 -0.4640 -0.5288
14159TIP3    H263893   5.434   1.404  11.342 -0.2938  1.8030  1.6699
14160TIP3   OH263894   3.232   5.692  16.347 -0.3351 -0.2076  0.0065
14160TIP3    H163895   3.149   5.668  16.387 -0.2421  0.2839  0.4962
14160TIP3    H263896   3.208   5.720  16.258 -0.3398 -3.1491 -1.0518
14161TIP3   OH263897   5.521   4.926  11.025 -0.1872 -0.2212 -0.4323
14161TIP3    H163898   5.615   4.942  11.026 -0.4157  1.4030 -1.1387
14161TIP3    H263899   5.502   4.897  10.936 -0.3818 -0.3982 -0.3358
14162TIP3   OH263900   5.409   3.780  16.477  0.2620 -0.0051 -0.1321
14162TIP3    H163901   5.341   3.737  16.529  1.3171 -1.4955  0.0959
14162TIP3    H263902   5.399   3.873  16.497  0.4408 -0.4788  2.5759
14163TIP3   OH263903   1.957   5.227  11.666  0.0548 -0.5254  0.4357
14163TIP3    H163904   2.041   5.270  11.648  0.6426 -1.7725  0.0555
14163TIP3    H263905   1.902   5.250  11.591  0.9983 -1.9387 -0.7676
14164TIP3   OH263906   3.693   1.871   1.164  0.1402  0.2163 -0.2040
14164TIP3    H163907   3.659   1.960   1.170  0.6472  0.3843  0.2971
14164TIP3    H263908   3.788   1.882   1.168  0.2059 -0.3472 -0.1232
14165TIP3   OH263909   3.014   3.761  12.878  0.3793  0.2446  0.3566
14165TIP3    H163910   3.056   3.797  12.800 -0.7989 -1.2895 -1.0770
14165TIP3    H263911   3.004   3.668  12.859 -0.6484 -0.0327  2.0301
14166TIP3   OH263912   1.362   0.736  11.750 -0.1870 -0.5103 -0.1263
14166TIP3    H163913   1.404   0.804  11.698  0.6742 -1.3744 -0.5897
14166TIP3    H263914   1.370   0.766  11.840 -0.0346  0.1142 -0.3444
14167TIP3   OH263915   0.330   4.559  16.947 -0.9514 -0.0393 -0.3864
14167TIP3    H163916   0.352   4.539  17.038 -1.2180 -2.2085 -0.7322
14167TIP3    H263917   0.408   4.534  16.898 -0.3337  2.2942 -0.6962
14168TIP3   OH263918   3.877   3.774   1.476 -0.3667 -0.0407 -0.4279
14168TIP3    H163919   3.845   3.763   1.386 -1.6287 -0.5158  0.0605
14168TIP3    H263920   3.939   3.701   1.488  1.1258  0.9956 -1.4409
14169TIP3   OH263921   5.641   5.674   3.458  0.2239 -0.2959 -0.2272
14169TIP3    H163922   5.675   5.733   3.391 -0.8488 -0.5106 -0.9751
14169TIP3    H263923   5.554   5.708   3.477 -0.4412 -1.6891 -0.7296
14170TIP3   OH263924   1.648   0.267  11.255  0.1604  0.3207 -0.1546
14170TIP3    H163925   1.698   0.261  11.337  0.9817  1.1072 -0.5809
14170TIP3    H263926   1.637   0.361  11.241 -2.8050  0.2257  0.7027
14171TIP3   OH263927   6.646   4.379  15.324 -0.3882  0.4670 -0.0072
14171TIP3    H163928   6.663   4.319  15.395 -0.6533 -1.6736 -1.6603
14171TIP3    H263929   6.693   4.343  15.249 -0.8025  2.1491 -1.1405
14172TIP3   OH263930   6.682   3.625  15.921  0.4165  0.2303  0.4100
14172TIP3    H163931   6.777   3.629  15.921  0.3804  1.9603 -0.0364
14172TIP3    H263932   6.661   3.532  15.927  2.1446 -0.3679 -1.7849
14173TIP3   OH263933   6.149   3.970  13.033 -0.1928 -0.6128 -0.6543
14173TIP3    H163934   6.144   3.907  13.105  0.0426 -0.8116 -0.8148
14173TIP3    H263935   6.062   4.011  13.032 -1.0626 -2.3781 -1.8826
14174TIP3   OH263936   5.038   6.344   5.838 -0.2253 -0.3397 -0.5556
14174TIP3    H163937   4.962   6.366   5.891  0.2864  0.2374 -0.0399
14174TIP3    H263938   5.097   6.298   5.899  0.4439  0.4837 -0.5660
14175TIP3   OH263939   2.569   6.745   2.854 -0.3249  0.6255 -0.6992
14175TIP3    H163940   2.561   6.804   2.780 -1.1370 -0.1152 -1.2236
14175TIP3    H263941   2.656   6.763   2.890  0.1957  0.8099 -1.9880
14176TIP3   OH263942   5.405   4.741   5.775  0.1161 -0.0508 -0.9986
14176TIP3    H163943   5.361   4.688   5.709  0.0776 -0.2876 -0.7861
14176TIP3    H263944   5.351   4.820   5.783 -0.5871 -0.5758 -0.3521
14177TIP3   OH263945   3.177   1.760   5.002  0.0021  0.3025  0.1118
14177TIP3    H163946   3.125   1.682   4.988  0.4029 -0.0648  0.6372
14177TIP3    H263947   3.119   1.832   4.977 -1.0469 -0.0443  1.4073
14178TIP3   OH263948   4.992   4.101   5.317 -0.0056  0.3472 -0.2908
14178TIP3    H163949   5.072   4.154   5.321 -0.1639  0.5987 -0.4098
14178TIP3    H263950   5.002   4.050   5.237 -0.0272  0.4851 -0.3833
14179TIP3   OH263951   4.268   6.104   3.767  0.5121 -0.0283  0.1043
14179TIP3    H163952   4.307   6.021   3.796 -0.9703 -0.8425 -0.1346
14179TIP3    H263953   4.175   6.095   3.787  0.4572  2.0235  1.0234
14180TIP3   OH263954   3.009   1.076  11.242 -0.3461 -0.0366 -0.5768
14180TIP3    H163955   3.071   1.003  11.237 -1.5735 -1.0067 -2.8023
14180TIP3    H263956   3.052   1.147  11.194 -0.7150 -0.5298 -1.6482
14181TIP3   OH263957   1.197   0.390  17.277 -0.4673 -0.1861 -0.0098
14181TIP3    H163958   1.280   0.351  17.251 -0.4743  0.9609 -2.0005
14181TIP3    H263959   1.161   0.426  17.196 -1.8278  1.3196  1.1850
14182TIP3   OH263960   5.164   3.894  15.152  0.3912 -0.2361 -0.2862
14182TIP3    H163961   5.096   3.957  15.129 -0.5567 -0.2164  2.3076
14182TIP3    H263962   5.119   3.831  15.208  0.9728 -4.0094 -3.5811
14183TIP3   OH263963   5.114   3.943   4.552 -0.1187  0.1243  1.0961
14183TIP3    H163964   5.026   3.961   4.518 -0.5898 -2.4680  0.7265
14183TIP3    H263965   5.165   4.021   4.530 -1.5577  0.4423 -1.4406
14184TIP3   OH263966   4.868   0.267   5.917 -0.3370 -0.3527  0.4400
14184TIP3    H163967   4.867   0.303   5.828  0.6925 -0.0805  0.5300
14184TIP3    H263968   4.915   0.185   5.909  0.7791  0.2310  0.9313
14185TIP3   OH263969   0.300   1.882   6.176 -0.6374 -0.0133 -0.3726
14185TIP3    H163970   0.387   1.920   6.189 -0.0225 -0.9974 -1.4971
14185TIP3    H263971   0.311   1.821   6.104 -2.3635  0.1224 -0.7795
14186TIP3   OH263972   6.169   4.303   6.349 -0.4922  0.0892  0.1438
14186TIP3    H163973   6.095   4.308   6.289  1.2890  0.1406 -2.2282
14186TIP3    H263974   6.188   4.394   6.371 -0.2025  0.2092 -0.5538
14187TIP3   OH263975   0.159   6.281   6.449  0.0632 -0.0862 -0.5250
14187TIP3    H163976   0.139   6.319   6.535  1.9933  0.0304 -0.0788
14187TIP3    H263977   0.085   6.224   6.430 -1.1498  1.0901  0.4902
14188TIP3   OH263978   5.965   5.591   0.106  0.1003  0.5100 -0.3325
14188TIP3    H163979   5.948   5.506   0.145 -0.6687 -0.7291 -3.0864
14188TIP3    H263980   5.878   5.631   0.098  0.2872  0.9108 -0.4065
14189TIP3   OH263981   2.869   0.264   1.429 -0.5490  0.1081 -0.0353
14189TIP3    H163982   2.962   0.271   1.410 -0.5764  0.0332 -0.2028
14189TIP3    H263983   2.845   0.176   1.399 -0.7845  0.3209 -0.4793
14190TIP3   OH263984   2.578   2.425  13.726  0.0934 -0.3158  0.1399
14190TIP3    H163985   2.616   2.337  13.718 -1.4589 -1.1289  1.2238
14190TIP3    H263986   2.650   2.479  13.757  0.6832 -1.5524  0.9926
14191TIP3   OH263987   4.844   5.508  16.336  0.1458 -0.3415 -0.1679
14191TIP3    H163988   4.903   5.539  16.405 -0.2708 -1.7246  0.8691
14191TIP3    H263989   4.839   5.580  16.274 -1.1644  1.8835  2.3126
14192TIP3   OH263990   6.477   3.771   1.521 -0.1880  0.3292 -0.4553
14192TIP3    H163991   6.494   3.806   1.434 -0.5858  0.0797 -0.6333
14192TIP3    H263992   6.446   3.846   1.572 -0.0593  0.4516 -0.5564
14193TIP3   OH263993   4.101   3.438   6.643  0.8181  0.5075 -0.5914
14193TIP3    H163994   4.124   3.347   6.624 -0.8245  0.3358 -2.0501
14193TIP3    H263995   4.185   3.481   6.662  1.8011 -0.9692 -1.4068
14194TIP3   OH263996   4.335   2.409   1.767  0.1262  0.0704 -0.4612
14194TIP3    H163997   4.303   2.499   1.766  0.5781  0.2972  1.2305
14194TIP3    H263998   4.381   2.398   1.684 -1.6996  0.6968 -1.6065
14195TIP3   OH263999   1.506   2.370   2.942 -0.2187 -0.2982  0.4859
14195TIP3    H164000   1.554   2.448   2.968  1.3665 -0.7919 -0.8042
14195TIP3    H264001   1.429   2.403   2.895 -0.0991  0.4806  0.8196
14196TIP3   OH264002   1.277   4.071  17.329  0.1233  0.1468 -0.0468
14196TIP3    H164003   1.293   4.078  17.423  0.9133  0.1955 -0.1751
14196TIP3    H264004   1.341   4.130  17.290 -0.9812  1.0361 -0.5626
14197TIP3   OH264005   4.312   1.794  14.547  0.1273 -0.1076 -0.0557
14197TIP3    H164006   4.258   1.843  14.609  0.4313  1.1616 -0.7454
14197TIP3    H264007   4.395   1.842  14.546  1.1745 -1.8252  0.7355
14198TIP3   OH264008   0.198   2.012  10.488  0.2998  0.1174  0.3844
14198TIP3    H164009   0.161   1.928  10.514  1.9260 -0.9399 -0.4926
14198TIP3    H264010   0.262   1.989  10.420  0.8670  2.0601  0.2147
14199TIP3   OH264011   1.974   6.195  11.060  0.1482  0.6640  0.0726
14199TIP3    H164012   2.012   6.135  10.996  0.3749  1.3934 -0.4795
14199TIP3    H264013   1.884   6.208  11.030  0.5383  1.7813 -0.6808
14200TIP3   OH264014   2.942   6.370   2.658  0.2168  0.6837 -0.3160
14200TIP3    H164015   2.970   6.281   2.681  1.3773  0.8008 -1.1791
14200TIP3    H264016   3.002   6.396   2.588 -1.5118  1.3201 -1.6323
14201TIP3   OH264017   2.100   3.354   3.982 -0.1898  0.4213 -0.3060
14201TIP3    H164018   2.174   3.412   3.967  0.8568 -0.2661  1.8477
14201TIP3    H264019   2.090   3.307   3.899  0.5986  1.7947 -1.2274
14202TIP3   OH264020   3.964   2.820   4.032  0.5559 -0.1851 -0.0110
14202TIP3    H164021   4.006   2.905   4.036  1.8060 -0.8141  1.0133
14202TIP3    H264022   4.036   2.757   4.042 -0.5891 -1.3026  1.7852
14203TIP3   OH264023   1.064   5.665  11.140 -0.5537  0.5252  0.2593
14203TIP3    H164024   1.111   5.602  11.086 -1.6411 -0.6512  0.6388
14203TIP3    H264025   1.132   5.713  11.187  0.2968 -0.2472 -0.1710
14204TIP3   OH264026   4.719   2.820   1.036 -0.7170  0.2846 -0.4833
14204TIP3    H164027   4.636   2.791   0.999 -0.8124  0.1664 -0.1854
14204TIP3    H264028   4.696   2.893   1.093 -0.3824  1.4723 -1.8269
14205TIP3   OH264029   6.744   4.719   4.556  0.0404  0.0552 -0.3319
14205TIP3    H164030   6.722   4.651   4.492  0.2362 -0.4716  0.1530
14205TIP3    H264031   6.662   4.767   4.568 -0.3447 -0.6585 -0.0188
14206TIP3   OH264032   6.701   6.175  11.247 -0.0080 -0.0840 -0.1299
14206TIP3    H164033   6.612   6.168  11.281 -0.6347  1.7845 -1.2668
14206TIP3    H264034   6.703   6.116  11.171  0.4121 -1.7332  1.0963
14207TIP3   OH264035   2.958   5.604  14.337  0.6235  0.5927 -0.5263
14207TIP3    H164036   2.914   5.625  14.255 -0.7564 -1.2425 -0.3264
14207TIP3    H264037   2.906   5.533  14.375  2.2942  0.1110  1.0397
14208TIP3   OH264038   5.362   5.558  12.579  0.1487 -1.4880 -0.1237
14208TIP3    H164039   5.312   5.621  12.630  1.2234 -1.0668  0.4555
14208TIP3    H264040   5.407   5.504  12.645  1.7138 -0.8069 -0.5961
14209TIP3   OH264041   6.575   2.987  11.881  0.1693 -0.0299  0.7677
14209TIP3    H164042   6.589   2.992  11.976  0.1932  1.5706  0.7038
14209TIP3    H264043   6.523   3.065  11.861 -1.8013 -1.5173 -0.2200
14210TIP3   OH264044   2.820   3.701   2.044 -0.2712  0.3817 -0.6329
14210TIP3    H164045   2.744   3.653   2.013  0.1082 -0.2437 -0.6059
14210TIP3    H264046   2.805   3.791   2.014  0.2388 -0.2489 -2.9535
14211TIP3   OH264047   5.718   1.479  15.544 -0.9837 -0.3142  0.4280
14211TIP3    H164048   5.726   1.565  15.584  1.7607 -0.3464  0.2025
14211TIP3    H264049   5.793   1.430  15.580 -0.0756 -1.2541 -2.4864
14212TIP3   OH264050   4.019   5.960   6.372  0.8145 -0.1353 -0.0721
14212TIP3    H164051   3.953   5.999   6.314  0.8090  0.3856  0.2794
14212TIP3    H264052   4.102   5.994   6.339  0.6570  2.5118  1.9228
14213TIP3   OH264053   4.671   5.087  11.203  0.6421  0.2110  0.0164
14213TIP3    H164054   4.659   4.993  11.214 -1.7024  0.4417 -0.0603
14213TIP3    H264055   4.765   5.101  11.213  0.8093 -1.8559  2.1349
14214TIP3   OH264056   3.316   0.569   5.464  0.0494  0.5211 -0.5231
14214TIP3    H164057   3.360   0.531   5.388  1.3113  1.5952 -0.3790
14214TIP3    H264058   3.327   0.664   5.453  1.7057  0.6906  1.7639
14215TIP3   OH264059   1.268   2.193   4.836 -0.2382  0.2524 -0.0477
14215TIP3    H164060   1.302   2.112   4.874 -1.9998 -0.6239 -0.2368
14215TIP3    H264061   1.207   2.227   4.902 -1.1056  0.2754 -0.8380
14216TIP3   OH264062   4.994   1.661   4.395 -0.0041  0.4418  0.0018
14216TIP3    H164063   5.004   1.620   4.309  0.6792  0.3129  0.1415
14216TIP3    H264064   4.900   1.655   4.413 -0.2752  1.1252 -1.0578
14217TIP3   OH264065   2.400   3.873   2.224 -0.0370  0.0358 -0.3835
14217TIP3    H164066   2.447   3.955   2.229  1.0416 -0.5578 -0.5155
14217TIP3    H264067   2.446   3.815   2.285 -1.6772 -0.0559  0.8569
14218TIP3   OH264068   0.745   2.515   5.106 -0.8291  0.1431  0.2371
14218TIP3    H164069   0.810   2.540   5.172  0.8010 -0.2852 -1.1354
14218TIP3    H264070   0.684   2.459   5.152  1.0205 -1.2559  1.1383
14219TIP3   OH264071   2.501   2.890   5.535  0.3375  1.2637 -0.1838
14219TIP3    H164072   2.567   2.956   5.513  2.2375  0.2092  1.9584
14219TIP3    H264073   2.447   2.931   5.602 -1.0425  1.9883 -1.6680
14220TIP3   OH264074   6.450   3.380  16.375  0.1246  0.1724 -0.3186
14220TIP3    H164075   6.418   3.468  16.397 -2.0118 -0.5715 -0.2349
14220TIP3    H264076   6.372   3.332  16.348  1.2242 -1.7468 -0.2613
14221TIP3   OH264077   3.615   3.906  10.905  0.0922 -0.0428  0.0771
14221TIP3    H164078   3.630   3.953  10.823  0.9377 -1.3000 -0.5121
14221TIP3    H264079   3.530   3.864  10.894  1.3129 -2.3344 -1.2531
14222TIP3   OH264080   2.191   3.549  15.620  0.0788  0.3262  0.4240
14222TIP3    H164081   2.276   3.532  15.580  0.4717 -0.0745  1.3791
14222TIP3    H264082   2.159   3.628  15.578  0.1991 -0.3959 -1.0781
14223TIP3   OH264083   3.844   5.548  13.857 -0.3276 -0.6908  0.3916
14223TIP3    H164084   3.883   5.494  13.788 -1.9163 -2.7143  0.9699
14223TIP3    H264085   3.764   5.582  13.818  0.4049  0.8703  0.2098
14224TIP3   OH264086   6.132   6.735   5.832  0.4015 -0.6491  0.0859
14224TIP3    H164087   6.100   6.672   5.898 -0.4649  0.7237  1.0290
14224TIP3    H264088   6.076   6.812   5.844 -0.2126 -0.5736 -2.7154
14225TIP3   OH264089   3.069   4.853  11.802 -0.1756 -0.7197 -0.3532
14225TIP3    H164090   3.049   4.934  11.849  1.6011  1.1037 -2.5374
14225TIP3    H264091   2.991   4.799  11.815 -1.6332  1.4816  0.8232
14226TIP3   OH264092   6.680   0.391   2.250  0.8429 -0.8560 -0.4198
14226TIP3    H164093   6.626   0.419   2.176  2.6078  1.9850 -0.7682
14226TIP3    H264094   6.728   0.315   2.216  1.6207  0.3767 -2.2804
14227TIP3   OH264095   0.350   5.605   1.981 -0.1559  0.1950  0.1039
14227TIP3    H164096   0.433   5.602   2.029 -0.3501 -0.1716  0.4157
14227TIP3    H264097   0.366   5.669   1.911  0.6197 -0.3751 -0.2616
14228TIP3   OH264098   0.960   1.744   3.324 -0.1333 -0.7296 -0.0590
14228TIP3    H164099   0.962   1.761   3.230 -0.6986 -1.6759 -0.2577
14228TIP3    H264100   0.896   1.806   3.359 -0.8583 -1.2160 -0.4948
14229TIP3   OH264101   0.660   0.461   5.897  0.4481 -0.7653  0.1066
14229TIP3    H164102   0.755   0.458   5.895  0.4600 -0.1696 -0.2304
14229TIP3    H264103   0.635   0.394   5.962  1.0291 -1.9364 -0.8442
14230TIP3   OH264104   1.727   4.021   3.079  0.4809 -0.2010  0.1242
14230TIP3    H164105   1.700   4.058   3.163  0.1213  0.2054 -0.1669
14230TIP3    H264106   1.690   4.080   3.014  1.4912 -0.0212 -0.3060
14231TIP3   OH264107   1.335   1.761  15.785 -0.0255 -0.1541  0.6025
14231TIP3    H164108   1.322   1.792  15.695 -0.4271  2.1122  1.3875
14231TIP3    H264109   1.353   1.667  15.775  0.3980  0.1141 -1.8598
14232TIP3   OH264110   4.998   3.226   1.898 -0.1546 -0.6301  0.2125
14232TIP3    H164111   5.092   3.235   1.914 -0.2677  0.7561  0.2316
14232TIP3    H264112   4.966   3.174   1.972  0.3525  0.3056  1.1108
14233TIP3   OH264113   0.042   0.629  14.485 -0.0185 -0.3952  0.2268
14233TIP3    H164114   0.066   0.722  14.493  1.3725 -0.6620 -0.6012
14233TIP3    H264115  -0.047   0.631  14.450 -0.0173  0.6243  0.2333
14234TIP3   OH264116   5.163   5.736   1.204 -0.1906 -0.3405  0.3013
14234TIP3    H164117   5.108   5.815   1.208 -0.9790 -0.9016  0.6682
14234TIP3    H264118   5.135   5.684   1.279  2.8727  0.6619  2.2971
14235TIP3   OH264119   6.543   2.258  10.512  0.0936 -0.2734 -0.3174
14235TIP3    H164120   6.537   2.352  10.531 -0.0670 -0.5308  0.9669
14235TIP3    H264121   6.637   2.242  10.502  0.2221 -0.1985  0.7035
14236TIP3   OH264122   4.551   6.095   3.634 -0.6972  0.2724 -0.1145
14236TIP3    H164123   4.470   6.138   3.608 -0.7165  0.4599  0.2402
14236TIP3    H264124   4.551   6.102   3.730 -0.9095 -0.8871 -0.0104
14237TIP3   OH264125   5.881   3.266  16.984 -0.4666  0.1386  0.5243
14237TIP3    H164126   5.973   3.263  16.960 -0.3421 -1.5181  1.0662
14237TIP3    H264127   5.844   3.336  16.931  0.3620 -1.4837 -2.4079
14238TIP3   OH264128   3.602   5.764   2.895  0.7092 -0.4756 -0.9081
14238TIP3    H164129   3.682   5.753   2.843 -0.1798 -4.2844 -1.8168
14238TIP3    H264130   3.533   5.772   2.829 -0.0332 -1.4717 -0.2731
14239TIP3   OH264131   5.487   5.465  13.914  0.3026  0.3254 -0.3628
14239TIP3    H164132   5.514   5.393  13.858  1.6908  1.9884 -1.9514
14239TIP3    H264133   5.411   5.503  13.870 -0.9272 -0.5776  0.8825
14240TIP3   OH264134   6.018   1.685  16.906 -0.1798 -0.4122 -0.0649
14240TIP3    H164135   5.996   1.601  16.946 -0.2584 -1.2357 -1.7447
14240TIP3    H264136   5.942   1.740  16.922  0.0676 -0.4725  1.4751
14241TIP3   OH264137   0.444   2.873   6.163  0.0445  0.5043 -0.0745
14241TIP3    H164138   0.486   2.938   6.220 -0.7515  1.5078 -0.5816
14241TIP3    H264139   0.399   2.926   6.097 -1.9597 -0.5072  0.4195
14242TIP3   OH264140   1.750   1.726   6.080 -0.0191 -0.2886  0.3944
14242TIP3    H164141   1.713   1.809   6.110 -0.7652 -0.6112  0.3973
14242TIP3    H264142   1.784   1.685   6.160 -0.4722 -0.3918  0.5352
14243TIP3   OH264143   4.246   4.477  11.950 -0.1121  0.0759  0.0894
14243TIP3    H164144   4.301   4.400  11.934  1.8929  1.2986  0.7344
14243TIP3    H264145   4.242   4.484  12.045 -3.2146 -1.1532  0.1723
14244TIP3   OH264146   5.627   0.610  13.466  0.4235  0.0606 -0.0816
14244TIP3    H164147   5.601   0.691  13.508  0.4955 -0.0424  0.1641
14244TIP3    H264148   5.631   0.631  13.373  1.7873  0.7102  0.0994
14245TIP3   OH264149   6.532   4.903  16.040  0.1009  0.0390  0.1292
14245TIP3    H164150   6.566   4.820  16.005 -0.1749  0.1710 -0.4562
14245TIP3    H264151   6.592   4.969  16.005  0.0114  0.1378  0.1647
14246TIP3   OH264152   1.455   6.545   3.667 -0.0676  0.0640  0.3803
14246TIP3    H164153   1.456   6.495   3.748 -0.6682  0.8382  0.8761
14246TIP3    H264154   1.540   6.589   3.664 -0.7998  1.6691  1.6500
14247TIP3   OH264155   4.612   2.403  13.849  0.1024  0.3267 -0.1297
14247TIP3    H164156   4.674   2.347  13.802 -0.4343  0.4643 -1.0180
14247TIP3    H264157   4.610   2.484  13.798  0.6435  1.0577  0.9802
14248TIP3   OH264158   3.498   3.458   1.268  0.2009 -0.4219 -0.4817
14248TIP3    H164159   3.444   3.462   1.347  0.1892 -1.3111 -0.4398
14248TIP3    H264160   3.585   3.485   1.298 -0.1462  0.7738 -0.5012
14249TIP3   OH264161   0.564   1.265   1.538 -0.0307  0.1981 -0.3415
14249TIP3    H164162   0.471   1.282   1.553 -0.0531  0.6569 -0.9620
14249TIP3    H264163   0.606   1.291   1.620 -0.2780  1.5015 -0.6001
14250TIP3   OH264164   6.739   2.220  11.672  0.6009 -0.4794  0.5278
14250TIP3    H164165   6.757   2.133  11.708  0.0631 -0.5907  0.5277
14250TIP3    H264166   6.644   2.228  11.674  0.5841 -0.2917 -0.4155
14251TIP3   OH264167   3.987   4.579   1.719  0.4914  0.0510 -0.1507
14251TIP3    H164168   3.967   4.646   1.785  0.6250 -1.5164  1.5535
14251TIP3    H264169   3.901   4.548   1.690  0.4386  0.1971 -0.1538
14252TIP3   OH264170   1.554   0.905  15.422  0.1021 -0.0988  0.2805
14252TIP3    H164171   1.505   0.926  15.502 -0.3201 -2.5737  0.7598
14252TIP3    H264172   1.646   0.917  15.447 -0.0588 -0.0895  0.8954
14253TIP3   OH264173   2.581   4.143  11.381 -0.0574 -0.8343  0.4093
14253TIP3    H164174   2.618   4.055  11.371 -0.5008 -1.2274  1.8726
14253TIP3    H264175   2.569   4.153  11.475  1.0922  1.2935  0.3924
14254TIP3   OH264176   5.355   1.090   2.931 -0.4776 -0.1932 -0.0040
14254TIP3    H164177   5.381   1.096   2.839 -0.6140 -0.5989 -0.0711
14254TIP3    H264178   5.289   1.021   2.933  0.7830 -1.4129  0.6794
14255TIP3   OH264179   2.175   5.367   4.927  0.1061 -0.1481 -0.0250
14255TIP3    H164180   2.099   5.415   4.894 -0.2857  0.2774  1.4159
14255TIP3    H264181   2.138   5.303   4.989  1.0304  2.1056  3.1120
14256TIP3   OH264182   0.970   1.366   4.242 -0.5070 -0.0524 -0.1406
14256TIP3    H164183   0.928   1.280   4.241 -2.2335  0.7293  1.0015
14256TIP3    H264184   0.898   1.429   4.238  0.6697  1.3511 -0.1739
14257TIP3   OH264185   0.248   6.267  16.379 -0.2065  0.7757 -0.1092
14257TIP3    H164186   0.195   6.345  16.365 -0.7669  0.5488  0.6504
14257TIP3    H264187   0.250   6.256  16.474  1.9225  1.2537 -0.0436
14258TIP3   OH264188   4.406   2.433  10.812  0.5414 -0.5384  0.1274
14258TIP3    H164189   4.364   2.515  10.786  0.9280  0.1426  1.4949
14258TIP3    H264190   4.334   2.370  10.819  0.4110 -0.7526 -2.3370
14259TIP3   OH264191   3.693   4.807  13.668 -0.3423 -0.1494 -0.4229
14259TIP3    H164192   3.751   4.831  13.740 -0.8290  0.3921 -0.1958
14259TIP3    H264193   3.723   4.721  13.640 -0.4229 -0.5713  0.7338
14260TIP3   OH264194   6.567   4.486  14.056 -0.2202 -0.2751 -0.0736
14260TIP3    H164195   6.480   4.476  14.096 -0.1110  0.0999  0.2625
14260TIP3    H264196   6.595   4.574  14.082  0.0465 -0.2044 -0.5981
14261TIP3   OH264197   6.451   6.184   1.876  0.0204  0.1609  0.1484
14261TIP3    H164198   6.450   6.229   1.960 -0.6502  0.7091 -0.1411
14261TIP3    H264199   6.496   6.245   1.817  0.3389 -0.1472  0.0727
14262TIP3   OH264200   3.349   3.717  14.812 -0.1232  1.0652  0.4708
14262TIP3    H164201   3.370   3.721  14.719 -0.1636  0.7482  0.4445
14262TIP3    H264202   3.256   3.693  14.815 -0.4676  2.3659  0.5853
14263TIP3   OH264203   4.268   1.537  11.277  0.0518  0.1557  0.1068
14263TIP3    H164204   4.341   1.573  11.227 -0.0076  1.6199  1.0143
14263TIP3    H264205   4.206   1.506  11.211  1.6148 -1.4631 -0.6862
14264TIP3   OH264206   0.542   6.553  17.330 -0.1193  0.7213  0.1337
14264TIP3    H164207   0.461   6.509  17.356 -0.3580  0.2269 -1.3581
14264TIP3    H264208   0.517   6.646  17.324 -0.3287  0.6970  0.5782
14265TIP3   OH264209   3.862   4.152  13.504  0.2786 -0.6205 -0.8556
14265TIP3    H164210   3.891   4.233  13.463  0.7425 -0.6164 -0.5289
14265TIP3    H264211   3.788   4.178  13.560  1.2144 -0.1939  0.2238
14266TIP3   OH264212   0.993   4.421   4.509 -0.7192 -0.0090 -0.3161
14266TIP3    H164213   1.018   4.351   4.569  0.3466  0.3341 -0.3356
14266TIP3    H264214   0.956   4.489   4.566 -1.7219 -0.5502 -0.2941
14267TIP3   OH264215   4.496   6.248  13.302  0.1835 -0.5072 -0.3297
14267TIP3    H164216   4.466   6.328  13.346 -0.8004 -1.0086 -0.0444
14267TIP3    H264217   4.470   6.178  13.361 -1.0840 -1.2002 -1.6432
14268TIP3   OH264218   3.093   1.832   4.693 -0.1986 -0.3286  0.2027
14268TIP3    H164219   3.164   1.889   4.662  1.8533 -2.2336  1.0817
14268TIP3    H264220   3.053   1.799   4.613 -0.2897  0.9530 -0.3194
14269TIP3   OH264221   5.525   6.205   1.663  0.4700  0.1900  0.7176
14269TIP3    H164222   5.620   6.210   1.668  0.4121  0.8930  1.2742
14269TIP3    H264223   5.498   6.177   1.751  0.1923 -0.6125  0.3883
14270TIP3   OH264224   3.388   3.348   5.245  0.9712  0.5885  0.2445
14270TIP3    H164225   3.293   3.342   5.256  1.0525 -0.7368  0.3739
14270TIP3    H264226   3.404   3.440   5.223 -0.1796  1.1878  1.7485
14271TIP3   OH264227   1.613   0.949  13.695  0.0162  0.4661  0.0521
14271TIP3    H164228   1.521   0.939  13.718 -1.1302 -1.2464 -4.2673
14271TIP3    H264229   1.652   0.863  13.710  0.8164  1.0119  1.2707
14272TIP3   OH264230   1.612   3.349   6.024  0.3549 -0.3339 -0.5643
14272TIP3    H164231   1.566   3.433   6.035 -0.3747 -1.0182  2.6758
14272TIP3    H264232   1.605   3.330   5.931  1.0959  3.4656 -1.5555
14273TIP3   OH264233   5.178   5.040  12.010  0.7533 -0.0425  0.0173
14273TIP3    H164234   5.142   4.962  11.968 -0.1077  0.0410  0.5636
14273TIP3    H264235   5.103   5.099  12.017  0.3500 -0.7506  3.2770
14274TIP3   OH264236   3.190   2.469  12.640 -0.2671 -0.2638 -0.5321
14274TIP3    H164237   3.107   2.494  12.679 -0.5489 -0.3102 -1.0880
14274TIP3    H264238   3.177   2.379  12.610  0.5004 -0.8353  0.7857
14275TIP3   OH264239   4.621   2.625   3.201 -0.3925  0.5533 -0.8405
14275TIP3    H164240   4.705   2.591   3.169 -0.4800  0.1831 -0.6788
14275TIP3    H264241   4.645   2.689   3.267 -0.2355 -1.5080  1.2450
14276TIP3   OH264242   6.082   0.533  14.405  0.0324  0.1550 -0.6951
14276TIP3    H164243   6.128   0.552  14.487  0.6950 -1.5858 -0.6146
14276TIP3    H264244   6.103   0.606  14.347 -1.1468  1.8724  0.9387
14277TIP3   OH264245   5.261   4.928   0.173 -0.2242 -0.1029 -0.3631
14277TIP3    H164246   5.208   4.861   0.216  1.7413 -0.5433  1.5579
14277TIP3    H264247   5.335   4.879   0.136  0.5856  0.8572 -0.0407
14278TIP3   OH264248   6.031   2.489  16.631 -0.1215 -0.3731 -0.5430
14278TIP3    H164249   6.009   2.447  16.714 -1.9064  0.0205 -0.7799
14278TIP3    H264250   5.960   2.464  16.572  0.5595  0.2246 -1.6554
14279TIP3   OH264251   4.515   4.805  13.724  0.1722  0.6134 -0.8172
14279TIP3    H164252   4.507   4.797  13.819  0.6298  1.4924 -0.6909
14279TIP3    H264253   4.440   4.859  13.698 -0.7833 -0.8105 -1.1676
14280TIP3   OH264254   3.642   6.258  11.978 -0.6993  0.1762  0.3792
14280TIP3    H164255   3.581   6.270  12.050  1.0655 -0.0020  1.9924
14280TIP3    H264256   3.661   6.164  11.977 -0.9746  0.1180 -0.5709
14281TIP3   OH264257   3.770   0.339   0.229 -0.4993 -0.1116 -0.5987
14281TIP3    H164258   3.850   0.379   0.262 -0.8863  1.6977 -1.7372
14281TIP3    H264259   3.782   0.337   0.134 -1.7296  0.0441 -0.7664
14282TIP3   OH264260   4.023   3.146   5.936  0.0486 -0.5773 -0.4503
14282TIP3    H164261   4.044   3.075   5.997 -0.5769 -0.8207 -0.5110
14282TIP3    H264262   3.956   3.197   5.980  2.1485  1.4220  0.6282
14283TIP3   OH264263   6.045   6.671  15.287 -0.7388  0.3989  0.1508
14283TIP3    H164264   5.987   6.691  15.214 -1.0602 -0.0591  0.2738
14283TIP3    H264265   6.068   6.756  15.325 -1.7505  0.5517  0.4273
14284TIP3   OH264266   5.088   4.750  12.132 -0.1842  0.0515 -0.0088
14284TIP3    H164267   5.013   4.788  12.085 -0.3363 -0.5720 -0.2958
14284TIP3    H264268   5.055   4.733  12.220 -0.5261 -0.6144 -0.2550
14285TIP3   OH264269   1.510   6.369   0.253 -0.1137 -0.1426 -0.1289
14285TIP3    H164270   1.549   6.363   0.341  0.6837 -1.3987 -0.5341
14285TIP3    H264271   1.417   6.352   0.267  0.1602 -1.3448  0.3768
14286TIP3   OH264272   0.918   2.470  11.863  0.5637 -0.1370 -0.0705
14286TIP3    H164273   0.966   2.480  11.945 -1.6647 -0.2265  1.3138
14286TIP3    H264274   0.881   2.382  11.868 -0.4645  0.2512 -0.6936
14287TIP3   OH264275   2.524   3.435   5.527  0.1583  0.0855 -0.2598
14287TIP3    H164276   2.526   3.492   5.604 -0.2507 -1.0745  0.6410
14287TIP3    H264277   2.559   3.489   5.456  0.2917  1.2677  0.6781
14288TIP3   OH264278   0.669   3.647  14.420  0.4602 -0.0039  0.1417
14288TIP3    H164279   0.732   3.669  14.352 -0.3805 -0.1693 -0.7090
14288TIP3    H264280   0.614   3.579  14.381  0.3870 -0.6036  1.2342
14289TIP3   OH264281   1.684   6.115  15.711  0.2592  0.2477 -0.1814
14289TIP3    H164282   1.662   6.073  15.627  1.7050 -0.8094 -0.0736
14289TIP3    H264283   1.778   6.130  15.706  0.5982 -0.9148  1.7048
14290TIP3   OH264284   4.702   1.976  12.337 -0.4201 -0.3034 -0.0289
14290TIP3    H164285   4.662   1.988  12.423  0.1928 -0.5064  0.2939
14290TIP3    H264286   4.664   1.895  12.303  0.4190 -1.0141  0.6896
14291TIP3   OH264287   6.631   6.695   0.496 -0.3532  0.1399 -0.0086
14291TIP3    H164288   6.655   6.689   0.589  0.0879  1.1441 -0.0364
14291TIP3    H264289   6.706   6.738   0.455 -0.3451 -0.7191 -0.9288
14292TIP3   OH264290   1.243   3.170  16.941 -0.0692  0.2632  0.4178
14292TIP3    H164291   1.190   3.093  16.960 -1.8827  1.6858  1.5263
14292TIP3    H264292   1.234   3.184  16.847 -3.3416  1.4993  0.7766
14293TIP3   OH264293   2.139   2.581  13.165  0.0520  0.4811  0.4709
14293TIP3    H164294   2.181   2.498  13.186 -0.1993  0.6473  1.7005
14293TIP3    H264295   2.084   2.600  13.241  0.2804  1.8927  0.3115
14294TIP3   OH264296   2.684   4.061   1.155  0.5176 -0.0426 -0.2692
14294TIP3    H164297   2.724   4.050   1.241  1.6423  0.1573 -0.7404
14294TIP3    H264298   2.618   3.992   1.150  1.8068 -1.3508 -0.0198
14295TIP3   OH264299   3.447   2.938  12.629  0.5791 -0.2934  0.0288
14295TIP3    H164300   3.384   2.900  12.690 -0.1780 -0.9984 -1.1513
14295TIP3    H264301   3.421   3.029  12.620  0.4347 -0.2950  0.4309
14296TIP3   OH264302   4.280   3.539  13.037  0.2453 -0.1098  0.5063
14296TIP3    H164303   4.228   3.578  13.107 -1.6915  0.5232 -1.1889
14296TIP3    H264304   4.282   3.605  12.968  2.0574 -0.7236 -0.0812
14297TIP3   OH264305   2.477   4.995   0.429 -0.7616  0.6069 -0.4251
14297TIP3    H164306   2.552   5.003   0.369 -0.2694 -0.4242  0.0153
14297TIP3    H264307   2.501   5.049   0.504 -1.8432  2.7442 -1.5596
14298TIP3   OH264308   5.700   3.308   6.395 -0.2212  0.0327 -0.8226
14298TIP3    H164309   5.669   3.220   6.418  0.2322  0.4725  1.8721
14298TIP3    H264310   5.754   3.295   6.317 -1.6901 -1.7532 -1.6223
14299TIP3   OH264311   2.226   2.425  17.346  0.4065  0.0664  0.2130
14299TIP3    H164312   2.136   2.433  17.314  0.4273 -0.1657  0.0941
14299TIP3    H264313   2.279   2.424  17.267  0.6465  1.7383  0.3077
14300TIP3   OH264314   2.783   2.009   5.737  0.4135  0.0237  0.2174
14300TIP3    H164315   2.756   2.095   5.705  0.0863  0.9460  2.7587
14300TIP3    H264316   2.759   2.009   5.830  3.0084 -1.7133  0.9923
14301TIP3   OH264317   2.457   1.411   2.977  0.2658 -1.0108 -0.0853
14301TIP3    H164318   2.465   1.356   3.055 -0.9472 -0.6467  0.3152
14301TIP3    H264319   2.543   1.452   2.968 -0.2787  1.0575  2.7016
14302TIP3   OH264320   1.326   4.243  11.749 -0.2254 -0.0758  0.0504
14302TIP3    H164321   1.291   4.293  11.676 -0.9526  0.1339  0.5303
14302TIP3    H264322   1.266   4.169  11.759  1.0464 -1.2846 -0.8948
14303TIP3   OH264323   5.621   4.924  15.080  0.0711  0.5945  0.1639
14303TIP3    H164324   5.691   4.908  15.018 -0.5478 -2.0222  0.0130
14303TIP3    H264325   5.639   4.865  15.153 -1.7185  0.1146  0.2862
14304TIP3   OH264326   3.826   3.513  12.484 -0.0396 -0.4532  0.7225
14304TIP3    H164327   3.827   3.447  12.554 -1.2439 -1.9898 -0.6365
14304TIP3    H264328   3.735   3.539  12.477  0.3608  1.1057  0.9424
14305TIP3   OH264329   0.962   3.157  10.472 -0.0220 -0.4139 -0.0087
14305TIP3    H164330   1.009   3.114  10.543 -1.5598 -0.4522  1.0219
14305TIP3    H264331   1.031   3.185  10.411  1.2835 -0.8093  1.2401
14306TIP3   OH264332   6.052   4.102   4.236 -0.4492  0.3897  0.0078
14306TIP3    H164333   6.138   4.069   4.262 -0.2135 -0.7207 -2.0107
14306TIP3    H264334   6.071   4.188   4.198  0.1158 -0.6581 -2.2411
14307TIP3   OH264335   4.530   6.714  13.413 -0.0075 -0.2920 -0.3266
14307TIP3    H164336   4.614   6.671  13.433  0.0915  0.0486  0.0088
14307TIP3    H264337   4.554   6.805  13.395 -0.1507 -0.4876 -1.5705
14308TIP3   OH264338   3.928   4.848  17.181 -0.3562  0.3968 -0.2681
14308TIP3    H164339   3.843   4.886  17.204 -0.4075  2.9703 -3.9486
14308TIP3    H264340   3.992   4.914  17.207 -0.1030  1.3772 -3.0501
14309TIP3   OH264341   4.954   1.439   4.721  0.2250  0.8549  0.8098
14309TIP3    H164342   4.916   1.517   4.760  0.6807  1.0318  0.9039
14309TIP3    H264343   5.048   1.448   4.735  0.2337 -0.0007  1.3652
14310TIP3   OH264344   4.511   5.598   0.269  0.1233  0.0696 -0.0535
14310TIP3    H164345   4.432   5.593   0.215  0.0062 -0.2586  0.1460
14310TIP3    H264346   4.576   5.548   0.219  0.5286  1.2593 -0.7576
14311TIP3   OH264347   6.695   5.159   3.397  0.3766 -0.0208  0.3376
14311TIP3    H164348   6.766   5.109   3.357 -0.0199  0.2566 -0.7521
14311TIP3    H264349   6.696   5.243   3.351 -0.4729  0.0921  0.5016
14312TIP3   OH264350   0.732   0.884  11.225 -0.0941  0.4388  0.2901
14312TIP3    H164351   0.778   0.858  11.145  1.2970  2.0088  0.5482
14312TIP3    H264352   0.744   0.978  11.231 -0.4324  0.3999  2.2127
14313TIP3   OH264353   0.224   4.100  11.429  0.1175  0.5210 -0.3975
14313TIP3    H164354   0.319   4.107  11.431  0.4175 -1.7936 -2.2362
14313TIP3    H264355   0.203   4.079  11.338 -1.9196 -1.4827  0.4277
14314TIP3   OH264356   2.486   1.832   3.194  0.4137 -0.1528  0.2616
14314TIP3    H164357   2.417   1.796   3.249  0.5320  0.4668  0.8262
14314TIP3    H264358   2.477   1.927   3.202  0.3906 -0.0386 -0.8421
14315TIP3   OH264359   6.712   4.197   2.614 -0.2347  0.1807  0.3594
14315TIP3    H164360   6.696   4.291   2.607  2.4363  0.6687 -0.3977
14315TIP3    H264361   6.641   4.157   2.565  0.3220  2.0052 -2.1677
14316TIP3   OH264362   4.457   2.882   5.458 -0.0596  0.4468 -0.4876
14316TIP3    H164363   4.546   2.910   5.482  1.1444 -0.1243 -3.7628
14316TIP3    H264364   4.446   2.798   5.503  2.1653 -0.7430 -1.9602
14317TIP3   OH264365   6.431   0.734  13.174  0.0270  0.0504  0.3665
14317TIP3    H164366   6.497   0.745  13.106 -0.1660 -0.0801  0.1554
14317TIP3    H264367   6.479   0.744  13.257  0.4854 -0.8984  0.2328
14318TIP3   OH264368   3.705   5.691  16.576 -0.2227 -0.1302 -0.0935
14318TIP3    H164369   3.761   5.769  16.581  3.4089 -2.4347 -1.3000
14318TIP3    H264370   3.659   5.700  16.493 -0.1225  0.8599 -0.0575
14319TIP3   OH264371   2.084   5.953   6.302  0.4577  0.0434 -0.0444
14319TIP3    H164372   2.088   5.858   6.311  1.8636  0.0604 -0.1315
14319TIP3    H264373   2.067   5.985   6.390  0.5705 -0.2761  0.0977
14320TIP3   OH264374   2.031   3.254   6.266  0.5026 -0.0592  0.0698
14320TIP3    H164375   2.076   3.229   6.346  0.1422  0.8161  0.5549
14320TIP3    H264376   2.073   3.335   6.238  0.7649 -0.4626 -0.7462
14321TIP3   OH264377   3.364   3.106   4.193  0.6235  0.3043 -0.8122
14321TIP3    H164378   3.382   3.045   4.122  1.3457 -0.3346 -0.1034
14321TIP3    H264379   3.443   3.105   4.247 -1.0295 -1.8077  1.8708
14322TIP3   OH264380   0.282   0.501  16.859 -0.0214  0.5602 -0.2575
14322TIP3    H164381   0.247   0.510  16.771 -0.7393 -1.1617 -0.2011
14322TIP3    H264382   0.229   0.432  16.899  1.0421  0.4866  1.1274
14323TIP3   OH264383   3.459   0.444   1.025  0.0515  0.0983 -0.6924
14323TIP3    H164384   3.393   0.504   0.991 -1.2398 -0.8104  0.1060
14323TIP3    H264385   3.533   0.452   0.964 -1.1866  0.3832 -2.2193
14324TIP3   OH264386   0.825   2.517  12.605  0.1238  0.1875  0.0684
14324TIP3    H164387   0.785   2.433  12.582 -0.5511  0.5457 -0.0810
14324TIP3    H264388   0.752   2.573  12.631  0.7042  0.2689  1.6869
14325TIP3   OH264389   1.466   3.456   2.399  0.8751 -0.0161 -0.7240
14325TIP3    H164390   1.396   3.437   2.337  1.8938 -2.1413 -1.3383
14325TIP3    H264391   1.446   3.401   2.475 -0.0268  2.1033  0.6453
14326TIP3   OH264392   6.417   0.414  12.297 -0.4287 -0.4456 -0.6389
14326TIP3    H164393   6.484   0.349  12.317  2.5723  2.3190 -0.7955
14326TIP3    H264394   6.423   0.477  12.369 -1.9217  0.5772 -1.3559
14327TIP3   OH264395   3.159   0.339   0.254  0.7704  0.1804 -0.3816
14327TIP3    H164396   3.145   0.396   0.330  0.1217  0.7044 -0.8747
14327TIP3    H264397   3.129   0.391   0.180 -0.7022 -1.1273 -0.7596
14328TIP3   OH264398   0.561   6.088   3.028 -0.0264  0.1411 -0.6454
14328TIP3    H164399   0.579   6.069   3.120  0.3191  0.9257 -0.5468
14328TIP3    H264400   0.636   6.140   2.998 -0.1622 -0.0480 -1.3528
14329TIP3   OH264401   4.261   3.799  12.266 -0.7273 -0.1028 -0.0350
14329TIP3    H164402   4.254   3.757  12.352 -2.4458  2.9006  1.4929
14329TIP3    H264403   4.346   3.843  12.268 -1.0218  0.4636  0.4251
14330TIP3   OH264404   2.581   4.114  15.585 -0.3023  0.0954  0.3480
14330TIP3    H164405   2.588   4.202  15.622 -2.5895  0.6869 -0.4502
14330TIP3    H264406   2.596   4.055  15.659 -0.1869  1.1728  1.2011
14331TIP3   OH264407   0.575   1.555   1.717  0.6991  0.3514 -0.4306
14331TIP3    H164408   0.500   1.607   1.745  0.7698  0.7154 -0.9103
14331TIP3    H264409   0.597   1.589   1.630  0.3221 -0.9142 -1.0498
14332TIP3   OH264410   3.462   5.176   1.271  0.5406  0.1895 -0.1995
14332TIP3    H164411   3.458   5.082   1.284  2.3139  0.0790 -0.1983
14332TIP3    H264412   3.555   5.198   1.280  0.2518  1.8464 -0.8341
14333TIP3   OH264413   4.786   5.922  16.975 -0.2300  0.1032  0.1429
14333TIP3    H164414   4.770   6.016  16.981  0.6658  0.1951  1.4445
14333TIP3    H264415   4.834   5.901  17.055  0.9603 -1.1844 -0.8794
14334TIP3   OH264416   1.095   6.232   0.545  0.0486 -0.0578 -0.4685
14334TIP3    H164417   1.059   6.260   0.629  1.0041  0.1171 -0.1038
14334TIP3    H264418   1.028   6.175   0.508  0.3320 -1.5530  1.2003
14335TIP3   OH264419   5.928   6.357   4.856  0.1287 -0.0649 -0.3436
14335TIP3    H164420   5.866   6.341   4.928 -0.5475 -1.0741 -1.1179
14335TIP3    H264421   5.960   6.270   4.833  1.0473  0.3495 -0.6497
14336TIP3   OH264422   5.325   6.202  16.081  0.0210  0.1149 -1.5752
14336TIP3    H164423   5.285   6.205  15.994 -1.0893  0.0270 -1.0803
14336TIP3    H264424   5.416   6.175  16.065 -0.4572 -0.9564 -2.6014
14337TIP3   OH264425   4.779   5.692  12.223 -0.4249  0.2812  0.1549
14337TIP3    H164426   4.847   5.756  12.248 -0.8377  0.5979  0.4929
14337TIP3    H264427   4.793   5.619  12.283 -0.9080  0.7052  0.8027
14338TIP3   OH264428   2.520   4.750  13.544 -0.0962 -0.2197  0.3015
14338TIP3    H164429   2.514   4.845  13.555  0.6635 -0.0882 -0.3343
14338TIP3    H264430   2.588   4.723  13.606 -0.2037 -0.3256  0.3719
14339TIP3   OH264431   3.122   5.713   1.295 -0.4756 -0.3135  0.2835
14339TIP3    H164432   3.127   5.625   1.331 -1.8446 -1.2433 -1.5919
14339TIP3    H264433   3.037   5.716   1.251 -0.3487  1.8652  0.0657
14340TIP3   OH264434   3.022   0.582  10.883  0.1102 -0.5361 -0.0202
14340TIP3    H164435   2.953   0.561  10.819  0.5263  0.3141 -0.7780
14340TIP3    H264436   3.022   0.508  10.943  0.2162 -1.7565 -1.4510
14341TIP3   OH264437   1.087   4.151  15.605 -0.1551 -0.9005  0.0397
14341TIP3    H164438   1.121   4.165  15.517  0.1231 -1.6020  0.0302
14341TIP3    H264439   1.006   4.101  15.592 -0.4286 -0.4939  0.1524
14342TIP3   OH264440   3.597   3.643  12.904 -0.7289 -0.5322 -0.5284
14342TIP3    H164441   3.523   3.668  12.849 -0.7450  2.1709  0.5594
14342TIP3    H264442   3.633   3.726  12.934  2.5483 -1.7661 -0.7009
14343TIP3   OH264443   2.792   5.956  16.133 -0.7563 -0.1525 -0.3089
14343TIP3    H164444   2.815   6.017  16.063 -1.8169 -0.5846 -1.0689
14343TIP3    H264445   2.697   5.963  16.141 -1.1873 -2.9864 -1.6919
14344TIP3   OH264446   5.281   3.565  15.507 -0.2438  0.4321 -0.1694
14344TIP3    H164447   5.265   3.655  15.480 -0.6228  0.9064  1.5388
14344TIP3    H264448   5.236   3.556  15.591  1.8310 -0.6065  0.9204
14345TIP3   OH264449   0.185   6.452  11.484  0.6406 -0.1455 -0.4056
14345TIP3    H164450   0.183   6.372  11.537 -0.8880 -0.0516 -0.2863
14345TIP3    H264451   0.167   6.523  11.546  0.6639  0.1585 -0.7385
14346TIP3   OH264452   5.432   1.627   5.908 -0.6231 -0.6910 -0.0196
14346TIP3    H164453   5.381   1.639   5.989 -0.5835 -1.6508  0.1651
14346TIP3    H264454   5.501   1.692   5.913 -1.2998  0.0322  0.1635
14347TIP3   OH264455   3.058   3.621   2.290 -0.0954  0.0599 -0.5349
14347TIP3    H164456   3.056   3.698   2.233 -0.4156  1.1537  0.9194
14347TIP3    H264457   3.098   3.553   2.235  0.6132  1.3597 -1.7047
14348TIP3   OH264458   2.223   5.425  16.420  0.4318 -0.1646  0.0680
14348TIP3    H164459   2.261   5.513  16.413  0.4303 -0.0335  1.4197
14348TIP3    H264460   2.132   5.440  16.443  0.6832 -0.5189  1.3551
14349TIP3   OH264461   1.863   6.167  13.767 -0.0852 -0.5294 -0.7868
14349TIP3    H164462   1.808   6.106  13.816  0.7345  0.7627  1.9615
14349TIP3    H264463   1.808   6.246  13.756  0.6462  0.2005  0.5986
14350TIP3   OH264464   2.115   3.434   2.681 -0.4406  0.1260 -0.0621
14350TIP3    H164465   2.130   3.375   2.755 -0.6302 -0.0684 -0.1775
14350TIP3    H264466   2.080   3.378   2.612  2.0634 -0.1904 -1.1828
14351TIP3   OH264467   3.166   2.936  16.688  0.4226  0.1782  0.3544
14351TIP3    H164468   3.245   2.968  16.645  0.2484 -0.4751 -0.4644
14351TIP3    H264469   3.154   2.995  16.763  1.2159  0.7868  0.0121
14352TIP3   OH264470   6.176   2.280  15.320  0.6797  0.2396 -0.5655
14352TIP3    H164471   6.213   2.368  15.322  0.5076  0.3096 -0.4322
14352TIP3    H264472   6.247   2.225  15.287  0.9176  0.3673 -0.2756
14353TIP3   OH264473   0.720   6.271   2.085  0.4527  0.4873 -0.0566
14353TIP3    H164474   0.795   6.280   2.026 -0.1862  0.2818 -0.9227
14353TIP3    H264475   0.663   6.344   2.062 -0.0999  0.0370 -0.1400
14354TIP3   OH264476   5.787   4.196   2.548  0.1070 -0.6860 -0.5982
14354TIP3    H164477   5.780   4.290   2.533 -3.3524 -0.7009  0.1471
14354TIP3    H264478   5.759   4.156   2.466 -0.2489 -1.0216 -0.3168
14355TIP3   OH264479   5.013   1.399  14.902  0.5262  0.5062  0.4458
14355TIP3    H164480   5.093   1.438  14.938  0.9067 -0.1395  0.3105
14355TIP3    H264481   5.016   1.308  14.930 -0.7569  0.7509  1.4263
14356TIP3   OH264482   2.125   2.149  14.394 -0.2948 -0.6754 -0.6434
14356TIP3    H164483   2.170   2.070  14.422  0.3149  0.4167  1.6479
14356TIP3    H264484   2.094   2.190  14.475  1.1216  2.4383 -1.5213
14357TIP3   OH264485   4.344   6.583  11.792  0.3825  0.0525  0.3799
14357TIP3    H164486   4.389   6.625  11.719  0.8300 -0.1471  0.5328
14357TIP3    H264487   4.257   6.563  11.759  0.5979 -0.0830 -0.1125
14358TIP3   OH264488   2.664   6.595  14.880 -0.5298  0.0815  0.2115
14358TIP3    H164489   2.632   6.517  14.926  0.9294 -1.0340 -0.5851
14358TIP3    H264490   2.758   6.596  14.896 -0.1209  0.2025 -1.9136
14359TIP3   OH264491   1.634   6.675   2.788 -0.2448  0.3276 -0.2243
14359TIP3    H164492   1.633   6.585   2.821 -2.0400  0.4401  0.1070
14359TIP3    H264493   1.542   6.699   2.778  0.1009  2.7325  1.3627
14360TIP3   OH264494   0.942   1.823  14.547  0.3645  0.1372 -0.0817
14360TIP3    H164495   0.916   1.753  14.606 -1.0204  0.4557 -0.2755
14360TIP3    H264496   0.934   1.785  14.459 -0.0120  0.3943 -0.1669
14361TIP3   OH264497   3.761   1.803  13.370  0.0910  0.0228 -0.1844
14361TIP3    H164498   3.790   1.867  13.305 -0.7139  0.4842 -0.0965
14361TIP3    H264499   3.666   1.810  13.371  0.1253  1.8506  2.8400
14362TIP3   OH264500   5.889   4.340   5.548  0.3542 -0.1291  0.6174
14362TIP3    H164501   5.923   4.271   5.605 -0.7244 -0.5577  0.7695
14362TIP3    H264502   5.959   4.356   5.485  0.8210 -0.9979  0.8995
14363TIP3   OH264503   0.563   5.711  15.073  0.0397 -0.5393 -0.6248
14363TIP3    H164504   0.584   5.802  15.056 -1.6201  0.3278  1.5084
14363TIP3    H264505   0.496   5.689  15.009 -0.4962  0.1776 -0.3182
14364TIP3   OH264506   1.350   5.991  16.353  0.4539  0.0398 -0.0233
14364TIP3    H164507   1.414   6.038  16.407  1.2705  0.1732 -1.0669
14364TIP3    H264508   1.400   5.919  16.315 -0.7715 -1.7179  1.5290
14365TIP3   OH264509   6.036   0.775  13.124  0.3632  0.4718 -0.4987
14365TIP3    H164510   6.040   0.749  13.032 -0.0283  0.9151 -0.6428
14365TIP3    H264511   5.988   0.704  13.167 -0.8081  0.9937 -0.9093
14366TIP3   OH264512   3.140   0.799   4.242  0.3727  0.3694 -0.1982
14366TIP3    H164513   3.140   0.807   4.337 -0.5016 -0.9554 -0.0580
14366TIP3    H264514   3.112   0.886   4.210  2.0578  1.2681  0.6595
14367TIP3   OH264515   2.143   4.646   3.341 -0.0701  0.5057  0.2893
14367TIP3    H164516   2.093   4.724   3.320  1.5965  1.8430  0.9967
14367TIP3    H264517   2.078   4.580   3.364 -1.5015  1.7978  0.0626
14368TIP3   OH264518   0.174   2.534  10.781  0.1888 -0.5575  0.6600
14368TIP3    H164519   0.210   2.612  10.823  0.5405 -0.3384 -0.0381
14368TIP3    H264520   0.079   2.548  10.783  0.3030  1.4116 -2.2416
14369TIP3   OH264521   2.487   5.076   2.987 -0.3498  0.5568 -0.0884
14369TIP3    H164522   2.545   5.023   2.932  0.3675  1.9970 -0.7904
14369TIP3    H264523   2.545   5.112   3.055 -0.7615  0.6773  0.2003
14370TIP3   OH264524   0.109   1.719   3.267 -0.4105 -0.1648  0.2982
14370TIP3    H164525   0.110   1.768   3.184  0.7429 -0.7112 -0.0235
14370TIP3    H264526   0.065   1.637   3.245  1.8941 -1.2946 -0.3924
14371TIP3   OH264527   6.536   4.883  15.198 -0.3808 -0.6491  0.4333
14371TIP3    H164528   6.590   4.867  15.275 -0.3221  0.8462  0.7330
14371TIP3    H264529   6.474   4.810  15.197  1.0170 -1.8865  0.6130
14372TIP3   OH264530   3.230   4.555   0.706 -0.2747  0.4408  0.0480
14372TIP3    H164531   3.222   4.497   0.782 -0.5930  0.5707  0.1183
14372TIP3    H264532   3.291   4.511   0.647 -0.1070  0.2911  0.3355
14373TIP3   OH264533   4.659   5.666   3.723 -0.2591 -0.1007 -0.0698
14373TIP3    H164534   4.743   5.635   3.756 -0.2887 -1.6842 -1.3614
14373TIP3    H264535   4.594   5.629   3.783 -0.1318 -0.1514  0.0370
14374TIP3   OH264536   4.451   4.751  11.352 -0.3601 -0.6108  0.1506
14374TIP3    H164537   4.507   4.810  11.402  3.0537 -1.1064 -2.6978
14374TIP3    H264538   4.460   4.666  11.395  1.2916 -0.7080 -0.3302
14375TIP3   OH264539   5.420   2.945   1.367  0.2007 -0.1053 -0.5142
14375TIP3    H164540   5.377   2.882   1.309 -0.4420 -0.0244 -0.1354
14375TIP3    H264541   5.463   2.891   1.433 -0.6061 -0.1529 -0.0113
14376TIP3   OH264542   2.631   0.651  15.667  0.2733 -0.2225  0.2660
14376TIP3    H164543   2.648   0.598  15.589  0.0366 -0.2613  0.2418
14376TIP3    H264544   2.696   0.621  15.731 -1.3460 -2.2088  1.0735
14377TIP3   OH264545   2.190   1.433   0.933 -0.1892 -0.3360 -0.2136
14377TIP3    H164546   2.124   1.441   1.002 -1.5229 -3.4838 -0.9258
14377TIP3    H264547   2.254   1.372   0.969  1.5713  1.4620 -0.1484
14378TIP3   OH264548   3.453   0.907   3.713 -0.5583  0.7908  0.0780
14378TIP3    H164549   3.467   0.893   3.620 -0.4640 -0.9863  0.3386
14378TIP3    H264550   3.531   0.956   3.741 -1.0108  2.1480 -0.9079
14379TIP3   OH264551   2.790   6.008   5.980  0.6614 -0.6247 -0.1358
14379TIP3    H164552   2.756   6.049   6.059 -0.4289 -1.5059 -0.1154
14379TIP3    H264553   2.871   6.055   5.961  0.4693  0.1985  0.9822
14380TIP3   OH264554   6.098   1.886   6.748 -0.2780  0.1004 -0.1710
14380TIP3    H164555   6.179   1.870   6.700 -1.0031 -2.2950 -0.7586
14380TIP3    H264556   6.029   1.864   6.686 -1.3065 -0.4103  1.0986
14381TIP3   OH264557   1.895   2.470  15.114  0.2754  0.0192 -0.4682
14381TIP3    H164558   1.932   2.482  15.201 -0.2575  1.7328 -0.4401
14381TIP3    H264559   1.878   2.559  15.082  3.3633 -0.2884 -3.6317
14382TIP3   OH264560   5.538   0.777  12.358  0.4231 -0.1424  0.0559
14382TIP3    H164561   5.493   0.859  12.339 -0.7445 -0.7167  0.2861
14382TIP3    H264562   5.528   0.724  12.279 -0.1341 -0.6366  0.4523
14383TIP3   OH264563   1.161   2.314   2.231  0.2560  0.5487 -0.6373
14383TIP3    H164564   1.131   2.309   2.140  0.0431  1.4629 -0.6305
14383TIP3    H264565   1.231   2.379   2.229  2.3516 -1.5926 -0.6573
14384TIP3   OH264566   5.584   2.542   1.635  0.2136 -0.0717 -0.0059
14384TIP3    H164567   5.564   2.449   1.640 -2.8329  0.4537 -0.6134
14384TIP3    H264568   5.574   2.574   1.725  0.6294 -0.2048  0.0898
14385TIP3   OH264569   0.153   0.410  14.302 -0.1048 -0.0406  0.0470
14385TIP3    H164570   0.105   0.328  14.316 -2.0875  0.8834 -0.9330
14385TIP3    H264571   0.117   0.471  14.366 -0.4744  0.7649 -0.9076
14386TIP3   OH264572   3.604   5.632  15.309  0.0032  1.0105  0.0140
14386TIP3    H164573   3.597   5.539  15.289 -0.5065  0.6944  1.5515
14386TIP3    H264574   3.674   5.638  15.373 -0.8371  1.5137  0.9097
14387TIP3   OH264575   0.661   2.369  13.619 -0.5851 -0.1096 -0.2405
14387TIP3    H164576   0.681   2.281  13.653  1.9952 -0.3720 -2.1391
14387TIP3    H264577   0.566   2.369  13.608 -0.5578 -3.4444 -2.0165
14388TIP3   OH264578   4.065   4.650  12.837  0.4745  0.0234  0.1119
14388TIP3    H164579   4.141   4.606  12.875  0.7759  0.8522  0.4670
14388TIP3    H264580   4.089   4.742  12.831 -0.3279  0.2289 -0.2121
14389TIP3   OH264581   2.372   0.743   2.180 -0.2654  0.2168  0.3265
14389TIP3    H164582   2.418   0.662   2.200  2.5895  1.5087 -0.5128
14389TIP3    H264583   2.435   0.795   2.130 -3.2375  1.5242 -2.3700
14390TIP3   OH264584   3.266   6.429   3.168 -0.0021  0.1336  0.2167
14390TIP3    H164585   3.327   6.501   3.149 -0.3593  0.4492  0.2627
14390TIP3    H264586   3.206   6.429   3.094 -0.5560  0.4712  0.6589
14391TIP3   OH264587   1.226   5.038   2.322  0.2414  0.1692 -0.1357
14391TIP3    H164588   1.231   4.945   2.341  0.5999  0.4122  1.0367
14391TIP3    H264589   1.152   5.070   2.374  0.3099  0.5967 -0.2904
14392TIP3   OH264590   3.323   0.114   3.188 -0.6243 -0.5379 -0.0537
14392TIP3    H164591   3.248   0.173   3.185 -1.7909 -1.9490 -2.8647
14392TIP3    H264592   3.373   0.136   3.109 -0.4826 -2.4486 -0.5472
14393TIP3   OH264593   4.707   5.071  14.061  0.4153  0.0595  0.1351
14393TIP3    H164594   4.737   4.995  14.112 -0.9973  0.5857  1.8668
14393TIP3    H264595   4.772   5.139  14.078  1.0895 -0.4122 -0.5160
14394TIP3   OH264596   6.725   1.779  15.346  0.1053  0.0411  0.4186
14394TIP3    H164597   6.741   1.727  15.424  1.8655 -0.2357 -0.0873
14394TIP3    H264598   6.809   1.822  15.328  0.1093 -0.8330 -1.9742
14395TIP3   OH264599   2.524   5.767  11.476 -0.3272  0.2719  0.8906
14395TIP3    H164600   2.462   5.836  11.451 -0.4644  0.5539  1.9440
14395TIP3    H264601   2.601   5.782  11.422 -1.4557 -0.5819 -1.0583
14396TIP3   OH264602   2.963   4.314  12.633  0.2510  0.4359  0.1892
14396TIP3    H164603   2.974   4.398  12.588 -0.1841  0.9038  0.9372
14396TIP3    H264604   3.006   4.251  12.576  0.4506  1.1441 -0.4629
14397TIP3   OH264605   6.210   6.408  16.477 -0.4657 -0.2392  0.6410
14397TIP3    H164606   6.231   6.494  16.513 -0.5883 -0.2762  0.8052
14397TIP3    H264607   6.175   6.359  16.552 -0.5729 -0.3702  0.5051
14398TIP3   OH264608   4.223   1.839   2.278  0.2084 -0.1818  0.4140
14398TIP3    H164609   4.173   1.773   2.230  0.3207 -0.1198  0.2077
14398TIP3    H264610   4.219   1.917   2.222  1.0180 -0.3419  0.1169
14399TIP3   OH264611   1.501   6.242  14.102  0.7494 -0.1119  0.0644
14399TIP3    H164612   1.481   6.151  14.083  0.0684 -0.5348  2.4739
14399TIP3    H264613   1.433   6.292  14.056  1.0156 -0.7791 -1.1099
14400TIP3   OH264614   0.481   0.558  14.774  0.0347 -0.3968 -0.1696
14400TIP3    H164615   0.455   0.530  14.862  1.2323 -1.2822 -0.0747
14400TIP3    H264616   0.404   0.543  14.720 -0.6844  0.0626  0.7014
14401TIP3   OH264617   6.405   4.015  14.233  0.1276  0.2618  0.3357
14401TIP3    H164618   6.405   4.096  14.283  0.9518  0.7110 -0.3558
14401TIP3    H264619   6.313   3.990  14.227 -0.3778  2.2404 -1.1498
14402TIP3   OH264620   4.929   1.615   5.293  0.0008  0.3275  0.5034
14402TIP3    H164621   4.836   1.630   5.312 -0.4936  0.1530 -1.4830
14402TIP3    H264622   4.928   1.557   5.217  1.7656 -0.4329  1.0194
14403TIP3   OH264623   1.999   4.477  11.221  0.0341  0.0920 -0.1428
14403TIP3    H164624   2.049   4.439  11.148  1.7110  0.7877  0.5878
14403TIP3    H264625   2.016   4.571  11.215  0.6996  0.1043  1.4722
14404TIP3   OH264626   6.448   4.366  13.369 -0.0902  0.1085 -0.3414
14404TIP3    H164627   6.524   4.424  13.363 -0.1762  0.0605 -2.9392
14404TIP3    H264628   6.387   4.412  13.426  1.4680  0.5806  1.0433
14405TIP3   OH264629   4.594   1.960  15.045  0.0193  0.0401  0.1100
14405TIP3    H164630   4.611   1.964  15.139  0.0296 -1.5203  0.1985
14405TIP3    H264631   4.680   1.947  15.005 -0.2191 -1.6462  0.0852
14406TIP3   OH264632   3.636   3.997   6.034 -0.2062  0.2038 -0.0359
14406TIP3    H164633   3.643   3.980   5.940 -1.2317  0.6147 -0.1967
14406TIP3    H264634   3.726   3.994   6.065  0.0351 -1.4072 -0.7736
14407TIP3   OH264635   1.303   3.297   5.889 -0.1092 -0.0655  0.0190
14407TIP3    H164636   1.226   3.337   5.849  0.9025  1.9577 -0.0337
14407TIP3    H264637   1.370   3.301   5.822  0.2507 -1.2398  0.2803
14408TIP3   OH264638   0.537   0.143   5.336  0.2116  1.4118  0.6345
14408TIP3    H164639   0.474   0.101   5.278  1.7743 -1.3034  0.7522
14408TIP3    H264640   0.508   0.120   5.424  1.3929 -0.0406  0.6854
14409TIP3   OH264641   3.091   4.205  12.421 -0.4378 -0.8541 -0.0066
14409TIP3    H164642   3.123   4.276  12.366  1.0903 -1.5022 -0.0014
14409TIP3    H264643   3.002   4.189  12.390  0.3980 -1.2959 -2.4217
14410TIP3   OH264644   1.965   1.616   6.952  0.3992  0.4276 -0.1247
14410TIP3    H164645   1.995   1.641   6.865  2.1266  0.9890  0.5913
14410TIP3    H264646   1.874   1.589   6.939 -0.3894  3.3817 -1.5950
14411TIP3   OH264647   3.070   2.664  16.658  0.0659  0.1149  0.1331
14411TIP3    H164648   3.111   2.748  16.675  1.4385 -0.1091 -1.7200
14411TIP3    H264649   3.143   2.603  16.646 -0.8900 -1.2036  0.7647
14412TIP3   OH264650   4.237   3.194   6.626 -0.1214  0.4004  0.4572
14412TIP3    H164651   4.205   3.132   6.561  0.4890  0.3032  0.2443
14412TIP3    H264652   4.325   3.163   6.648 -0.8128 -0.3422  2.3257
14413TIP3   OH264653   0.398   1.772   6.714  0.4832 -0.0510  0.2812
14413TIP3    H164654   0.367   1.706   6.776 -0.0587 -0.1225 -0.0573
14413TIP3    H264655   0.383   1.733   6.628  2.5020 -0.5388  0.0962
14414TIP3   OH264656   6.307   1.766  14.454 -0.2935  0.3258  0.6561
14414TIP3    H164657   6.327   1.733  14.541 -0.2801 -0.2400  0.4417
14414TIP3    H264658   6.273   1.690  14.407  0.5912  0.4067 -0.1239
14415TIP3   OH264659   1.221   5.068  13.822 -0.8019  0.2555  0.9119
14415TIP3    H164660   1.236   5.162  13.807 -1.7074  0.2307 -0.2537
14415TIP3    H264661   1.215   5.030  13.735 -0.9908 -0.8036  1.3714
14416TIP3   OH264662   2.471   6.323  15.742 -0.4979  0.1704  0.2663
14416TIP3    H164663   2.490   6.413  15.769 -0.1491  0.8806 -2.1566
14416TIP3    H264664   2.535   6.304  15.674  0.0622 -2.3034  1.3419
14417TIP3   OH264665   0.564   1.919   1.836  0.3679  0.3607  0.4457
14417TIP3    H164666   0.647   1.962   1.859 -0.4485  1.6818  0.9938
14417TIP3    H264667   0.544   1.865   1.912  1.6983 -1.5486 -0.4816
14418TIP3   OH264668   2.392   2.521   2.840 -0.2664 -0.1745 -0.1338
14418TIP3    H164669   2.467   2.577   2.859 -1.1160  0.9363  0.0904
14418TIP3    H264670   2.387   2.518   2.745 -0.3342  0.3204 -0.1493
14419TIP3   OH264671   2.151   2.046   0.835 -0.3356 -0.3118 -0.0078
14419TIP3    H164672   2.174   2.068   0.925 -1.1283  0.5232  0.0018
14419TIP3    H264673   2.058   2.027   0.837 -1.0430  2.5571 -1.1077
14420TIP3   OH264674   3.069   3.990   3.367 -0.0948 -0.4118 -0.3242
14420TIP3    H164675   3.031   3.917   3.417 -0.4299 -0.8994 -1.2717
14420TIP3    H264676   2.995   4.031   3.323  0.3562 -0.8848 -1.5691
14421TIP3   OH264677   2.403   6.528   2.975  0.0520  0.3248  0.5075
14421TIP3    H164678   2.424   6.448   2.927  0.7772 -0.3601  1.9161
14421TIP3    H264679   2.454   6.596   2.930  1.0048 -0.3634  0.5018
14422TIP3   OH264680   1.206   3.127  12.352  0.4151 -0.8054 -0.1621
14422TIP3    H164681   1.256   3.049  12.375  0.7036 -0.0397  1.9865
14422TIP3    H264682   1.256   3.200  12.388 -0.4452  0.3016 -1.1056
14423TIP3   OH264683   1.575   4.533   6.349  1.0270 -0.5345  0.0413
14423TIP3    H164684   1.548   4.573   6.432  2.0270 -1.7664  1.0012
14423TIP3    H264685   1.542   4.443   6.354 -0.4029 -0.1526 -1.6872
14424TIP3   OH264686   0.001   2.042   0.990  0.0920  0.3878 -0.4212
14424TIP3    H164687   0.009   2.126   1.035 -0.1791  0.0841  0.2006
14424TIP3    H264688  -0.093   2.025   0.987  0.1602 -0.0273 -0.2936
14425TIP3   OH264689   6.088   3.168  12.897  0.1451  0.3279 -0.0783
14425TIP3    H164690   6.130   3.251  12.920 -1.5707  1.6633 -1.4851
14425TIP3    H264691   6.034   3.147  12.974 -0.4482  1.2416 -0.2352
14426TIP3   OH264692   0.867   3.080  11.180  0.2860 -0.3353  0.0209
14426TIP3    H164693   0.921   3.007  11.211  0.0144 -0.5585 -0.0233
14426TIP3    H264694   0.879   3.148  11.247 -0.2537 -0.7959  0.5967
14427TIP3   OH264695   2.432   3.300   2.825  0.2060  0.1871 -0.3085
14427TIP3    H164696   2.515   3.344   2.844  1.4294 -2.3922  0.9856
14427TIP3    H264697   2.386   3.301   2.909 -0.6285  0.7062 -0.7680
14428TIP3   OH264698   4.183   6.292  16.664  0.0012  1.0964  0.0532
14428TIP3    H164699   4.172   6.270  16.572 -0.7650 -0.3717  0.4667
14428TIP3    H264700   4.157   6.384  16.670 -3.4317  0.2988 -0.6411
14429TIP3   OH264701   4.554   0.608   5.803 -0.0436 -0.5822  0.0969
14429TIP3    H164702   4.600   0.630   5.884 -0.8274 -0.6065  0.5613
14429TIP3    H264703   4.618   0.624   5.734  0.6084 -0.4761  0.7134
14430TIP3   OH264704   5.090   4.144   3.033  0.4740  0.1641  0.0166
14430TIP3    H164705   5.177   4.140   2.993  1.8351  1.8939  2.5744
14430TIP3    H264706   5.035   4.185   2.966  1.2970 -1.8675 -2.0253
14431TIP3   OH264707   2.848   1.027   0.302 -0.6136 -0.0356 -0.1203
14431TIP3    H164708   2.815   0.950   0.256 -0.5457 -0.2649  0.2086
14431TIP3    H264709   2.925   0.995   0.350  1.0354  0.8222 -2.0738
14432TIP3   OH264710   3.949   1.002   5.376  0.4753 -0.4504  0.1684
14432TIP3    H164711   3.953   1.095   5.354  0.8453 -0.8726 -1.6513
14432TIP3    H264712   3.935   0.958   5.293  0.7575 -2.0691  0.9428
14433TIP3   OH264713   0.158   2.366   3.842 -0.2084  0.5203  0.3845
14433TIP3    H164714   0.152   2.359   3.937  0.3352  1.4800  0.5033
14433TIP3    H264715   0.201   2.284   3.815 -0.7276  0.0661  0.9144
14434TIP3   OH264716   0.577   3.349   1.537  0.5517  0.3550 -0.5049
14434TIP3    H164717   0.495   3.303   1.550 -0.7465  2.5483 -0.5048
14434TIP3    H264718   0.645   3.283   1.553 -1.1718 -1.1921  0.7158
14435TIP3   OH264719   0.919   5.384  11.680 -0.1110 -0.1617  0.3660
14435TIP3    H164720   0.861   5.441  11.631  0.6514 -1.0259 -1.6525
14435TIP3    H264721   0.950   5.438  11.753 -0.0504  1.7467 -0.9911
14436TIP3   OH264722   0.666   3.417  11.307 -0.6863  0.6596 -0.0991
14436TIP3    H164723   0.637   3.351  11.244 -2.1816 -0.0416  1.2392
14436TIP3    H264724   0.610   3.493  11.289 -0.3035  0.8768 -0.3771
14437TIP3   OH264725   3.082   6.056  15.438  0.2934 -0.1313  0.6870
14437TIP3    H164726   3.094   6.091  15.350  0.1368  0.1316  0.7682
14437TIP3    H264727   3.056   5.965  15.425  1.2231 -0.3827  0.4792
14438TIP3   OH264728   3.228   1.473  15.425  0.7606 -0.1515  0.1098
14438TIP3    H164729   3.181   1.517  15.354 -0.5963  1.7141  2.0348
14438TIP3    H264730   3.277   1.542  15.468  2.8805 -1.5377  0.0688
14439TIP3   OH264731   0.255   6.601  12.738 -0.2194  0.2873  0.4047
14439TIP3    H164732   0.307   6.680  12.723 -0.0919 -0.0796 -1.3155
14439TIP3    H264733   0.233   6.570  12.650  0.2388 -1.9316  1.0140
14440TIP3   OH264734   5.990   2.198   3.314 -0.2577 -0.2492  0.0698
14440TIP3    H164735   6.046   2.142   3.368 -0.9309 -0.7277  0.2845
14440TIP3    H264736   6.049   2.235   3.248  0.5024  0.0389  0.8923
14441TIP3   OH264737   4.787   5.440   2.546 -0.4363 -0.1399  0.4423
14441TIP3    H164738   4.783   5.462   2.453  0.2200  0.2285  0.4952
14441TIP3    H264739   4.708   5.389   2.562  0.8069 -2.7366 -0.9843
14442TIP3   OH264740   1.198   3.353  14.349 -0.2575  0.5777  0.2096
14442TIP3    H164741   1.192   3.375  14.256  0.6406  0.0643  0.0233
14442TIP3    H264742   1.251   3.422  14.387 -1.5534  1.4146  0.5799
14443TIP3   OH264743   3.270   3.466   0.354  0.5785  0.1769  0.1110
14443TIP3    H164744   3.274   3.454   0.259 -0.2616 -0.3360  0.1351
14443TIP3    H264745   3.180   3.494   0.371 -0.4383 -3.2733  1.1162
14444TIP3   OH264746   3.571   0.736  14.294 -0.4582 -0.2775  0.3371
14444TIP3    H164747   3.610   0.660  14.336 -0.0011  0.2984  0.9789
14444TIP3    H264748   3.570   0.804  14.361  0.1852  0.6331 -0.5345
14445TIP3   OH264749   3.061   6.272  13.712  0.8660  0.9167  0.1473
14445TIP3    H164750   3.074   6.210  13.641  0.9124  1.8556 -0.6941
14445TIP3    H264751   3.134   6.256  13.772 -0.6836 -1.7773  1.4617
14446TIP3   OH264752   4.223   4.853  15.244 -0.7968  0.7408 -0.2814
14446TIP3    H164753   4.199   4.919  15.180 -0.7863  1.8259  0.7951
14446TIP3    H264754   4.319   4.858  15.250 -0.7556  0.2941 -0.5449
14447TIP3   OH264755   1.402   0.905   6.665  0.0944 -0.0375  0.8890
14447TIP3    H164756   1.395   0.981   6.721  1.0342  0.3866  0.4589
14447TIP3    H264757   1.347   0.838   6.707 -2.1591  1.3750  0.3678
14448TIP3   OH264758   3.830   1.217   4.657 -0.1964 -0.0462  0.1736
14448TIP3    H164759   3.749   1.268   4.648 -0.0199  0.1762 -0.1927
14448TIP3    H264760   3.899   1.283   4.657  0.0020 -0.2536  0.2222
14449TIP3   OH264761   2.891   6.084  12.073 -0.4572  0.0681  0.1897
14449TIP3    H164762   2.932   6.001  12.098 -0.0670  0.5524  1.1862
14449TIP3    H264763   2.892   6.083  11.977  0.1478 -0.7801  0.1936
14450TIP3   OH264764   0.384   1.739  15.433 -0.1166 -0.2287  0.5936
14450TIP3    H164765   0.379   1.759  15.339 -1.6214  0.8262  0.8774
14450TIP3    H264766   0.306   1.688  15.451  0.1625 -0.4179  1.2927
14451TIP3   OH264767   5.606   4.894  11.625 -0.5030 -0.3708 -0.1830
14451TIP3    H164768   5.641   4.840  11.555  0.9237  0.9349 -0.5399
14451TIP3    H264769   5.530   4.938  11.586 -2.4960 -2.9439  0.4889
14452TIP3   OH264770   1.575   1.439   3.486  0.2962  0.1297  0.3036
14452TIP3    H164771   1.596   1.398   3.402 -1.5279  1.4891 -0.8858
14452TIP3    H264772   1.512   1.379   3.527  0.2859  0.0531  0.1753
14453TIP3   OH264773   5.526   5.791   1.261 -0.3030 -0.3444 -0.3016
14453TIP3    H164774   5.463   5.728   1.296  0.3733 -0.3881  0.8738
14453TIP3    H264775   5.472   5.856   1.215 -1.1707 -0.6203  0.3060
14454TIP3   OH264776   4.014   2.439   2.284 -0.3401  0.0477  0.4984
14454TIP3    H164777   3.939   2.392   2.248  0.7176 -1.0648 -0.3322
14454TIP3    H264778   3.977   2.495   2.353 -1.7732 -1.2686  0.8336
14455TIP3   OH264779   3.729   1.042  13.332  0.4490  0.1335  0.5026
14455TIP3    H164780   3.685   1.030  13.248  1.2562  0.3213  0.0385
14455TIP3    H264781   3.716   1.134  13.353 -1.3320 -0.3007  1.5187
14456TIP3   OH264782   5.239   0.704   2.447  0.1619 -0.0847  0.5279
14456TIP3    H164783   5.273   0.788   2.417  3.2758 -1.5606 -0.5067
14456TIP3    H264784   5.152   0.698   2.407  1.6160  0.7711 -3.2385
14457TIP3   OH264785   3.910   3.155   2.433  0.2753  0.1445 -0.2910
14457TIP3    H164786   3.833   3.210   2.446 -0.9472 -1.0476 -1.9756
14457TIP3    H264787   3.984   3.214   2.441 -0.7460  1.2266  1.9511
14458TIP3   OH264788   1.947   1.295   0.361 -0.2773 -0.1546  0.4541
14458TIP3    H164789   1.976   1.207   0.337 -0.2490  0.3480 -1.5666
14458TIP3    H264790   1.972   1.304   0.453  0.9621 -1.7474  0.3339
14459TIP3   OH264791   2.455   4.953   2.288 -0.3519 -0.3439  0.9775
14459TIP3    H164792   2.400   4.941   2.210  0.9227  0.7068 -0.1250
14459TIP3    H264793   2.398   4.929   2.361 -2.6271  1.5847 -0.0193
14460TIP3   OH264794   1.328   2.866  15.276  0.3706  0.9007 -0.2729
14460TIP3    H164795   1.336   2.873  15.371  0.2372 -0.8697 -0.0942
14460TIP3    H264796   1.293   2.951  15.249 -0.3344  1.1705  1.3513
14461TIP3   OH264797   4.004   5.276   5.102 -0.0529 -0.4009  0.0355
14461TIP3    H164798   3.981   5.297   5.012 -0.6744 -0.8694  0.0869
14461TIP3    H264799   3.934   5.220   5.134  1.5099 -2.5165 -0.0506
14462TIP3   OH264800   4.133   3.629   4.038  0.1813  0.3185  0.0775
14462TIP3    H164801   4.160   3.720   4.047 -0.7321  0.8140 -1.6858
14462TIP3    H264802   4.175   3.599   3.958 -0.9844 -0.2084 -0.3696
14463TIP3   OH264803   5.129   2.027   6.396 -0.1912 -0.2344  0.4689
14463TIP3    H164804   5.223   2.017   6.384 -0.1299  1.9790 -1.6001
14463TIP3    H264805   5.120   2.085   6.472  0.0412 -1.0689  1.1536
14464TIP3   OH264806   1.636   4.874  13.685 -0.1080 -0.1805 -0.1290
14464TIP3    H164807   1.593   4.810  13.629 -2.5454  1.0691  0.1785
14464TIP3    H264808   1.610   4.959  13.650 -1.8610  0.6602  2.8327
14465TIP3   OH264809   5.774   0.589   5.688  0.0065 -0.2904  0.0837
14465TIP3    H164810   5.780   0.510   5.742 -0.1031 -0.5147 -0.2244
14465TIP3    H264811   5.704   0.569   5.625 -2.0476  1.1622  1.7926
14466TIP3   OH264812   4.848   6.069   5.773  0.3456  0.3711  0.7375
14466TIP3    H164813   4.809   6.106   5.852  0.2121 -0.2626  0.9779
14466TIP3    H264814   4.836   5.974   5.783  2.8151  0.0413  1.3183
14467TIP3   OH264815   6.175   3.785   2.961 -0.3501 -0.1017 -0.0052
14467TIP3    H164816   6.154   3.693   2.976 -0.2551 -0.2134 -0.5539
14467TIP3    H264817   6.092   3.825   2.937 -0.3548 -0.0831  0.0419
14468TIP3   OH264818   3.859   0.817  12.422  0.2036  0.1002  0.3675
14468TIP3    H164819   3.950   0.824  12.394  0.8794 -1.7798  1.8654
14468TIP3    H264820   3.863   0.776  12.508 -1.9868  1.6674  1.3215
14469TIP3   OH264821   0.603   2.184  10.738  0.2552  0.3381 -0.2831
14469TIP3    H164822   0.516   2.164  10.703  0.1803  1.0677 -0.5391
14469TIP3    H264823   0.664   2.143  10.677  0.0863 -0.6797  0.2236
14470TIP3   OH264824   5.149   0.817  13.427 -0.4240  0.2726  0.1413
14470TIP3    H164825   5.231   0.836  13.381 -1.1154  0.6096 -0.9670
14470TIP3    H264826   5.119   0.734  13.389 -2.4086  1.9002 -2.0909
14471TIP3   OH264827   3.928   4.295   2.053  0.3821 -0.3491 -0.2804
14471TIP3    H164828   3.932   4.253   1.967  1.0830  1.8490 -1.3943
14471TIP3    H264829   4.019   4.319   2.072 -0.0729  1.3783 -0.1161
14472TIP3   OH264830   4.176   0.676   1.620  0.4019 -0.1245  0.2250
14472TIP3    H164831   4.174   0.690   1.526 -0.2221 -1.0545  0.0839
14472TIP3    H264832   4.214   0.756   1.656 -1.1022  1.0255 -0.6478
14473TIP3   OH264833   0.534   6.709  16.234  0.6919  0.3465 -0.7019
14473TIP3    H164834   0.481   6.656  16.294  0.6453  0.4124 -0.6848
14473TIP3    H264835   0.521   6.669  16.148  0.9583  0.0973 -0.6295
14474TIP3   OH264836   6.613   3.585   4.091 -0.2422 -0.3556 -0.1643
14474TIP3    H164837   6.566   3.656   4.133 -0.5195 -1.2005  1.0089
14474TIP3    H264838   6.706   3.603   4.109 -0.4013 -1.3287  1.9357
14475TIP3   OH264839   6.692   1.683   0.511 -0.2954  0.0350 -0.0340
14475TIP3    H164840   6.694   1.713   0.602 -2.3122  0.4408 -0.0668
14475TIP3    H264841   6.763   1.730   0.468  2.0271 -1.6588  1.7144
14476TIP3   OH264842   3.185   4.375  12.230 -0.3906 -0.0487 -0.4299
14476TIP3    H164843   3.274   4.358  12.198 -0.5446  0.7185 -1.3090
14476TIP3    H264844   3.141   4.418  12.157 -0.6774  2.0604  0.9197
14477TIP3   OH264845   1.507   4.239   2.382 -0.7503 -0.2402 -0.3175
14477TIP3    H164846   1.454   4.276   2.452  0.6468 -0.1053  0.7098
14477TIP3    H264847   1.471   4.151   2.368 -1.7084  0.1228 -0.1869
14478TIP3   OH264848   0.245   4.175   1.517 -0.8515  0.2121  0.3231
14478TIP3    H164849   0.337   4.196   1.532 -1.3009  1.3563  1.7381
14478TIP3    H264850   0.233   4.089   1.556 -0.8476  1.0082  2.1841
14479TIP3   OH264851   3.800   3.377  15.276 -0.2041 -0.5318 -0.2103
14479TIP3    H164852   3.743   3.448  15.306 -0.8007 -1.5415  1.1291
14479TIP3    H264853   3.743   3.324  15.220  0.5413  0.6059 -2.1298
14480TIP3   OH264854   3.236   3.273  12.395  0.0040 -0.1834 -0.4609
14480TIP3    H164855   3.272   3.348  12.442  0.7942 -0.2143 -0.9944
14480TIP3    H264856   3.144   3.295  12.382  0.0276  0.3011  0.1559
14481TIP3   OH264857   4.789   1.612   2.557  0.7997 -0.3564 -0.5433
14481TIP3    H164858   4.778   1.541   2.494 -2.1317  0.4026 -1.0021
14481TIP3    H264859   4.877   1.647   2.537  0.3695 -0.7244 -3.6376
14482TIP3   OH264860   1.557   5.635  14.320  0.7425 -0.2923 -0.5906
14482TIP3    H164861   1.472   5.594  14.338  0.1165  1.0167 -0.3751
14482TIP3    H264862   1.562   5.707  14.383  1.6266  0.1845 -1.1778
14483TIP3   OH264863   0.331   4.374   5.331 -0.3817  0.1369 -0.0281
14483TIP3    H164864   0.388   4.378   5.408 -0.6456  0.3590  0.1562
14483TIP3    H264865   0.376   4.315   5.271  1.0109  1.7673 -0.6757
14484TIP3   OH264866   2.452   3.333   4.438  0.1944  0.0976 -0.1752
14484TIP3    H164867   2.377   3.290   4.397  0.3121  0.3510 -0.6674
14484TIP3    H264868   2.512   3.261   4.460 -0.4394 -0.1639  0.7616
14485TIP3   OH264869   3.311   5.070   4.491 -0.1653 -0.3281 -0.0747
14485TIP3    H164870   3.333   5.025   4.573  2.4330  0.3782 -0.2859
14485TIP3    H264871   3.259   5.145   4.519  0.0319 -0.5155  0.8590
14486TIP3   OH264872   6.085   1.593  12.140  0.1076 -0.0721  0.7112
14486TIP3    H164873   6.023   1.615  12.070 -2.6521  3.4577  3.8886
14486TIP3    H264874   6.169   1.630  12.110  0.1828 -2.2313 -2.3046
14487TIP3   OH264875   4.036   1.281   2.847 -0.2183  0.4060  0.2396
14487TIP3    H164876   3.956   1.252   2.890 -1.0892 -0.0707 -1.5917
14487TIP3    H264877   4.011   1.295   2.756  1.7976  0.1532 -0.4153
14488TIP3   OH264878   4.583   2.334  14.572 -0.0697 -0.0251 -0.2272
14488TIP3    H164879   4.631   2.416  14.588 -1.5320  0.7793  0.2541
14488TIP3    H264880   4.498   2.363  14.541 -1.2927 -1.2763  1.7472
14489TIP3   OH264881   0.802   4.048   0.265  0.6186 -0.8663  0.1955
14489TIP3    H164882   0.795   3.987   0.338 -0.6706  0.4841  1.2723
14489TIP3    H264883   0.825   3.993   0.190  0.1756 -2.5678  1.2464
14490TIP3   OH264884   5.828   4.641  13.469 -0.5332  0.0267 -0.1246
14490TIP3    H164885   5.851   4.648  13.562 -1.7023 -2.8373  0.4702
14490TIP3    H264886   5.792   4.553  13.459 -0.1625  0.1201 -3.3943
14491TIP3   OH264887   4.455   1.302  17.028  0.0599  0.5013  0.1129
14491TIP3    H164888   4.509   1.380  17.044 -0.1618  0.4553  1.1728
14491TIP3    H264889   4.425   1.312  16.938  1.0684  1.0045 -0.1836
14492TIP3   OH264890   2.204   4.731  12.005  0.3757  0.2083  0.6245
14492TIP3    H164891   2.253   4.775  12.074  0.5634  0.7631  0.1485
14492TIP3    H264892   2.261   4.736  11.928 -0.1787  0.3292  0.2184
14493TIP3   OH264893   4.247   2.883  12.589  0.1045 -0.1139  0.3865
14493TIP3    H164894   4.259   2.888  12.684 -1.3995  0.9698  0.5391
14493TIP3    H264895   4.255   2.973  12.559  1.4059 -0.5358 -0.6706
14494TIP3   OH264896   6.599   2.528  11.530 -0.4854 -0.2843 -0.0715
14494TIP3    H164897   6.534   2.468  11.567 -0.1113  0.0786  1.2333
14494TIP3    H264898   6.572   2.539  11.439 -2.0698 -0.4078  0.3480
14495TIP3   OH264899   2.296   1.068  11.174  0.0367 -0.6498  0.1302
14495TIP3    H164900   2.208   1.080  11.138  0.6312  0.0287 -1.1683
14495TIP3    H264901   2.281   1.049  11.267 -1.6072 -3.3029 -0.5649
14496TIP3   OH264902   0.932   6.521   1.106  0.2125  0.5911  0.0495
14496TIP3    H164903   0.840   6.493   1.103  0.5262 -0.4046 -1.5779
14496TIP3    H264904   0.976   6.452   1.156  0.2569  0.4594 -0.1692
14497TIP3   OH264905   6.358   5.169   3.908 -0.0382 -0.4861 -0.4075
14497TIP3    H164906   6.281   5.215   3.943 -1.3182 -0.4096 -3.0672
14497TIP3    H264907   6.427   5.184   3.973 -1.9461  0.4204  1.5187
14498TIP3   OH264908   4.902   5.120   3.298  0.2014  0.1268 -0.0192
14498TIP3    H164909   4.934   5.190   3.355  2.0748  1.2155 -2.2514
14498TIP3    H264910   4.943   5.041   3.332 -0.4477  0.3675  1.4073
14499TIP3   OH264911   3.765   3.910   4.139  0.4145 -0.2602  0.1664
14499TIP3    H164912   3.694   3.904   4.203  0.1477  0.1416 -0.0838
14499TIP3    H264913   3.746   3.990   4.091  1.5643  0.3634  0.7151
14500TIP3   OH264914   2.473   6.596  12.890 -0.2608 -0.1648  0.4956
14500TIP3    H164915   2.497   6.626  12.802 -1.1951 -0.6366  0.0679
14500TIP3    H264916   2.546   6.624  12.945  0.8536 -0.7984 -0.6103
14501TIP3   OH264917   3.309   2.138  17.116  0.7425  0.0513  0.0669
14501TIP3    H164918   3.375   2.135  17.185  2.1123  0.4038 -1.1779
14501TIP3    H264919   3.288   2.231  17.107 -1.9770 -0.2260  2.2496
14502TIP3   OH264920   0.834   5.562   2.515  0.2710 -0.1377 -0.0675
14502TIP3    H164921   0.903   5.556   2.581 -1.0695 -0.2662  1.3674
14502TIP3    H264922   0.782   5.637   2.542 -0.9948 -0.9135 -0.2905
14503TIP3   OH264923   1.796   4.164  15.979 -0.1789 -0.2369  0.0477
14503TIP3    H164924   1.846   4.224  16.035 -1.8937 -0.3166  1.7900
14503TIP3    H264925   1.795   4.081  16.028 -0.0832 -0.9098 -1.0593
14504TIP3   OH264926   4.382   4.044  10.894 -0.4582  0.0216  0.8648
14504TIP3    H164927   4.336   4.010  10.970  0.4140 -0.2334  1.2882
14504TIP3    H264928   4.318   4.102  10.851 -1.6292 -1.3679  0.6665
14505TIP3   OH264929   4.421   6.721  12.581 -1.0452  0.3038  0.3924
14505TIP3    H164930   4.383   6.694  12.498 -2.1488  0.4901  0.8224
14505TIP3    H264931   4.420   6.642  12.635 -0.7321  0.2895  0.3820
14506TIP3   OH264932   1.981   5.984  10.899 -0.3395 -0.1460  0.0020
14506TIP3    H164933   1.890   5.965  10.921 -0.7030  0.3725 -0.9663
14506TIP3    H264934   2.014   5.903  10.861 -1.0396  0.2304 -1.5221
14507TIP3   OH264935   3.623   1.404  12.287 -0.0557 -0.2670  0.8703
14507TIP3    H164936   3.630   1.400  12.382 -1.5925 -3.0939  0.9736
14507TIP3    H264937   3.703   1.362  12.255 -0.4238 -1.0823  0.9983
14508TIP3   OH264938   0.203   3.605  15.803 -0.7428 -0.1957 -0.1248
14508TIP3    H164939   0.140   3.598  15.731  1.0332  0.3864 -1.8305
14508TIP3    H264940   0.262   3.530  15.791  1.5143  1.6408 -1.3516
14509TIP3   OH264941   0.632   1.666  15.001  0.0844  0.1137  0.0839
14509TIP3    H164942   0.724   1.692  14.994 -0.0626  0.7509  0.4319
14509TIP3    H264943   0.584   1.740  14.963 -0.3933  0.7371  1.8402
14510TIP3   OH264944   4.278   1.565   4.829 -0.2189 -0.1892 -0.0567
14510TIP3    H164945   4.359   1.598   4.869 -0.3248 -0.3635  0.3044
14510TIP3    H264946   4.306   1.532   4.743 -0.2918  1.7824 -0.8799
14511TIP3   OH264947   3.826   4.305   1.450 -0.0261 -0.0648 -0.0793
14511TIP3    H164948   3.748   4.307   1.394 -0.4731  0.5057  0.5465
14511TIP3    H264949   3.894   4.266   1.395 -0.7527 -0.5747 -0.6374
14512TIP3   OH264950   5.936   0.399  15.246 -0.1390  0.2579  0.2370
14512TIP3    H164951   5.973   0.364  15.165  0.3902  0.2907  0.4596
14512TIP3    H264952   5.998   0.467  15.273 -0.2905  0.2201  0.6875
14513TIP3   OH264953   0.439   0.960  13.392  0.1217  0.0842  0.2309
14513TIP3    H164954   0.425   0.960  13.486 -1.8371  0.7532 -0.0108
14513TIP3    H264955   0.455   1.052  13.370  2.2339 -0.2771  0.0865
14514TIP3   OH264956   4.114   3.827  11.427 -0.6124  0.3370  0.1985
14514TIP3    H164957   4.052   3.898  11.411 -0.6084  0.2556 -0.2009
14514TIP3    H264958   4.139   3.836  11.519 -1.0138  0.5315  0.2878
14515TIP3   OH264959   4.868   4.003   4.808 -0.5680 -0.1273  0.5769
14515TIP3    H164960   4.779   4.032   4.829 -0.3937  0.1923  0.8782
14515TIP3    H264961   4.866   3.985   4.714 -0.9447 -0.1001  0.5788
14516TIP3   OH264962   3.319   2.469  14.921 -0.1052 -0.6158 -0.7217
14516TIP3    H164963   3.301   2.517  14.841 -0.9663  0.4270  0.0544
14516TIP3    H264964   3.410   2.491  14.943 -0.5969  1.0203 -0.1809
14517TIP3   OH264965   4.925   1.410   1.353  0.4748  0.8490  0.1572
14517TIP3    H164966   4.894   1.392   1.441 -0.4792  1.4847 -0.0271
14517TIP3    H264967   4.891   1.339   1.299  0.4737  0.8309  0.1824
14518TIP3   OH264968   1.058   6.022  11.895  0.2770  0.1300  0.5506
14518TIP3    H164969   1.001   6.026  11.818  0.7476  0.8871  0.2365
14518TIP3    H264970   1.105   5.939  11.885  1.4488  0.9203 -0.7958
14519TIP3   OH264971   3.051   5.316  16.749 -0.2444 -0.1721 -0.1663
14519TIP3    H164972   3.113   5.243  16.749 -1.9967 -1.7428  0.1268
14519TIP3    H264973   3.058   5.354  16.836  0.5008 -0.1484 -0.2331
14520TIP3   OH264974   4.785   3.551  17.088  0.3251 -0.3729 -0.2558
14520TIP3    H164975   4.767   3.611  17.015 -2.2428 -1.0112 -0.2412
14520TIP3    H264976   4.762   3.601  17.166  2.0247 -0.0681  0.0900
14521TIP3   OH264977   3.858   6.593   5.521  0.2703 -0.2494 -0.4720
14521TIP3    H164978   3.861   6.575   5.615 -0.4415 -1.5343 -0.6756
14521TIP3    H264979   3.802   6.671   5.513 -0.1304 -0.4678  0.1327
14522TIP3   OH264980   3.545   2.893  15.789  0.0435  0.0609 -0.0736
14522TIP3    H164981   3.615   2.938  15.740 -1.0326  2.3956  0.4267
14522TIP3    H264982   3.475   2.882  15.725 -0.4647  0.9786  0.3083
14523TIP3   OH264983   4.349   4.568   5.212 -0.5543 -0.2612 -0.2247
14523TIP3    H164984   4.363   4.575   5.118  0.9525  0.4044  0.0258
14523TIP3    H264985   4.357   4.657   5.244  0.2169 -0.6513  0.6996
14524TIP3   OH264986   6.085   5.891  13.863  0.0141 -0.0545  0.0828
14524TIP3    H164987   6.098   5.954  13.934  0.3555  0.5054 -0.4625
14524TIP3    H264988   6.099   5.805  13.903  1.1472  0.3000  0.4803
14525TIP3   OH264989   0.269   0.164   1.012  0.0729  0.5531 -0.3494
14525TIP3    H164990   0.217   0.174   1.092  0.1088  0.9896 -0.3778
14525TIP3    H264991   0.313   0.079   1.022 -1.7487 -0.5161 -0.9742
14526TIP3   OH264992   6.450   0.875  14.467 -0.0346 -0.3774 -0.1150
14526TIP3    H164993   6.400   0.929  14.406 -0.1419  0.1368  0.4215
14526TIP3    H264994   6.446   0.923  14.550  1.7156 -0.0973 -0.1623
14527TIP3   OH264995   5.903   3.318  13.447 -0.0808  0.0661 -0.0598
14527TIP3    H164996   5.855   3.287  13.371 -2.1450 -0.0020  1.1999
14527TIP3    H264997   5.971   3.376  13.411  0.1921 -1.3901 -2.0307
14528TIP3   OH264998   3.830   6.574  17.129 -0.0462  0.3684 -0.3861
14528TIP3    H164999   3.802   6.498  17.180  1.4203  0.0783  0.0217
14528TIP3    H265000   3.861   6.637  17.194  2.0577 -0.0926 -0.8709
14529TIP3   OH265001   1.431   5.243   1.802  0.0252  0.1368  0.3493
14529TIP3    H165002   1.410   5.211   1.889 -1.1071  1.0022  0.4155
14529TIP3    H265003   1.355   5.295   1.776  1.3215  1.8596 -0.1809
14530TIP3   OH265004   3.189   3.441  11.676  0.0493  0.2027  0.6717
14530TIP3    H165005   3.249   3.507  11.710 -0.2926 -0.9343  3.7743
14530TIP3    H265006   3.245   3.366  11.655  0.0375  0.1630  0.7806
14531TIP3   OH265007   0.444   3.101   5.126  0.4388  0.0052  0.2798
14531TIP3    H165008   0.401   3.018   5.146 -0.0744 -0.3005 -1.8842
14531TIP3    H265009   0.443   3.149   5.209 -1.2216 -1.2751  1.0598
14532TIP3   OH265010   1.755   3.980  14.035  0.3039 -0.3906 -0.1638
14532TIP3    H165011   1.831   3.925  14.015  1.8782  1.5731  0.1584
14532TIP3    H265012   1.725   4.013  13.950  0.7998  0.0828 -0.1556
14533TIP3   OH265013   0.230   6.413   1.099  0.3182 -0.1704 -0.4577
14533TIP3    H165014   0.227   6.373   1.186  0.2556 -1.1154 -0.8824
14533TIP3    H265015   0.139   6.417   1.071  0.4450 -1.2632 -1.0861
14534TIP3   OH265016   1.787   3.865  15.666  0.1101 -0.2935 -0.0388
14534TIP3    H165017   1.857   3.846  15.728  0.1388  1.2865  0.4690
14534TIP3    H265018   1.831   3.878  15.582  0.7159  2.3624  0.5918
14535TIP3   OH265019   5.265   2.730  15.249  0.5538  0.2408 -0.7686
14535TIP3    H165020   5.291   2.776  15.169  0.5380  0.6833 -0.5223
14535TIP3    H265021   5.268   2.797  15.318  0.4962 -0.1175 -0.4114
14536TIP3   OH265022   5.729   5.248  14.729 -0.4270  0.0799 -0.2731
14536TIP3    H165023   5.801   5.292  14.774  0.3905 -1.0603 -0.4199
14536TIP3    H265024   5.650   5.279  14.774  0.2115  0.6488  0.4857
14537TIP3   OH265025   1.873   5.556   3.187  0.4223  0.6550  0.8754
14537TIP3    H165026   1.803   5.575   3.249 -0.0641 -1.0383  0.8743
14537TIP3    H265027   1.938   5.507   3.237  0.2562 -0.2858  0.1894
14538TIP3   OH265028   2.933   1.366   3.006  0.1106  0.0301 -0.0127
14538TIP3    H165029   2.957   1.450   2.967  0.2226  0.2869  0.5956
14538TIP3    H265030   2.950   1.378   3.099  0.4753 -0.7955  0.0244
14539TIP3   OH265031   1.768   1.754   5.090 -0.3596 -0.0069  0.4092
14539TIP3    H165032   1.676   1.745   5.068 -0.2985  0.2653  0.0173
14539TIP3    H265033   1.770   1.762   5.185 -0.6576 -0.9731  0.5073
14540TIP3   OH265034   4.030   2.082  13.760 -0.1699 -0.2035  0.0086
14540TIP3    H165035   4.039   2.082  13.665  0.3902  0.7012  0.0528
14540TIP3    H265036   3.937   2.101  13.776 -0.2813 -0.4360 -0.3515
14541TIP3   OH265037   1.835   0.770   4.122  0.2625 -0.2266  0.3850
14541TIP3    H165038   1.821   0.676   4.129  0.2065 -0.3812 -1.2822
14541TIP3    H265039   1.786   0.808   4.195 -0.3903 -1.4339  0.5903
14542TIP3   OH265040   3.694   2.721  17.313  0.1730  0.5182 -0.1848
14542TIP3    H165041   3.736   2.736  17.228 -3.4581 -1.2011 -2.5271
14542TIP3    H265042   3.717   2.631  17.336 -0.1808  0.4195 -0.2111
14543TIP3   OH265043   0.829   3.023  15.967  0.1966  0.1754  0.0108
14543TIP3    H165044   0.790   3.091  16.021  1.0339  0.1768  0.6314
14543TIP3    H265045   0.915   3.058  15.942  0.4505 -0.4633 -0.0358
14544TIP3   OH265046   4.696   5.089   0.173 -0.3383 -0.1224  0.0667
14544TIP3    H165047   4.775   5.035   0.165 -0.2059  0.0692  0.0889
14544TIP3    H265048   4.703   5.152   0.101  0.1487  0.6967  0.8127
14545TIP3   OH265049   2.384   2.099  11.741  0.1963  0.5017  0.0232
14545TIP3    H165050   2.310   2.041  11.725  1.3092 -0.2727 -3.2294
14545TIP3    H265051   2.459   2.054  11.700  2.5894  1.1163  3.3332
14546TIP3   OH265052   1.963   0.079   3.238  0.2836 -0.6013  0.0137
14546TIP3    H165053   1.921   0.023   3.173 -0.8297  0.7001 -0.4564
14546TIP3    H265054   1.925   0.052   3.321  1.1151 -1.7311  0.0554
14547TIP3   OH265055   5.884   3.129  16.644  0.3690 -0.2755  0.6246
14547TIP3    H165056   5.908   3.219  16.666 -1.2613  0.7818 -1.5016
14547TIP3    H265057   5.939   3.107  16.569 -0.0650 -0.5943  0.3920
14548TIP3   OH265058   2.850   6.108  12.332  0.5039 -0.0713 -0.4021
14548TIP3    H165059   2.792   6.177  12.364  0.8039  0.0856 -0.1893
14548TIP3    H265060   2.837   6.107  12.237 -1.8322 -1.8245 -0.1646
14549TIP3   OH265061   6.288   3.925   5.005 -0.5540  0.0290 -0.1573
14549TIP3    H165062   6.280   3.876   4.923 -0.4932 -0.3315  0.0558
14549TIP3    H265063   6.306   3.859   5.072  3.2829  0.6212 -0.3882
14550TIP3   OH265064   2.507   1.523  11.256 -0.1343  0.0175  0.7843
14550TIP3    H165065   2.489   1.498  11.165 -1.9343  1.8410  0.5605
14550TIP3    H265066   2.443   1.474  11.308 -0.6372  0.6772  0.8041
14551TIP3   OH265067   0.465   0.606   3.054 -0.3016  0.6461  0.1315
14551TIP3    H165068   0.497   0.660   3.126 -0.3187  0.0580  0.5932
14551TIP3    H265069   0.431   0.527   3.097  0.7759 -0.2453 -0.5992
14552TIP3   OH265070   0.423   2.570  11.021  0.3597 -0.1465  0.2678
14552TIP3    H165071   0.484   2.603  11.087 -0.4277  3.3401 -0.5764
14552TIP3    H265072   0.336   2.587  11.057 -0.1485 -1.7587 -0.0915
14553TIP3   OH265073   5.630   6.033   0.028  0.1972 -0.7866  0.1594
14553TIP3    H165074   5.657   5.987   0.108 -0.9751 -0.3415  0.8331
14553TIP3    H265075   5.668   6.120   0.036  1.6634 -1.3249 -0.6886
14554TIP3   OH265076   3.266   4.153  15.040  0.0064  0.7713  0.0366
14554TIP3    H165077   3.187   4.161  14.986 -0.4036  1.5402  0.7293
14554TIP3    H265078   3.285   4.060  15.041  0.2858  0.7753 -1.7983
14555TIP3   OH265079   0.825   2.140  11.398  0.7622  0.1549  0.0397
14555TIP3    H165080   0.841   2.133  11.304 -0.1198 -2.0953 -0.0092
14555TIP3    H265081   0.729   2.140  11.406  0.8101  1.0824  0.9290
14556TIP3   OH265082   3.481   3.374  14.450 -0.0356 -0.4715 -0.2412
14556TIP3    H165083   3.568   3.346  14.479 -0.8753 -3.6957 -0.4848
14556TIP3    H265084   3.420   3.324  14.504 -1.6795 -1.0526 -2.4821
14557TIP3   OH265085   3.000   2.133  16.873  0.1102 -0.0537 -0.0150
14557TIP3    H165086   2.970   2.063  16.815  1.4382 -0.6185 -0.0545
14557TIP3    H265087   3.078   2.168  16.830  0.4667  0.2663  0.8806
14558TIP3   OH265088   0.158   6.664   4.547  0.1197  0.4002  0.4061
14558TIP3    H165089   0.083   6.604   4.548  0.9207 -0.6365 -0.0784
14558TIP3    H265090   0.133   6.733   4.486  0.4862 -1.2308 -1.7062
14559TIP3   OH265091   2.774   0.331  11.010  0.1369 -0.1199  0.1184
14559TIP3    H165092   2.822   0.291  11.083  0.0138 -0.6320 -0.0853
14559TIP3    H265093   2.692   0.282  11.004 -0.9128  1.3952  1.1337
14560TIP3   OH265094   2.473   1.492  14.676  0.1262  0.7751  0.6573
14560TIP3    H165095   2.431   1.407  14.687 -1.2739  1.2874 -0.3985
14560TIP3    H265096   2.551   1.473  14.623 -1.3023  0.3721 -1.4279
14561TIP3   OH265097   0.126   1.995   5.237 -0.8790  0.3662  0.2673
14561TIP3    H165098   0.138   2.075   5.186 -0.7033  0.4965  0.5081
14561TIP3    H265099   0.170   2.013   5.320  1.3108 -0.8611 -0.5441
14562TIP3   OH265100   5.942   4.569  11.323  0.6750 -0.3076  0.0641
14562TIP3    H165101   5.988   4.513  11.386  4.5998  0.7978 -1.5341
14562TIP3    H265102   6.003   4.641  11.305 -1.8350  1.4676 -2.1953
14563TIP3   OH265103   2.057   4.145  13.899  0.0572  0.0549  0.2227
14563TIP3    H165104   2.099   4.219  13.854 -0.9589  0.5739  0.0832
14563TIP3    H265105   1.995   4.110  13.835 -1.1985  0.6138  1.0704
14564TIP3   OH265106   6.096   5.939   3.550  0.1317  0.6662  0.0669
14564TIP3    H165107   6.169   5.979   3.597  1.6912 -1.0063 -0.8366
14564TIP3    H265108   6.120   5.847   3.542 -1.9909  0.1123 -0.4646
14565TIP3   OH265109   1.236   0.139   2.455  0.1260  0.4632 -0.1651
14565TIP3    H165110   1.322   0.101   2.442 -0.5735 -1.0410 -0.5094
14565TIP3    H265111   1.247   0.198   2.531  1.8101  1.5777 -1.2200
14566TIP3   OH265112   1.467   5.559   5.392 -0.2357  0.2127 -0.5929
14566TIP3    H165113   1.539   5.619   5.370 -0.7359  1.0168 -0.1074
14566TIP3    H265114   1.493   5.520   5.476  0.3675 -0.7229 -1.1975
14567TIP3   OH265115   4.314   2.331   3.223  0.1875  0.1561 -0.1781
14567TIP3    H165116   4.315   2.261   3.158  1.7632 -0.6488  0.6615
14567TIP3    H265117   4.252   2.395   3.188  1.4540  0.0721 -2.8139
14568TIP3   OH265118   6.303   2.684  13.428 -0.0966  0.2615  0.0530
14568TIP3    H165119   6.368   2.740  13.470 -0.3883 -0.3427  1.3363
14568TIP3    H265120   6.275   2.623  13.496 -1.2108 -0.2011 -0.7826
14569TIP3   OH265121   6.052   0.756   3.442  0.3707 -0.0827 -0.4067
14569TIP3    H165122   5.958   0.757   3.425  0.6264  1.1685 -2.0492
14569TIP3    H265123   6.086   0.682   3.391  0.4388  0.3271 -0.9665
14570TIP3   OH265124   2.978   1.079   2.510 -0.3723 -0.2634  0.1411
14570TIP3    H165125   2.921   1.014   2.469 -2.0287  0.9168  0.4754
14570TIP3    H265126   2.927   1.160   2.508  0.0942  0.2007  3.0643
14571TIP3   OH265127   3.011   1.611   3.515 -0.2582 -0.0844  0.0779
14571TIP3    H165128   3.066   1.604   3.437 -0.3239  1.4233 -0.1434
14571TIP3    H265129   2.987   1.704   3.519 -2.3368 -0.5964  0.4815
14572TIP3   OH265130   2.226   3.355  15.825  0.0583 -0.0182  0.0106
14572TIP3    H165131   2.182   3.282  15.780  1.4922 -1.2136  0.4813
14572TIP3    H265132   2.217   3.428  15.764 -1.0244 -0.6874 -0.6865
14573TIP3   OH265133   2.372   3.758   0.457  0.5520 -0.0995 -0.4676
14573TIP3    H165134   2.299   3.777   0.398  0.3888 -0.4689 -0.3841
14573TIP3    H265135   2.393   3.666   0.441  0.4047 -0.2478  0.1650
14574TIP3   OH265136   5.533   2.038  15.697  0.1996 -0.2035 -0.5295
14574TIP3    H165137   5.524   2.054  15.791 -1.2792  0.6048 -0.7640
14574TIP3    H265138   5.542   1.943  15.689 -3.2882 -0.7653  0.3077
14575TIP3   OH265139   2.838   1.576  17.012  0.5094  0.2333  0.2270
14575TIP3    H165140   2.785   1.500  17.036  0.7579 -0.9971 -2.6702
14575TIP3    H265141   2.774   1.645  16.994  0.0710 -0.2516 -0.1104
14576TIP3   OH265142   6.321   1.016  14.273 -0.3035  0.0712 -1.0662
14576TIP3    H165143   6.227   1.026  14.287 -0.0014  0.3836  1.0789
14576TIP3    H265144   6.356   1.104  14.285  0.4801 -0.4194  0.4929
14577TIP3   OH265145   5.410   4.236   0.010  0.5929 -0.2209  0.3828
14577TIP3    H165146   5.387   4.171   0.076 -0.0184 -0.1103  0.2858
14577TIP3    H265147   5.496   4.268   0.036  0.4210 -0.2872  1.0391
14578TIP3   OH265148   5.288   1.506   0.423  0.4113  0.3632 -0.5288
14578TIP3    H165149   5.367   1.454   0.439  0.2247 -0.1740 -1.3159
14578TIP3    H265150   5.262   1.484   0.334 -0.9177  0.1542 -0.1112
14579TIP3   OH265151   6.454   5.899   0.684  0.4017  0.4864  0.4095
14579TIP3    H165152   6.487   5.920   0.596  0.4640 -0.2569  0.2467
14579TIP3    H265153   6.512   5.829   0.714 -1.0124 -0.8568  0.1164
14580TIP3   OH265154   2.079   3.368   4.891 -0.2300  0.2256 -0.6620
14580TIP3    H165155   2.000   3.315   4.880 -0.3244  0.2183  0.0132
14580TIP3    H265156   2.057   3.452   4.850  0.3082 -0.5959 -2.7100
14581TIP3   OH265157   3.097   5.106   1.644 -0.3311 -0.5414 -0.1262
14581TIP3    H165158   3.155   5.032   1.660  1.7701  1.4054  2.1585
14581TIP3    H265159   3.057   5.124   1.730  0.3359  1.7708 -0.2329
14582TIP3   OH265160   1.103   5.119   3.453 -0.4860 -0.4105 -0.2062
14582TIP3    H165161   1.127   5.201   3.496 -1.8141 -1.2558  2.4029
14582TIP3    H265162   1.094   5.141   3.361  1.0664  1.9147  0.1125
14583TIP3   OH265163   0.428   1.822  10.715 -0.0965  0.6096  0.1128
14583TIP3    H165164   0.334   1.826  10.733  0.2388  0.5136  2.1924
14583TIP3    H265165   0.439   1.743  10.661 -0.9691 -0.8535  1.9431
14584TIP3   OH265166   6.636   4.818   4.306  0.5682  0.2443  0.0126
14584TIP3    H165167   6.597   4.900   4.334  0.0408 -0.8001  2.5872
14584TIP3    H265168   6.730   4.830   4.319  0.5795  0.7013 -0.4416
14585TIP3   OH265169   5.653   2.179   1.423  0.2221  0.4257  0.2478
14585TIP3    H165170   5.693   2.261   1.452 -2.2080  1.1055  2.0092
14585TIP3    H265171   5.617   2.200   1.337 -0.4868  1.2775  0.7355
14586TIP3   OH265172   4.431   0.006   2.289  0.2025  0.0403 -0.3804
14586TIP3    H165173   4.365  -0.005   2.357  1.4638  0.3694  0.9509
14586TIP3    H265174   4.442   0.100   2.282  0.5724 -0.0140 -0.5386
14587TIP3   OH265175   5.268   4.956   4.337  0.0857  0.6962  0.0377
14587TIP3    H165176   5.356   4.993   4.349  0.4636  0.1435 -0.9186
14587TIP3    H265177   5.261   4.941   4.243 -0.6735 -0.1462  0.2163
14588TIP3   OH265178   6.710   0.125   1.654  0.7971 -0.0927 -0.0200
14588TIP3    H165179   6.665   0.043   1.632 -0.7280  0.7081 -0.0535
14588TIP3    H265180   6.653   0.166   1.719  2.0602  0.4843  0.7471
14589TIP3   OH265181   1.408   3.602   1.651  0.1414 -0.2178 -0.1463
14589TIP3    H165182   1.362   3.652   1.718  1.0327 -0.0248  0.3333
14589TIP3    H265183   1.339   3.553   1.606 -0.5932  0.4896  0.1861
14590TIP3   OH265184   3.135   0.796  12.596 -0.1709 -0.2459  0.5052
14590TIP3    H165185   3.143   0.702  12.611  2.4472  0.0699  1.7034
14590TIP3    H265186   3.126   0.834  12.684  1.2850  0.7477  0.2630
14591TIP3   OH265187   5.226   4.017   2.642  0.2286 -0.4422  0.1032
14591TIP3    H165188   5.188   3.939   2.602  1.0115 -0.0070 -1.5722
14591TIP3    H265189   5.165   4.087   2.620 -0.8041 -0.6175  2.1387
14592TIP3   OH265190   2.631   2.947   1.928 -0.1405  0.2463 -0.1237
14592TIP3    H165191   2.664   3.012   1.990 -1.5828 -0.2158  1.1715
14592TIP3    H265192   2.637   2.992   1.843  0.8238  1.2945  0.4580
14593TIP3   OH265193   1.578   2.543   4.054 -0.0856  0.0820 -0.5020
14593TIP3    H165194   1.487   2.568   4.043 -0.3701  0.0761  1.4573
14593TIP3    H265195   1.596   2.484   3.980 -1.6168  0.1806 -0.9867
14594TIP3   OH265196   1.905   1.601  15.334 -0.2463 -0.2180  0.2770
14594TIP3    H165197   1.944   1.681  15.368  0.7419 -1.3757  1.9777
14594TIP3    H265198   1.977   1.538  15.331 -1.3484 -1.5442  0.6416
14595TIP3   OH265199   1.196   1.608  12.718  0.1180  0.3463  0.0532
14595TIP3    H165200   1.236   1.653  12.792 -1.3388 -0.3258  1.3165
14595TIP3    H265201   1.269   1.582  12.663  1.1952  1.4875  0.8811
14596TIP3   OH265202   3.205   1.361  15.865  0.0594  0.0361 -0.2675
14596TIP3    H165203   3.274   1.404  15.815 -0.2831  1.2615  0.2763
14596TIP3    H265204   3.144   1.431  15.887 -0.8273 -0.8435  0.1427
14597TIP3   OH265205   6.147   3.418   4.004 -0.2649  0.1862  0.4014
14597TIP3    H165206   6.225   3.408   3.949 -0.2922  1.7155  0.0264
14597TIP3    H265207   6.075   3.389   3.949 -0.0706 -0.3043  0.3986
14598TIP3   OH265208   0.932   4.709  16.210  0.0757  0.0266 -0.4845
14598TIP3    H165209   0.875   4.637  16.238 -0.2132  0.1984 -0.6239
14598TIP3    H265210   1.021   4.678  16.230 -0.0891 -0.0751  0.1234
14599TIP3   OH265211   4.450   5.296   5.133 -0.4264  0.2202  0.6266
14599TIP3    H165212   4.360   5.313   5.162 -0.8749 -0.2137 -0.4430
14599TIP3    H265213   4.500   5.372   5.161 -0.8321 -0.1436  2.4499
14600TIP3   OH265214   3.403   0.339   1.279 -0.0623 -0.0230 -0.8154
14600TIP3    H165215   3.412   0.368   1.188  0.3932  2.4397 -0.0587
14600TIP3    H265216   3.493   0.337   1.312 -0.2737 -0.2335 -0.2419
14601TIP3   OH265217   6.429   2.040   0.600 -0.1460 -0.3518 -0.2939
14601TIP3    H165218   6.470   1.992   0.671  0.9595  1.1732  0.1606
14601TIP3    H265219   6.419   1.976   0.530 -0.7459 -1.7548  1.0151
14602TIP3   OH265220   6.673   1.167   1.012  0.7500  0.0851  0.3906
14602TIP3    H165221   6.702   1.258   1.009 -0.2294  0.3795 -0.6869
14602TIP3    H265222   6.754   1.116   1.016  1.3052  0.9974  1.7873
14603TIP3   OH265223   3.012   2.043  11.459 -0.4225  0.0677  0.3569
14603TIP3    H165224   2.924   2.078  11.442  0.0691  1.4298  0.4504
14603TIP3    H265225   3.031   2.073  11.548 -0.0746 -0.6841  0.5323
14604TIP3   OH265226   6.340   5.745   5.891  0.3043 -0.0426  0.4303
14604TIP3    H165227   6.375   5.797   5.964  0.4755  0.1720  0.2003
14604TIP3    H265228   6.417   5.720   5.841  0.1453  0.3212 -0.0092
14605TIP3   OH265229   2.074   0.346   0.214  0.2890 -0.3456  0.6668
14605TIP3    H165230   2.095   0.331   0.121  1.4811  1.0240  0.6790
14605TIP3    H265231   2.105   0.266   0.258  2.0807  0.0213  0.1682
14606TIP3   OH265232   3.947   1.048  12.736  0.2305  0.4511 -0.7531
14606TIP3    H165233   3.999   1.129  12.731 -0.5150  0.8672 -2.1044
14606TIP3    H265234   3.958   1.006  12.651  0.5874 -0.8861 -0.0737
14607TIP3   OH265235   6.194   1.281  15.535 -0.4457  0.5847  0.5503
14607TIP3    H165236   6.272   1.226  15.526  0.1612  1.4644  0.3353
14607TIP3    H265237   6.121   1.219  15.536  0.1019 -0.1537 -1.2366
14608TIP3   OH265238   0.111   3.758  13.914  0.7710 -0.9894 -0.0384
14608TIP3    H165239   0.043   3.704  13.954 -1.1462  0.7035 -0.8332
14608TIP3    H265240   0.159   3.794  13.988 -0.7624 -0.3294  0.6874
14609TIP3   OH265241   3.317   4.654   0.167 -0.5707 -0.2997  0.4687
14609TIP3    H165242   3.260   4.726   0.140 -1.2841 -1.1360 -0.3308
14609TIP3    H265243   3.258   4.591   0.207 -0.0648 -0.8013  0.4309
14610TIP3   OH265244   4.757   6.604   2.647  0.3463  0.0586  0.3227
14610TIP3    H165245   4.690   6.668   2.622 -1.6615 -2.0760 -0.1206
14610TIP3    H265246   4.718   6.556   2.720  0.0542 -3.0855 -1.7186
14611TIP3   OH265247   1.169   4.395   1.491 -0.0607  0.2194 -0.0806
14611TIP3    H165248   1.203   4.316   1.533 -0.0374 -0.1368 -0.7452
14611TIP3    H265249   1.111   4.435   1.556  0.9535  0.3741  0.7566
14612TIP3   OH265250   3.042   3.866   4.228 -0.1770 -0.0343  0.0090
14612TIP3    H165251   3.079   3.784   4.195  0.8716 -0.2102  1.4592
14612TIP3    H265252   3.113   3.903   4.282 -0.8804  1.4735 -0.0630
14613TIP3   OH265253   0.872   0.509  14.550  0.2076  0.3118  0.2413
14613TIP3    H165254   0.868   0.489  14.644 -0.3892 -1.7473 -0.1760
14613TIP3    H265255   0.780   0.510  14.522  0.3869  0.8182 -0.3475
14614TIP3   OH265256   5.789   5.919   0.636  0.1447  0.2498 -0.1830
14614TIP3    H165257   5.703   5.884   0.613  0.7034  0.6105 -3.2544
14614TIP3    H265258   5.784   6.012   0.611  1.3083  0.3731 -0.0113
14615TIP3   OH265259   0.753   5.288  15.003  0.0788 -0.3804 -0.0957
14615TIP3    H165260   0.764   5.195  15.026 -2.3362 -0.3436  1.7112
14615TIP3    H265261   0.717   5.286  14.914 -1.4668 -1.3433  0.4998
14616TIP3   OH265262   4.434   2.355  15.975  0.1011  0.1758 -0.5545
14616TIP3    H165263   4.457   2.399  15.894  1.1462 -0.4652 -0.6217
14616TIP3    H265264   4.478   2.270  15.970  0.5144  0.2707  0.8456
14617TIP3   OH265265   2.578   4.137   1.683 -0.1416 -0.1755  0.2085
14617TIP3    H165266   2.544   4.167   1.767  1.6828 -0.1004  0.9632
14617TIP3    H265267   2.584   4.216   1.630 -0.0389 -0.0028  0.4760
14618TIP3   OH265268   4.337   2.991   1.472 -0.0967  0.6599  0.5035
14618TIP3    H165269   4.312   3.046   1.547  0.2206  0.3283  0.8610
14618TIP3    H265270   4.421   2.954   1.498 -0.1717  0.2385  0.1384
14619TIP3   OH265271   5.949   4.175   0.515  0.1887 -0.4015  0.2905
14619TIP3    H165272   5.979   4.092   0.479 -2.3663 -1.5164  0.5717
14619TIP3    H265273   5.918   4.225   0.439  1.1842  0.1008  0.1934
14620TIP3   OH265274   3.290   6.722  12.396  0.0770  0.0163 -0.6218
14620TIP3    H165275   3.269   6.811  12.368  1.2549  0.1553 -1.1084
14620TIP3    H265276   3.382   6.709  12.371  1.0142 -0.1370  2.4176
14621TIP3   OH265277   3.185   5.216   3.944 -0.2643 -0.5609 -0.2802
14621TIP3    H165278   3.196   5.302   3.904  0.4980 -0.5728 -0.1114
14621TIP3    H265279   3.265   5.168   3.922 -1.1034 -1.5786 -1.2235
14622TIP3   OH265280   4.482   6.535  15.350  0.0004  0.2323 -0.3515
14622TIP3    H165281   4.571   6.568  15.338  0.5239 -0.8804  0.2875
14622TIP3    H265282   4.426   6.611  15.337  0.9030  0.5952 -2.6114
14623TIP3   OH265283   5.881   6.135   0.426  0.0128 -0.0997 -0.2395
14623TIP3    H165284   5.877   6.158   0.519 -0.7870 -1.0736 -0.0206
14623TIP3    H265285   5.810   6.185   0.385 -0.1331 -0.2678 -0.1921
14624TIP3   OH265286   3.025   5.782   4.733  0.1807 -0.2235  0.9331
14624TIP3    H165287   3.093   5.814   4.792  1.1724  0.9206 -0.7431
14624TIP3    H265288   3.037   5.833   4.652 -2.7046  0.0787  0.5772
14625TIP3   OH265289   2.501   0.295  14.374 -0.4947 -0.5963 -0.3364
14625TIP3    H165290   2.499   0.311  14.280  0.5015  0.1870 -0.2407
14625TIP3    H265291   2.419   0.250  14.392 -0.1420 -1.9033 -1.7730
14626TIP3   OH265292   6.212   1.097  13.231 -0.1381 -0.2867 -0.2207
14626TIP3    H165293   6.199   1.152  13.155 -2.2494  0.2158  0.4504
14626TIP3    H265294   6.227   1.158  13.303 -3.4123 -0.3789  0.7106
14627TIP3   OH265295   3.644   5.385   0.933 -0.2438 -0.3494  0.2466
14627TIP3    H165296   3.585   5.442   0.982  0.2218  0.3775 -0.0239
14627TIP3    H265297   3.591   5.353   0.860  0.0517  1.4540 -0.8347
14628TIP3   OH265298   4.528   2.059  11.378  0.2108  0.0481  0.2050
14628TIP3    H165299   4.500   1.989  11.437  0.1337  0.2433  0.4037
14628TIP3    H265300   4.535   2.017  11.293 -0.6859 -0.0154  0.1459
14629TIP3   OH265301   4.376   5.181   5.459  0.1599 -0.0700 -0.1116
14629TIP3    H165302   4.431   5.103   5.465 -0.8633 -0.8854 -0.8919
14629TIP3    H265303   4.437   5.251   5.435  1.0597 -0.6681  0.3526
14630TIP3   OH265304   4.460   3.689   0.579  0.7976 -0.3103 -0.2064
14630TIP3    H165305   4.493   3.745   0.508 -1.8974 -0.5069 -1.7388
14630TIP3    H265306   4.477   3.600   0.549  1.8674 -0.4115  0.6058
14631TIP3   OH265307   1.146   6.013   3.117  0.1532 -0.3746 -0.5676
14631TIP3    H165308   1.069   6.048   3.072 -0.9408 -0.8253  0.8692
14631TIP3    H265309   1.168   6.080   3.182 -0.0592 -0.9773  0.1349
14632TIP3   OH265310   3.456   0.237  14.405  0.3370 -0.5044 -0.0680
14632TIP3    H165311   3.500   0.266  14.326  0.2050  0.8586  0.3320
14632TIP3    H265312   3.364   0.231  14.381  0.1794  0.7181  0.1817
14633TIP3   OH265313   2.407   4.135  13.833 -0.2644  0.2008 -0.0333
14633TIP3    H165314   2.327   4.120  13.784 -0.7818 -1.7532  1.2873
14633TIP3    H265315   2.405   4.229  13.855 -0.8140  0.7544 -2.2518
14634TIP3   OH265316   1.660   0.515  12.289 -0.3990 -0.4797  0.0976
14634TIP3    H165317   1.589   0.545  12.346 -1.1774 -0.7803 -0.6749
14634TIP3    H265318   1.620   0.513  12.201  0.0363 -2.3634 -0.1057
14635TIP3   OH265319   2.456   0.541  12.682 -0.2159 -0.2310  0.6192
14635TIP3    H165320   2.538   0.591  12.681 -0.2611 -0.1428 -1.0067
14635TIP3    H265321   2.483   0.450  12.692  0.0975 -0.2049  0.0707
14636TIP3   OH265322   3.176   0.941   3.773  0.3628  0.5371 -0.5359
14636TIP3    H165323   3.253   0.887   3.757 -0.2532 -0.6785  0.4929
14636TIP3    H265324   3.195   1.023   3.727  2.7777  0.7346  0.6632
14637TIP3   OH265325   5.293   4.930  17.273 -0.6054 -0.0488  0.1848
14637TIP3    H165326   5.242   4.941  17.193 -1.5615  0.5530  0.8660
14637TIP3    H265327   5.374   4.980  17.256 -0.5246 -0.4424 -0.6348
14638TIP3   OH265328   6.107   0.905  12.214 -0.3853  0.0942  0.3446
14638TIP3    H165329   6.013   0.920  12.225 -0.4284 -0.3982  0.7124
14638TIP3    H265330   6.112   0.833  12.152 -0.1809  1.5404 -1.4007
14639TIP3   OH265331   0.622   1.403   6.155  0.2736  0.3933  0.2604
14639TIP3    H165332   0.577   1.465   6.212  0.4203  0.9997 -0.2646
14639TIP3    H265333   0.710   1.440   6.145  0.0949  0.5743 -0.7555
14640TIP3   OH265334   4.772   4.022   4.017  0.3093 -0.0144  0.2540
14640TIP3    H165335   4.823   4.069   4.083  0.0491 -0.6616  0.9378
14640TIP3    H265336   4.707   3.973   4.068 -0.1859 -0.1805 -0.5185
14641TIP3   OH265337   6.438   5.275  14.011  0.3128  0.3812 -0.3720
14641TIP3    H165338   6.385   5.225  14.073  1.7660  0.7270  1.2181
14641TIP3    H265339   6.393   5.359  14.003  0.3883  0.5296  0.6490
14642TIP3   OH265340   4.847   3.021  15.866  0.0002  0.4411 -0.4305
14642TIP3    H165341   4.774   3.005  15.925  0.7614  1.1316  0.7452
14642TIP3    H265342   4.863   3.115  15.872  0.8135  0.3433 -0.8616
14643TIP3   OH265343   5.551   3.809   3.011 -0.3252  0.2347 -0.6753
14643TIP3    H165344   5.546   3.806   2.915  0.7838 -0.8004 -0.7262
14643TIP3    H265345   5.522   3.722   3.040  1.9554 -0.4616 -0.2621
14644TIP3   OH265346   0.137   2.714   3.058 -0.3204  0.0534 -0.8639
14644TIP3    H165347   0.121   2.768   3.135  0.0125  0.7977 -1.3113
14644TIP3    H265348   0.121   2.624   3.089  2.6511  0.0083  0.8959
14645TIP3   OH265349   0.036   2.188  11.391 -0.2106 -0.1459  0.2712
14645TIP3    H165350   0.070   2.244  11.322  0.5896 -1.2343 -0.2564
14645TIP3    H265351  -0.010   2.247  11.451  1.0225  1.1302  0.0013
14646TIP3   OH265352   1.408   5.862   0.576  0.2249  0.0115 -0.1540
14646TIP3    H165353   1.397   5.893   0.486 -2.5353  2.1632  0.7730
14646TIP3    H265354   1.368   5.775   0.577 -0.7193  0.4241 -0.7999
14647TIP3   OH265355   3.990   6.066   3.785 -0.1037  0.2622 -0.8354
14647TIP3    H165356   3.973   6.125   3.711 -0.1863  0.4402 -0.6768
14647TIP3    H265357   3.904   6.055   3.827 -0.5162 -1.6568 -2.0839
14648TIP3   OH265358   1.894   6.053   5.340 -0.2478  0.1583  0.7666
14648TIP3    H165359   1.833   6.042   5.412 -1.6604 -0.0724 -0.4227
14648TIP3    H265360   1.840   6.075   5.265  1.1392  0.0435 -0.3188
14649TIP3   OH265361   3.285   5.729  16.043  0.5342 -0.1707 -0.2427
14649TIP3    H165362   3.221   5.764  15.981  0.2667  2.1272  1.2057
14649TIP3    H265363   3.369   5.736  15.996  0.2720  1.0657 -0.5824
14650TIP3   OH265364   2.087   4.701  14.124 -0.1621 -0.1044 -0.3310
14650TIP3    H165365   2.172   4.739  14.147 -0.3023 -0.2891  0.5161
14650TIP3    H265366   2.033   4.777  14.101  0.1331  0.0411 -0.5517
14651TIP3   OH265367   3.487   2.841   1.238  0.4076  0.1597  0.2010
14651TIP3    H165368   3.427   2.827   1.165 -0.6279  0.6818  0.9240
14651TIP3    H265369   3.433   2.881   1.307  1.1195 -1.2300  1.6288
14652TIP3   OH265370   6.584   4.668   5.493 -0.0091  0.2772  0.1674
14652TIP3    H165371   6.633   4.645   5.414  0.1417 -0.3888  0.4535
14652TIP3    H265372   6.644   4.650   5.565 -1.0523 -1.6428  0.6006
14653TIP3   OH265373   3.923   1.801   1.420  0.4448 -0.1155 -0.2028
14653TIP3    H165374   3.859   1.742   1.459 -1.0091  1.5995  0.1475
14653TIP3    H265375   3.933   1.871   1.484  1.0731  0.7179 -1.1762
14654TIP3   OH265376   2.344   6.591  16.821 -0.0945 -0.0490  0.4830
14654TIP3    H165377   2.264   6.643  16.834 -0.8211 -0.7660 -0.9468
14654TIP3    H265378   2.334   6.517  16.881 -1.0483 -0.7263 -0.4914
14655TIP3   OH265379   3.130   4.829   2.364 -0.1645 -0.0036 -0.4389
14655TIP3    H165380   3.053   4.885   2.356 -1.0431 -1.1549 -0.2703
14655TIP3    H265381   3.133   4.779   2.282 -1.2392 -1.9473  0.6346
14656TIP3   OH265382   2.797   4.009  12.635  0.3964  0.3326 -0.4912
14656TIP3    H165383   2.780   4.043  12.547 -0.0138 -2.1446 -1.4430
14656TIP3    H265384   2.711   3.983  12.668  0.4494  1.8381  0.9723
14657TIP3   OH265385   0.880   1.654  16.195  0.2017  0.2765 -0.1784
14657TIP3    H165386   0.876   1.658  16.291 -0.0357 -0.9265 -0.1305
14657TIP3    H265387   0.854   1.565  16.173  3.3738 -0.5229 -1.1823
14658TIP3   OH265388   6.066   4.265   4.509 -0.2506 -0.3714  0.3142
14658TIP3    H165389   6.108   4.259   4.423  0.3265  0.9523  0.4695
14658TIP3    H265390   5.978   4.296   4.491 -0.3886 -0.8576  0.1472
14659TIP3   OH265391   1.666   6.716  17.084 -0.2090 -0.3173 -0.0592
14659TIP3    H165392   1.580   6.713  17.127 -0.2380  0.1397 -0.0812
14659TIP3    H265393   1.696   6.806  17.097  0.0939 -0.3702 -0.3865
14660TIP3   OH265394   6.534   4.407  15.703  0.6792 -0.2458 -0.4463
14660TIP3    H165395   6.539   4.425  15.609 -1.4709 -1.9960 -0.9621
14660TIP3    H265396   6.564   4.317  15.711  1.4777  0.0997  0.6785
14661TIP3   OH265397   5.976   0.043   1.568 -0.2387  0.1496  0.1932
14661TIP3    H165398   6.010   0.123   1.527 -1.8811  0.9010  0.2229
14661TIP3    H265399   5.957  -0.015   1.495 -1.5198  0.8211 -0.0324
14662TIP3   OH265400   4.265   1.992  12.519  0.3996 -0.0583 -0.3857
14662TIP3    H165401   4.321   2.064  12.491 -0.9256  1.2356  0.1949
14662TIP3    H265402   4.244   2.011  12.610 -1.0811 -0.4221 -0.6223
14663TIP3   OH265403   5.113   0.065  12.153  0.1282  0.1543 -0.5937
14663TIP3    H165404   5.173   0.123  12.200 -0.7178  0.9155 -0.4180
14663TIP3    H265405   5.027   0.082  12.192 -0.0642 -1.6698 -0.1347
14664TIP3   OH265406   4.970   2.431   5.809  0.2768 -0.4437  0.0420
14664TIP3    H165407   4.951   2.346   5.848  0.3913 -0.6460 -0.3339
14664TIP3    H265408   4.887   2.460   5.770  0.2162 -0.3414  0.2473
14665TIP3   OH265409   0.862   3.588   6.596  0.1101  0.0624  0.4906
14665TIP3    H165410   0.815   3.648   6.539 -3.4581 -1.1923  1.8251
14665TIP3    H265411   0.883   3.640   6.674  0.5343  0.5082  0.0850
14666TIP3   OH265412   2.679   0.258   3.801  0.2148 -0.0902 -0.1512
14666TIP3    H165413   2.754   0.302   3.842 -0.2032  0.8960 -0.4134
14666TIP3    H265414   2.629   0.329   3.761 -0.4926 -0.8171 -0.5770
14667TIP3   OH265415   2.636   5.929  13.789  0.8238 -0.4739  0.7731
14667TIP3    H165416   2.652   6.022  13.769 -0.1631 -0.0095  2.0097
14667TIP3    H265417   2.542   5.924  13.804  0.5541 -2.0842 -1.1448
14668TIP3   OH265418   6.185   6.649  10.751  0.5833  0.2925 -0.1904
14668TIP3    H165419   6.277   6.667  10.771  0.8574  0.3891 -1.4761
14668TIP3    H265420   6.142   6.734  10.759  0.7568  0.3979 -0.3624
14669TIP3   OH265421   4.496   5.383   1.287 -0.5739  0.6059  0.2120
14669TIP3    H165422   4.583   5.421   1.275 -0.4485  0.1418 -0.3911
14669TIP3    H265423   4.436   5.457   1.280 -0.4024  0.5936 -1.8418
14670TIP3   OH265424   2.882   1.525  11.640  0.9666  0.4106  0.0616
14670TIP3    H165425   2.824   1.566  11.575 -0.1919  0.4380  1.0895
14670TIP3    H265426   2.919   1.449  11.595 -1.5429 -0.8804  0.0209
14671TIP3   OH265427   6.065   3.263  15.161 -0.1853  0.5931 -0.1307
14671TIP3    H165428   6.045   3.317  15.237 -0.6368 -0.5113  0.5469
14671TIP3    H265429   6.105   3.184  15.197  0.4443  0.4525 -1.1078
14672TIP3   OH265430   6.361   1.876  12.965 -0.2588 -0.1105 -0.2281
14672TIP3    H165431   6.443   1.913  12.931 -1.4530  1.4173 -1.6214
14672TIP3    H265432   6.320   1.948  13.012 -0.4965 -1.0721  1.0833
14673TIP3   OH265433   6.191   0.887   3.191  0.1552  0.1376  0.0081
14673TIP3    H165434   6.180   0.971   3.236  1.0802 -1.5030  3.6738
14673TIP3    H265435   6.147   0.824   3.247  3.4941 -2.4552  0.0310
14674TIP3   OH265436   5.878   5.064   2.246  0.3211 -0.5183 -0.6325
14674TIP3    H165437   5.836   5.035   2.327 -0.2132 -2.2437 -1.4809
14674TIP3    H265438   5.812   5.119   2.204  1.1653  1.7499  0.7548
14675TIP3   OH265439   4.645   4.218  16.587  0.1915 -0.3711  0.1316
14675TIP3    H165440   4.697   4.291  16.621  1.2235  0.3227 -2.6280
14675TIP3    H265441   4.567   4.260  16.550 -0.3795 -0.9584  0.6636
14676TIP3   OH265442   1.731   1.388  16.892 -0.5959 -0.6861 -0.1042
14676TIP3    H165443   1.801   1.366  16.831  0.2405  0.0188  0.5672
14676TIP3    H265444   1.776   1.421  16.970 -1.6835  0.2515  0.1670
14677TIP3   OH265445   4.066   6.644  11.961  0.2222  0.0439 -0.1235
14677TIP3    H165446   3.990   6.655  11.904  1.8434  0.0406 -2.3992
14677TIP3    H265447   4.070   6.550  11.979  0.5288 -0.1582 -1.2249
14678TIP3   OH265448   0.750   0.728   2.562 -0.7748  0.7010  0.2859
14678TIP3    H165449   0.722   0.806   2.514 -0.5157 -0.1249 -1.2487
14678TIP3    H265450   0.836   0.707   2.527  0.2923  1.1316  2.4545
14679TIP3   OH265451   4.401   3.298   4.721 -0.0012  0.1801 -0.1150
14679TIP3    H165452   4.479   3.281   4.668 -0.0937  0.2215 -0.2637
14679TIP3    H265453   4.348   3.219   4.712 -0.1576  0.3095 -0.3291
14680TIP3   OH265454   2.749   1.952  15.885  0.1443  0.1602 -0.8645
14680TIP3    H165455   2.715   1.985  15.802 -0.5641 -1.2285 -1.1509
14680TIP3    H265456   2.740   2.026  15.945  0.0832  0.9845 -1.8590
14681TIP3   OH265457   4.237   2.948   6.053  0.0222 -0.1753  0.1091
14681TIP3    H165458   4.217   3.038   6.028 -1.6179  0.0555  1.9690
14681TIP3    H265459   4.242   2.950   6.149  1.3690 -1.8225  0.1283
14682TIP3   OH265460   2.987   6.238  16.590 -0.4617  0.0288  1.0545
14682TIP3    H165461   2.908   6.236  16.644 -0.7499 -0.2711  0.6272
14682TIP3    H265462   2.955   6.228  16.501 -0.0896  1.5625  0.7221
14683TIP3   OH265463   5.974   4.084  13.531 -0.2096 -0.1634  0.0851
14683TIP3    H165464   6.058   4.080  13.577  0.1837 -0.8241 -0.6471
14683TIP3    H265465   5.908   4.075  13.599  0.2406  2.2030  0.9053
14684TIP3   OH265466   1.388   2.932   0.707  0.6390 -1.0705 -0.2737
14684TIP3    H165467   1.315   2.985   0.739  2.0689  0.9471 -0.1798
14684TIP3    H265468   1.375   2.930   0.612  0.6709 -0.3975 -0.2945
14685TIP3   OH265469   3.887   4.888  14.529  0.1841  0.0657 -0.6385
14685TIP3    H165470   3.804   4.916  14.491 -0.2006  0.5497  0.4995
14685TIP3    H265471   3.870   4.800  14.563 -0.5274  0.9043  1.3910
14686TIP3   OH265472   6.612   0.254   4.196  0.5043  0.9576  0.0243
14686TIP3    H165473   6.673   0.297   4.257  0.1486  0.6314  0.6140
14686TIP3    H265474   6.609   0.163   4.225 -0.2879  0.9767  0.0146
14687TIP3   OH265475   6.127   5.988   2.750  0.0695 -0.1237  0.2142
14687TIP3    H165476   6.033   6.000   2.736 -0.1098  0.7107  1.8739
14687TIP3    H265477   6.166   6.073   2.730  0.3580 -0.2222  0.3410
14688TIP3   OH265478   3.026   1.891   3.449  0.1417  0.2139  0.3846
14688TIP3    H165479   2.960   1.935   3.396  0.7562  1.6082  0.7153
14688TIP3    H265480   3.052   1.956   3.514 -1.1240 -1.6624  2.9495
14689TIP3   OH265481   2.782   3.348  16.092  0.4768 -0.5341 -0.5815
14689TIP3    H165482   2.786   3.263  16.136  1.0242  0.9803  2.6058
14689TIP3    H265483   2.688   3.364  16.081  0.3651 -1.5115 -1.2430
14690TIP3   OH265484   6.077   4.304  15.283  0.0894 -0.0856 -0.1614
14690TIP3    H165485   6.071   4.237  15.352  1.8445  0.1272  0.2604
14690TIP3    H265486   6.167   4.296  15.251 -0.2949  0.7351 -1.5070
14691TIP3   OH265487   3.713   6.052   1.450  0.1447  0.3710  0.1633
14691TIP3    H165488   3.768   6.037   1.527 -1.1273  0.0438  1.0371
14691TIP3    H265489   3.628   6.015   1.474 -0.2512  0.1737 -1.4476
14692TIP3   OH265490   2.012   4.492  15.281 -0.4226 -0.7500 -0.3964
14692TIP3    H165491   1.918   4.491  15.302 -0.3007  1.9815  0.6953
14692TIP3    H265492   2.022   4.562  15.217  1.0617  0.2622  0.8677
14693TIP3   OH265493   5.615   4.701   3.325 -0.1332  0.0050  0.4019
14693TIP3    H165494   5.631   4.660   3.410 -0.2241 -1.0326 -0.0617
14693TIP3    H265495   5.577   4.631   3.272 -1.1969  0.9642 -0.1390
14694TIP3   OH265496   3.438   0.461   2.829 -0.4494 -0.0313 -0.8085
14694TIP3    H165497   3.360   0.458   2.884 -0.0626  1.9286 -0.0544
14694TIP3    H265498   3.432   0.545   2.783  1.3515  0.3557 -0.4431
14695TIP3   OH265499   3.506   6.091  15.432  0.1734  0.0326  0.4706
14695TIP3    H165500   3.415   6.120  15.429 -0.3937 -1.6686 -0.6641
14695TIP3    H265501   3.502   6.003  15.469  0.9363 -1.2719 -2.2872
14696TIP3   OH265502   0.263   3.132  14.042  0.8304 -0.0281  0.0151
14696TIP3    H165503   0.290   3.065  14.105  1.2959  0.6479  0.5622
14696TIP3    H265504   0.174   3.154  14.067  0.9842  0.1776  0.3999
14697TIP3   OH265505   4.422   4.544   2.069  0.0614 -0.3984 -0.4256
14697TIP3    H165506   4.377   4.544   1.985  0.5491  0.5085 -0.7034
14697TIP3    H265507   4.358   4.509   2.131 -0.7705  0.1730 -0.9406
14698TIP3   OH265508   2.305   2.731   1.379 -0.3156 -0.4486 -0.0724
14698TIP3    H165509   2.363   2.668   1.335  1.0175 -0.6666  1.8861
14698TIP3    H265510   2.221   2.685   1.385 -0.9249  0.0076 -3.2647
14699TIP3   OH265511   0.334   1.954   4.948 -0.5003  0.7947  0.5492
14699TIP3    H165512   0.369   2.037   4.916 -0.6150  0.1985 -1.2542
14699TIP3    H265513   0.340   1.895   4.873 -1.0115 -0.6574  1.5970
14700TIP3   OH265514   3.150   6.138   6.244  0.2715  0.4979 -0.2149
14700TIP3    H165515   3.069   6.187   6.232 -0.8266 -1.3723 -0.8157
14700TIP3    H265516   3.184   6.127   6.155 -0.4722 -1.3483 -0.3126
14701TIP3   OH265517   5.680   6.692   4.030  0.4133  0.0955  0.8009
14701TIP3    H165518   5.685   6.643   3.948 -0.1325  0.4558  0.5528
14701TIP3    H265519   5.767   6.731   4.040 -0.0625  1.5736 -0.5465
14702TIP3   OH265520   6.120   6.721   0.594  0.4241  0.0873 -0.2384
14702TIP3    H165521   6.215   6.730   0.584  0.6551 -2.6977 -1.3406
14702TIP3    H265522   6.083   6.768   0.520  0.9650  0.6331 -0.1677
14703TIP3   OH265523   4.136   3.480   4.644  0.2456  0.6558  0.4879
14703TIP3    H165524   4.170   3.431   4.569 -0.8425  0.5600  0.0441
14703TIP3    H265525   4.138   3.571   4.616  0.5005  0.6905  0.6133
14704TIP3   OH265526   4.206   0.152  14.628 -0.5020 -0.1259 -0.0946
14704TIP3    H165527   4.263   0.173  14.554 -2.1312 -0.8360 -1.6242
14704TIP3    H265528   4.195   0.057  14.623  1.7133 -0.6624  2.9133
14705TIP3   OH265529   2.094   6.518  13.990  0.7898 -0.0257  0.2133
14705TIP3    H165530   2.045   6.523  14.071 -0.0508 -1.9229 -0.1279
14705TIP3    H265531   2.063   6.591  13.938 -2.3158 -1.5418 -0.2765
14706TIP3   OH265532   4.648   1.676   5.305  0.3821 -0.0453 -0.8752
14706TIP3    H165533   4.618   1.758   5.344 -2.0649 -0.4475 -1.7550
14706TIP3    H265534   4.592   1.609   5.343 -0.6593 -0.7209 -3.3765
14707TIP3   OH265535   6.269   1.678   0.771 -0.2499  0.0683 -0.3294
14707TIP3    H165536   6.330   1.752   0.768 -0.2700  0.2237  1.9704
14707TIP3    H265537   6.305   1.620   0.838 -0.8494 -1.5099 -1.3054
14708TIP3   OH265538   2.677   2.323   3.263  0.0931  0.2647  0.4244
14708TIP3    H165539   2.705   2.347   3.175 -1.2582 -1.6157 -0.5842
14708TIP3    H265540   2.722   2.240   3.281  0.2625  0.5674  1.4683
14709TIP3   OH265541   1.071   3.359  14.824  0.3336  0.3391 -0.1460
14709TIP3    H165542   1.052   3.306  14.901 -1.7339 -1.3123 -1.6372
14709TIP3    H265543   1.067   3.449  14.855  2.7910 -0.2474  2.2616
14710TIP3   OH265544   4.446   4.456   4.666  0.2498 -0.4010  0.1975
14710TIP3    H165545   4.429   4.430   4.575 -1.3173 -1.3366  0.7180
14710TIP3    H265546   4.366   4.432   4.713 -0.0317  2.4100  1.3662
14711TIP3   OH265547   0.105   0.854   3.467  0.1150  0.0641 -0.1454
14711TIP3    H165548   0.173   0.886   3.408 -0.3174  1.3936  0.0476
14711TIP3    H265549   0.130   0.889   3.553 -0.9856  0.8715 -0.1353
14712TIP3   OH265550   1.176   1.947  17.320 -0.0012  0.5086  0.0284
14712TIP3    H165551   1.099   1.890  17.322  0.1339  0.2936 -0.7230
14712TIP3    H265552   1.152   2.018  17.261  0.1041  0.8355  0.3772
14713TIP3   OH265553   6.636   3.613  12.584  0.0645  0.1607 -0.4020
14713TIP3    H165554   6.588   3.688  12.619 -0.7453 -1.0365  1.1505
14713TIP3    H265555   6.576   3.574  12.521  0.4542  0.7376 -1.1488
14714TIP3   OH265556   6.217   3.427   5.310 -0.8938 -0.2297 -0.8739
14714TIP3    H165557   6.276   3.408   5.237  0.5882  0.6980  0.0486
14714TIP3    H265558   6.257   3.501   5.355 -2.3895 -0.0452  0.2274
14715TIP3   OH265559   6.275   3.632   1.272 -0.0490 -0.3530 -0.6539
14715TIP3    H165560   6.220   3.635   1.351 -0.1632  0.5759 -0.7581
14715TIP3    H265561   6.357   3.673   1.299  0.3202 -1.0519 -0.7108
14716TIP3   OH265562   4.537   5.132  14.292  0.1228  0.2628 -0.3322
14716TIP3    H165563   4.570   5.123  14.202 -0.7615  0.1333 -0.6568
14716TIP3    H265564   4.445   5.107  14.286 -0.8166  3.3017 -0.0115
14717TIP3   OH265565   5.631   0.226  12.526  0.6238 -0.3045 -0.1229
14717TIP3    H165566   5.581   0.150  12.554 -0.2072  0.4484  0.4908
14717TIP3    H265567   5.685   0.249  12.602  1.8769 -1.0596 -0.7500
14718TIP3   OH265568   0.586   2.455   4.230 -0.1446 -0.3078 -0.6740
14718TIP3    H165569   0.521   2.387   4.248 -0.1669 -0.2775 -0.6370
14718TIP3    H265570   0.597   2.454   4.135 -1.5943  0.9288 -0.9106
14719TIP3   OH265571   5.706   0.949  14.831  0.3163 -0.3745 -0.0481
14719TIP3    H165572   5.672   0.869  14.792  1.3277 -0.6408 -0.3976
14719TIP3    H265573   5.797   0.930  14.851  0.4031  0.4883  0.4374
14720TIP3   OH265574   0.504   3.516   4.176  0.0418 -0.1557  0.1300
14720TIP3    H165575   0.486   3.423   4.163 -0.2834  0.1088 -1.5974
14720TIP3    H265576   0.461   3.538   4.259  1.9832 -1.9913  1.7338
14721TIP3   OH265577   1.824   3.975  17.086  0.3999  0.5182  0.1209
14721TIP3    H165578   1.906   4.016  17.110  1.5032 -1.2971 -0.3469
14721TIP3    H265579   1.807   3.912  17.156 -1.5994  2.0951  1.1726
14722TIP3   OH265580   4.526   1.521  12.545 -0.3563 -0.5061  0.6331
14722TIP3    H165581   4.448   1.498  12.495 -0.4439 -0.0060  0.5364
14722TIP3    H265582   4.504   1.603  12.588 -0.3627 -1.0388  1.6824
14723TIP3   OH265583   4.535   2.752  14.611  0.0331 -0.1305 -0.1309
14723TIP3    H165584   4.616   2.796  14.588 -0.4465  0.2308 -1.1644
14723TIP3    H265585   4.552   2.714  14.698  1.0580  0.5251 -0.0345
14724TIP3   OH265586   0.583   5.473  17.350  0.1603  0.2260 -0.6388
14724TIP3    H165587   0.607   5.397  17.404 -1.6562  0.0408  0.0025
14724TIP3    H265588   0.608   5.449  17.261  2.5533  0.2306 -0.0404
14725TIP3   OH265589   3.565   3.190  16.781 -0.3042 -0.2615 -0.1911
14725TIP3    H165590   3.482   3.229  16.809 -0.6269 -0.7248 -0.5003
14725TIP3    H265591   3.580   3.227  16.694 -0.1609 -0.1469 -0.1189
14726TIP3   OH265592   2.306   4.372  12.531 -0.3745 -0.2837 -0.6429
14726TIP3    H165593   2.312   4.468  12.538 -0.1520 -0.2621 -1.0821
14726TIP3    H265594   2.387   4.347  12.486 -0.2253 -0.7227 -0.1426
14727TIP3   OH265595   4.367   5.683   0.511  0.3132 -0.4070 -0.1712
14727TIP3    H165596   4.286   5.706   0.465 -0.6096 -0.7032  1.2511
14727TIP3    H265597   4.417   5.632   0.448  0.0584  1.0112 -1.5777
14728TIP3   OH265598   0.756   5.554  12.013  0.9627  0.4641  0.3975
14728TIP3    H165599   0.761   5.477  11.956 -3.3252 -1.7555  2.5531
14728TIP3    H265600   0.837   5.550  12.064  1.4530 -1.8881 -0.4150
14729TIP3   OH265601   3.826   1.697   5.407  0.4296 -0.6034  0.1467
14729TIP3    H165602   3.831   1.626   5.342  0.1467  1.4129 -2.2408
14729TIP3    H265603   3.743   1.683   5.452  0.8618 -2.3420  0.5079
14730TIP3   OH265604   5.400   2.152  15.388 -0.0268  0.3220  0.6628
14730TIP3    H165605   5.441   2.233  15.358  1.2789 -0.1625  1.0388
14730TIP3    H265606   5.472   2.089  15.389 -0.5411 -0.2928  2.4382
14731TIP3   OH265607   0.976   2.346   2.434 -0.6511 -0.0256 -0.3916
14731TIP3    H165608   0.915   2.285   2.392 -0.4661 -0.2412 -0.3505
14731TIP3    H265609   1.041   2.366   2.367  1.1329 -2.3818  0.4951
14732TIP3   OH265610   4.357   5.459  15.712 -0.8398  0.7122  0.3308
14732TIP3    H165611   4.332   5.518  15.783 -0.6581  1.1931 -0.0031
14732TIP3    H265612   4.320   5.375  15.737  0.9101  0.3692  2.0351
14733TIP3   OH265613   1.839   2.717  13.632  0.1890  0.8548 -0.2760
14733TIP3    H165614   1.853   2.724  13.726 -2.3817  0.7289  0.1917
14733TIP3    H265615   1.777   2.786  13.611  0.7079  0.8758 -1.9036
14734TIP3   OH265616   2.470   5.076  11.658  0.3096 -0.1769 -0.2115
14734TIP3    H165617   2.528   5.002  11.638  0.4861 -0.2191  0.4175
14734TIP3    H265618   2.527   5.140  11.700 -0.0570 -0.1393  0.2409
14735TIP3   OH265619   2.458   2.860  14.109 -0.1980  0.1256  0.2485
14735TIP3    H165620   2.414   2.905  14.036  0.5560 -2.5088 -1.9732
14735TIP3    H265621   2.386   2.823  14.160 -0.7149  0.3627 -0.2841
14736TIP3   OH265622   2.662   5.812   1.733  0.3681 -0.0105 -0.6589
14736TIP3    H165623   2.649   5.858   1.650  1.8260  2.2892  0.2862
14736TIP3    H265624   2.598   5.853   1.792 -1.4098 -2.3609 -0.8116
14737TIP3   OH265625   1.902   6.627   2.447  0.7430 -0.5274  0.3985
14737TIP3    H165626   1.877   6.564   2.516 -2.0239 -0.9647 -0.8532
14737TIP3    H265627   1.959   6.577   2.389  0.4634 -1.1796  0.6701
14738TIP3   OH265628   1.369   2.963   1.817 -0.2402 -0.3271 -0.0742
14738TIP3    H165629   1.413   2.992   1.737 -1.0042  1.2375  0.0476
14738TIP3    H265630   1.419   2.886   1.845  0.1889 -0.7544 -1.9007
14739TIP3   OH265631   4.377   3.420  17.316 -0.5230 -0.0211 -1.0163
14739TIP3    H165632   4.416   3.415  17.229  0.1661 -2.5610 -0.6406
14739TIP3    H265633   4.323   3.341  17.322 -2.0678  1.0703  0.2036
14740TIP3   OH265634   5.795   2.197   1.722 -0.1209 -0.6335  0.0814
14740TIP3    H165635   5.858   2.127   1.704  0.2951 -0.6479  1.4482
14740TIP3    H265636   5.830   2.273   1.676  0.0670 -1.0342 -0.4427
14741TIP3   OH265637   5.480   5.133   3.634  0.2283  0.4508 -0.5882
14741TIP3    H165638   5.411   5.196   3.657  0.9542  1.4822 -1.1754
14741TIP3    H265639   5.515   5.165   3.551 -0.9279 -2.0350 -2.1367
14742TIP3   OH265640   3.373   3.152   4.779  0.3373 -0.1365  0.1662
14742TIP3    H165641   3.328   3.197   4.851  0.1835  0.1098 -0.0826
14742TIP3    H265642   3.414   3.222   4.728  1.4730 -0.3961  0.6933
14743TIP3   OH265643   1.574   3.916  16.331 -1.1313  0.1850 -0.9446
14743TIP3    H165644   1.594   3.999  16.289 -1.1998  0.0214 -1.2994
14743TIP3    H265645   1.495   3.884  16.287 -0.2178 -0.8270 -1.9223
14744TIP3   OH265646   6.223   6.144  11.616 -0.4876  0.0249 -0.1241
14744TIP3    H165647   6.147   6.105  11.573 -0.0251 -1.9682  0.7498
14744TIP3    H265648   6.248   6.217  11.559 -2.4447  0.1228 -0.9358
14745TIP3   OH265649   5.734   2.076   5.180  0.2909 -0.0642 -0.8936
14745TIP3    H165650   5.673   2.039   5.244 -0.0235  0.1166 -1.0817
14745TIP3    H265651   5.795   2.128   5.231 -1.4429  2.1755 -0.9069
14746TIP3   OH265652   2.246   2.099  17.127  0.1848  0.2548 -0.4910
14746TIP3    H165653   2.228   2.192  17.109 -0.7023  0.1806 -0.0431
14746TIP3    H265654   2.188   2.052  17.067  1.7665 -0.0590 -1.8712
14747TIP3   OH265655   0.526   5.672  11.244 -0.1604  0.1388  0.3971
14747TIP3    H165656   0.455   5.714  11.193  0.0148 -0.6716 -0.5402
14747TIP3    H265657   0.594   5.739  11.248 -0.0793  0.1365 -0.6586
14748TIP3   OH265658   3.992   2.285  15.347 -0.0200  0.5450 -0.1851
14748TIP3    H165659   4.021   2.208  15.396 -0.5884 -0.7628 -1.7702
14748TIP3    H265660   4.032   2.274  15.260 -2.3461  0.4849 -1.3346
14749TIP3   OH265661   4.088   3.770   0.447  0.8164  0.0725 -0.4275
14749TIP3    H165662   4.040   3.844   0.409  0.4678  0.1425  0.1280
14749TIP3    H265663   4.166   3.810   0.486 -0.4261  0.5214  1.8075
14750TIP3   OH265664   4.172   2.770   4.726 -0.4177  0.4940  0.2688
14750TIP3    H165665   4.179   2.699   4.662  0.4776  1.5735 -0.8696
14750TIP3    H265666   4.242   2.752   4.789  0.7745  1.1293 -0.8324
14751TIP3   OH265667   5.218   1.280   2.651 -0.0364 -0.3652 -0.1781
14751TIP3    H165668   5.181   1.293   2.738 -0.2779  1.7939 -0.5645
14751TIP3    H265669   5.231   1.185   2.645  1.4237 -0.4499  2.7714
14752TIP3   OH265670   3.690   4.704  16.972  0.4729 -0.6238  0.0142
14752TIP3    H165671   3.762   4.734  16.918 -0.2819  1.1213 -0.0834
14752TIP3    H265672   3.614   4.705  16.915  0.1943 -1.6079  0.3445
14753TIP3   OH265673   0.387   5.252  13.931  0.7170  0.4124 -0.3643
14753TIP3    H165674   0.454   5.186  13.943 -0.0042 -0.5252 -1.3146
14753TIP3    H265675   0.356   5.240  13.841  1.5588  3.0075 -1.1103
14754TIP3   OH265676   6.187   1.671  10.665 -0.5308 -0.3945 -0.0951
14754TIP3    H165677   6.220   1.585  10.690 -0.7013 -1.0777 -2.0245
14754TIP3    H265678   6.094   1.657  10.645 -0.5821  0.2450 -0.3514
14755TIP3   OH265679   1.789   6.317  17.235  0.2583 -0.4643  0.6494
14755TIP3    H165680   1.834   6.237  17.263  0.9762 -0.8190 -1.3297
14755TIP3    H265681   1.714   6.324  17.294 -0.1056 -2.8921  0.5921
14756TIP3   OH265682   1.074   4.218  12.774  0.6038 -0.5650 -0.2048
14756TIP3    H165683   1.009   4.165  12.819  2.0515 -0.3297  2.3633
14756TIP3    H265684   1.140   4.155  12.745  1.0842 -0.4296  0.5873
14757TIP3   OH265685   6.117   6.323  15.838 -0.4010  0.0015 -0.0639
14757TIP3    H165686   6.072   6.400  15.872 -1.0316 -0.2934 -0.2055
14757TIP3    H265687   6.206   6.352  15.821 -0.4843  0.5461  0.4160
14758TIP3   OH265688   0.218   5.791  14.172  0.6329 -0.1551  0.3398
14758TIP3    H165689   0.276   5.858  14.206 -0.9613  3.0203 -2.6105
14758TIP3    H265690   0.130   5.821  14.195 -0.1227 -2.1265  0.2811
14759TIP3   OH265691   0.784   2.283  13.002  0.1139 -0.4392 -0.1961
14759TIP3    H165692   0.783   2.266  12.908  0.2667 -0.7643 -0.1403
14759TIP3    H265693   0.804   2.376  13.009 -2.0277  0.1011 -0.5430
14760TIP3   OH265694   2.018   5.290   5.328 -0.0783 -0.1323 -0.2098
14760TIP3    H165695   1.930   5.299   5.364  0.2700  1.1070  0.3796
14760TIP3    H265696   2.075   5.281   5.405  0.3169 -0.9547 -0.5814
14761TIP3   OH265697   0.020   3.894  11.363  0.6022  0.3898 -0.1181
14761TIP3    H165698  -0.027   3.893  11.279  1.6162 -0.5151 -0.7015
14761TIP3    H265699   0.082   3.967  11.354  0.0640  0.8996  0.2319
14762TIP3   OH265700   5.011   2.522  13.572  0.1893 -0.5419  0.5610
14762TIP3    H165701   5.105   2.537  13.580  0.3295 -0.4176 -1.0190
14762TIP3    H265702   5.002   2.468  13.494 -1.0957  0.0305  0.2827
14763TIP3   OH265703   3.338   0.863  15.559  0.7850  0.0279  0.5186
14763TIP3    H165704   3.287   0.787  15.532 -0.4225  0.1889  2.1857
14763TIP3    H265705   3.413   0.864  15.500  0.7892 -2.4000  0.3996
14764TIP3   OH265706   0.942   2.410   4.080 -0.1919 -0.2931 -0.4535
14764TIP3    H165707   0.917   2.476   4.145 -0.9358  1.4417 -2.4057
14764TIP3    H265708   1.036   2.399   4.093 -0.2195  0.4410  0.5398
14765TIP3   OH265709   3.063   4.738   0.616  0.1173 -0.6818 -0.1332
14765TIP3    H165710   3.128   4.673   0.643  0.1154  0.0554  1.7407
14765TIP3    H265711   3.042   4.714   0.525 -1.0704 -4.2825  0.9131
14766TIP3   OH265712   6.635   1.888   2.583  0.5827  0.6206 -0.6756
14766TIP3    H165713   6.651   1.798   2.612  1.2520 -0.0693 -2.9687
14766TIP3    H265714   6.552   1.882   2.534  0.3039  1.3942 -0.3123
14767TIP3   OH265715   5.502   1.937   3.682  0.6586  0.4161 -0.5815
14767TIP3    H165716   5.508   1.842   3.678 -0.9064  0.2878 -0.6788
14767TIP3    H265717   5.513   1.958   3.774 -1.1267 -0.0730 -0.2276
14768TIP3   OH265718   1.172   2.396  14.799 -0.8165  0.0092  0.3072
14768TIP3    H165719   1.110   2.446  14.747 -0.3627 -0.3955 -0.6567
14768TIP3    H265720   1.239   2.460  14.825 -1.6361  0.4525  1.3876
14769TIP3   OH265721   3.956   1.391  16.975  0.2071 -0.1517 -0.4255
14769TIP3    H165722   4.043   1.358  16.997 -0.0908 -0.7669 -0.1635
14769TIP3    H265723   3.971   1.450  16.901  0.9389  0.3070  0.0800
14770TIP3   OH265724   5.534   3.895  12.489  0.3504 -0.2644  0.3163
14770TIP3    H165725   5.444   3.902  12.456  0.5433 -0.5684 -0.2865
14770TIP3    H265726   5.561   3.985  12.505  0.6082 -0.0146 -1.3517
14771TIP3   OH265727   4.252   4.130   5.905 -0.2385  0.0326  0.0520
14771TIP3    H165728   4.233   4.155   5.996  0.9528  0.1724  0.2751
14771TIP3    H265729   4.292   4.044   5.912  1.8692  0.9518 -0.1329
14772TIP3   OH265730   3.352   2.402   3.224  0.4699 -0.4955  0.2265
14772TIP3    H165731   3.305   2.392   3.307 -0.5577 -1.2918 -0.4173
14772TIP3    H265732   3.283   2.398   3.157  1.5020 -2.5930 -0.8016
14773TIP3   OH265733   3.833   1.171   2.984  0.6270 -0.4451 -0.5411
14773TIP3    H165734   3.839   1.076   2.994 -1.6380 -0.7881 -1.7045
14773TIP3    H265735   3.789   1.201   3.063  0.5337 -0.4791 -0.5805
14774TIP3   OH265736   3.072   1.584  15.196  0.4307 -0.1479  0.0240
14774TIP3    H165737   3.027   1.658  15.154  0.2796  1.2729  2.5123
14774TIP3    H265738   3.002   1.527  15.226  0.4215  0.2262  0.7223
14775TIP3   OH265739   3.503   0.989   0.221 -0.2604  0.4695 -0.8476
14775TIP3    H165740   3.432   1.050   0.200  0.7543  1.7209 -0.7703
14775TIP3    H265741   3.578   1.021   0.171 -0.0517 -1.6105 -1.9718
14776TIP3   OH265742   0.961   5.006   6.243  0.6093  0.1075  0.6048
14776TIP3    H165743   0.953   4.966   6.329 -0.2155 -2.3145 -0.5043
14776TIP3    H265744   0.884   5.062   6.234  0.9341  0.7388  1.5591
14777TIP3   OH265745   0.152   1.602  11.619  0.0537 -0.2285  0.0523
14777TIP3    H165746   0.075   1.651  11.588  0.1562 -0.6981 -0.9878
14777TIP3    H265747   0.204   1.588  11.540  2.2023  1.7550  1.0098
14778TIP3   OH265748   0.041   2.139   4.863  0.0899 -0.7839  0.1008
14778TIP3    H165749   0.116   2.091   4.827 -0.3011 -2.0406  0.9005
14778TIP3    H265750  -0.032   2.078   4.854 -1.0531  0.7146 -1.4124
14779TIP3   OH265751   1.982   3.162   5.893  0.7124 -0.1684  0.1351
14779TIP3    H165752   2.008   3.226   5.960  0.1314  0.7410 -0.5010
14779TIP3    H265753   1.898   3.128   5.925  0.7876 -0.2658  0.2303
14780TIP3   OH265754   2.249   2.181   4.390  0.2952  0.5329 -0.2506
14780TIP3    H165755   2.160   2.214   4.383  0.6916  1.6116 -0.4370
14780TIP3    H265756   2.290   2.205   4.306  0.2525 -1.6046 -0.9603
14781TIP3   OH265757   0.188   0.448   0.421  0.1351 -0.3215  0.0447
14781TIP3    H165758   0.140   0.531   0.420  0.9538  0.1925  1.0047
14781TIP3    H265759   0.266   0.467   0.474  1.9258 -0.8202 -2.2281
14782TIP3   OH265760   0.721   4.982   4.087  0.0897  0.7316 -0.8029
14782TIP3    H165761   0.812   4.966   4.063 -0.1478  1.6639 -2.4398
14782TIP3    H265762   0.685   5.032   4.014 -1.2705  1.8837  0.5955
14783TIP3   OH265763   4.009   4.033   2.587 -0.1125 -0.3671 -0.3534
14783TIP3    H165764   3.972   4.043   2.675 -0.6827  1.3918 -0.7518
14783TIP3    H265765   3.934   4.035   2.528  0.3537 -0.3997 -0.9626
14784TIP3   OH265766   0.484   1.678  13.113  0.0961 -0.4127  0.1723
14784TIP3    H165767   0.571   1.654  13.143 -0.1200 -1.8322 -0.2440
14784TIP3    H265768   0.470   1.625  13.035 -0.8608  0.3357 -0.1863
14785TIP3   OH265769   3.579   3.211  15.227 -0.0773  0.3215 -0.8353
14785TIP3    H165770   3.548   3.130  15.268 -0.6836  0.9979  0.0608
14785TIP3    H265771   3.511   3.232  15.162 -0.2269  0.4478 -0.6366
14786TIP3   OH265772   0.478   6.296  11.421  0.3791  0.0467  0.7684
14786TIP3    H165773   0.568   6.300  11.390  0.0211  1.3910 -0.1892
14786TIP3    H265774   0.469   6.369  11.481  0.0938 -0.4527  1.3445
14787TIP3   OH265775   2.026   4.098   5.685  0.3551  0.3948 -0.0496
14787TIP3    H165776   1.971   4.173   5.706  0.9173  0.7744  0.0828
14787TIP3    H265777   2.049   4.061   5.770 -1.2765 -0.9395 -0.1432
14788TIP3   OH265778   3.618   4.184   1.902 -0.1763 -0.7851 -0.7884
14788TIP3    H165779   3.697   4.132   1.886 -0.2041 -0.5108 -1.9099
14788TIP3    H265780   3.554   4.120   1.936  0.1736 -1.2372 -0.9676
14789TIP3   OH265781   6.681   2.543   0.767 -0.2441  0.1151 -0.4585
14789TIP3    H165782   6.728   2.466   0.801  1.4725 -0.2700 -3.3990
14789TIP3    H265783   6.699   2.611   0.832 -1.5068 -1.7493  2.0494
14790TIP3   OH265784   1.957   3.259   1.114  0.1523 -0.2187  0.4400
14790TIP3    H165785   2.000   3.210   1.184 -0.1563 -0.3193  0.5586
14790TIP3    H265786   1.906   3.326   1.159 -1.5959 -1.4798  0.4267
14791TIP3   OH265787   4.342   4.745  12.516 -0.2716 -0.4808  0.2716
14791TIP3    H165788   4.379   4.699  12.590 -0.4494 -0.4647  0.3722
14791TIP3    H265789   4.253   4.710  12.508 -0.1354 -0.7385 -0.1538
14792TIP3   OH265790   5.020   3.837   4.967 -0.0924 -0.0885 -0.4085
14792TIP3    H165791   5.095   3.835   4.907  1.7264  1.7803  1.6145
14792TIP3    H265792   4.960   3.901   4.929  0.8282  0.7417 -0.4991
14793TIP3   OH265793   3.840   5.922   5.177 -0.2011 -0.0472  0.4848
14793TIP3    H165794   3.901   5.957   5.112  0.1473  1.9037  1.7460
14793TIP3    H265795   3.870   5.833   5.193 -0.9730 -0.9905 -2.7368
14794TIP3   OH265796   4.341   6.579  14.975 -0.0290  0.3849 -0.0437
14794TIP3    H165797   4.326   6.494  15.017  0.9528  0.3339  0.2334
14794TIP3    H265798   4.381   6.557  14.891  0.2497  0.5653  0.0395
14795TIP3   OH265799   0.806   6.594   0.161  0.3616  0.0031  0.0517
14795TIP3    H165800   0.781   6.524   0.101 -0.8105 -0.6737  1.2714
14795TIP3    H265801   0.898   6.576   0.182  1.2451  1.0452 -2.5299
14796TIP3   OH265802   4.567   6.538  15.782 -0.3654  0.5460 -0.1259
14796TIP3    H165803   4.613   6.531  15.865  0.0578  0.7202 -0.3384
14796TIP3    H265804   4.498   6.603  15.797  0.2289  1.1846 -0.1385
14797TIP3   OH265805   0.988   5.037   0.348 -0.2708 -0.1785  0.3101
14797TIP3    H165806   1.021   5.089   0.274 -0.7214 -0.6687 -0.2509
14797TIP3    H265807   0.906   5.081   0.373  1.0155  1.3855  2.0816
14798TIP3   OH265808   1.071   5.207   2.113 -0.2704  0.1796  0.3688
14798TIP3    H165809   1.084   5.293   2.155 -0.0503  1.2274 -1.7424
14798TIP3    H265810   1.082   5.144   2.185 -3.5939  1.9659  2.7297
14799TIP3   OH265811   0.048   1.929   4.206 -0.1333 -0.6218  0.0620
14799TIP3    H165812   0.026   2.022   4.213 -0.8735 -0.7144 -0.8062
14799TIP3    H265813  -0.014   1.895   4.141 -1.2823 -2.1823  1.8668
14800TIP3   OH265814   0.387   5.258   0.022 -0.3069  0.2080  0.0678
14800TIP3    H165815   0.351   5.323   0.082 -0.4156 -0.1553  0.4061
14800TIP3    H265816   0.347   5.277  -0.063 -0.0044  0.8467  0.0653
14801TIP3   OH265817   0.730   3.121  14.743 -0.0822  0.2814 -0.5757
14801TIP3    H165818   0.716   3.046  14.686 -1.4563  0.2593 -0.2489
14801TIP3    H265819   0.715   3.087  14.831 -0.8915  0.9603 -0.4397
14802TIP3   OH265820   2.660   5.285   4.506  0.5553  0.3848  0.3108
14802TIP3    H165821   2.589   5.295   4.569  1.1108 -2.4124  1.5170
14802TIP3    H265822   2.740   5.297   4.558  1.0223  0.7859 -0.4688
14803TIP3   OH265823   6.639   3.344   0.357 -0.6818  0.0224  0.1470
14803TIP3    H165824   6.633   3.251   0.380  0.1226  0.1415  0.8992
14803TIP3    H265825   6.723   3.372   0.394  0.2539  0.4644 -2.1660
14804TIP3   OH265826   4.303   0.232  16.134  0.2756  0.2270  0.2055
14804TIP3    H165827   4.306   0.257  16.041  1.4818 -0.1797  0.1127
14804TIP3    H265828   4.253   0.151  16.135  1.0728 -0.2940 -0.2441
14805TIP3   OH265829   4.152   2.800   6.419  0.1962  0.1582 -0.2334
14805TIP3    H165830   4.081   2.836   6.473  0.8330 -2.0162  2.2700
14805TIP3    H265831   4.199   2.878   6.388 -1.5947  1.5807  0.4000
14806TIP3   OH265832   3.990   5.770  11.558 -0.5282 -0.3624 -0.1839
14806TIP3    H165833   4.067   5.773  11.615 -1.3847 -1.7546  1.0971
14806TIP3    H265834   4.014   5.708  11.489  0.2182  0.7443 -0.9633
14807TIP3   OH265835   3.715   0.561  12.396 -0.1006 -0.0317  0.3098
14807TIP3    H165836   3.770   0.633  12.364  0.1883  0.3171  1.5517
14807TIP3    H265837   3.724   0.564  12.491  0.0175 -1.7861  0.3965
14808TIP3   OH265838   4.457   4.585  12.706  0.2698 -0.2885 -0.0858
14808TIP3    H165839   4.495   4.665  12.741 -1.4629  0.6617 -0.2229
14808TIP3    H265840   4.389   4.561  12.769 -0.8752 -0.2290 -1.2348
14809TIP3   OH265841   2.012   4.838   4.416  0.0287  0.3683 -0.6592
14809TIP3    H165842   1.942   4.902   4.426  1.1268  2.0255 -2.6116
14809TIP3    H265843   2.011   4.816   4.323  0.3722 -1.6982 -0.2247
14810TIP3   OH265844   6.001   4.421   1.704  0.6394  0.2631  0.2401
14810TIP3    H165845   6.010   4.329   1.678  2.6018 -0.1180  2.0020
14810TIP3    H265846   5.914   4.426   1.744  0.3073 -0.6818 -0.3285
14811TIP3   OH265847   0.407   2.449   0.043 -0.4234 -0.0624 -0.1001
14811TIP3    H165848   0.408   2.355   0.026 -0.3103  0.0891 -1.0102
14811TIP3    H265849   0.455   2.460   0.124  0.9609 -0.6523 -0.8088
14812TIP3   OH265850   1.741   1.674  16.288 -0.2689  0.4234 -0.1477
14812TIP3    H165851   1.765   1.710  16.373 -1.2487 -0.0815  0.3585
14812TIP3    H265852   1.652   1.707  16.272 -0.6512 -0.6506 -0.2994
14813TIP3   OH265853   5.386   4.011   0.775 -0.6390 -0.1548 -0.0944
14813TIP3    H165854   5.382   3.940   0.840 -0.8891  0.1596  0.2310
14813TIP3    H265855   5.311   4.066   0.794 -2.6048 -1.7366 -2.6065
14814TIP3   OH265856   0.188   3.573  12.541 -0.4808 -0.4395  0.1445
14814TIP3    H165857   0.243   3.538  12.610 -0.2699  2.0148  1.3145
14814TIP3    H265858   0.106   3.595  12.585 -0.7840  0.0376 -0.6456
14815TIP3   OH265859   0.164   6.515  12.500 -0.2618 -0.0614 -0.2052
14815TIP3    H165860   0.073   6.505  12.528 -0.0099 -1.0661  0.2922
14815TIP3    H265861   0.163   6.496  12.406 -1.0072  2.6941 -0.8414
14816TIP3   OH265862   4.788   2.999  14.985  0.2155 -0.1146 -0.2110
14816TIP3    H165863   4.793   3.079  15.036 -2.8616  0.9672 -1.4137
14816TIP3    H265864   4.783   2.929  15.050  0.8810  0.7970  0.8573
14817TIP3   OH265865   1.224   0.038  11.831 -0.3295  0.5288 -0.3041
14817TIP3    H165866   1.253  -0.052  11.843 -0.9892  0.2201 -0.9363
14817TIP3    H265867   1.302   0.086  11.802 -0.3599 -0.2130 -1.6866
14818TIP3   OH265868   1.491   4.486   6.669  0.1603 -0.1264  0.1316
14818TIP3    H165869   1.466   4.396   6.646 -0.6717  0.3581 -0.9116
14818TIP3    H265870   1.414   4.523   6.711 -0.3647  0.8615 -1.6388
14819TIP3   OH265871   1.091   4.707   5.700 -0.3037 -0.1479  0.4901
14819TIP3    H165872   1.014   4.762   5.684  0.0646  0.2051 -0.1018
14819TIP3    H265873   1.109   4.716   5.793 -1.0728 -0.3569  0.6659
14820TIP3   OH265874   0.745   2.877  12.298  1.0474  0.0282 -0.1934
14820TIP3    H165875   0.779   2.893  12.210 -0.3360 -0.8945 -0.9438
14820TIP3    H265876   0.822   2.873  12.354  1.9510  0.6878 -1.3520
14821TIP3   OH265877   2.061   0.393  17.012 -0.0638  0.2918 -0.2855
14821TIP3    H165878   2.065   0.352  17.098  0.5826 -0.8864 -0.8450
14821TIP3    H265879   1.968   0.393  16.989 -0.3240  1.2821  0.6993
14822TIP3   OH265880   4.413   6.033   1.191 -0.2947  0.0228 -0.0012
14822TIP3    H165881   4.333   6.001   1.234 -0.2114  1.3295  1.1777
14822TIP3    H265882   4.384   6.108   1.139  0.2893  1.0090  1.0802
14823TIP3   OH265883   6.537   0.865   2.781  0.0577 -0.2868 -0.6282
14823TIP3    H165884   6.484   0.903   2.851  1.0385 -0.5647  0.2860
14823TIP3    H265885   6.584   0.939   2.744  0.4614 -0.3127 -0.1741
14824TIP3   OH265886   5.213   1.350   4.766 -0.1408 -0.0810  0.3295
14824TIP3    H165887   5.279   1.410   4.731 -0.1668  1.1503  2.2239
14824TIP3    H265888   5.246   1.326   4.853 -1.2066 -1.0849  0.4779
14825TIP3   OH265889   3.371   5.842   3.273  0.3091 -0.1109 -0.3273
14825TIP3    H165890   3.333   5.765   3.231  1.6560 -0.4287 -1.0137
14825TIP3    H265891   3.377   5.818   3.366 -0.1212 -0.4712 -0.3883
14826TIP3   OH265892   1.623   2.933   4.894 -0.3964 -0.2417  0.4063
14826TIP3    H165893   1.627   3.015   4.944  1.6881  0.2707 -0.4979
14826TIP3    H265894   1.693   2.879   4.930 -1.3632 -1.4249  0.5778
14827TIP3   OH265895   4.958   4.724  14.708 -0.5238  0.1951  0.3996
14827TIP3    H165896   5.027   4.659  14.718  0.3471  1.2236  1.2799
14827TIP3    H265897   5.001   4.808  14.724 -1.0224  1.3042 -3.1957
14828TIP3   OH265898   3.026   3.964   4.669 -0.0230  0.1479 -0.1829
14828TIP3    H165899   2.956   3.920   4.717  1.3703 -0.5751  1.3097
14828TIP3    H265900   2.984   4.037   4.624 -1.6478 -0.0089  1.0180
14829TIP3   OH265901   5.757   1.212   2.781 -0.2478 -0.4158  0.4665
14829TIP3    H165902   5.788   1.248   2.698  0.1501  0.5049  0.9965
14829TIP3    H265903   5.834   1.166   2.817 -0.4559 -0.9226  0.2772
14830TIP3   OH265904   6.652   1.385  13.213 -0.3338  0.1481 -0.7446
14830TIP3    H165905   6.625   1.477  13.205 -0.7934  0.1361  0.4607
14830TIP3    H265906   6.605   1.353  13.291  1.2893 -0.5649 -0.0197
14831TIP3   OH265907   1.658   6.253  12.618 -0.0395 -0.2108  1.0602
14831TIP3    H165908   1.656   6.308  12.697 -0.3606  0.9767  0.2589
14831TIP3    H265909   1.568   6.255  12.586 -0.1996 -1.7394  1.3350
14832TIP3   OH265910   4.179   3.905  15.823  0.2819 -0.1610  0.3754
14832TIP3    H165911   4.096   3.929  15.782 -0.1683 -0.2149  1.2398
14832TIP3    H265912   4.242   3.909  15.751 -0.4522 -0.0794 -0.2881
14833TIP3   OH265913   0.048   0.174   4.542  0.0540 -0.2878 -0.3004
14833TIP3    H165914  -0.048   0.168   4.546  0.0508 -0.4370 -0.5837
14833TIP3    H265915   0.078   0.143   4.627 -0.2034  0.9447  0.2648
14834TIP3   OH265916   6.060   3.699   4.464 -0.4472  0.4731 -0.1144
14834TIP3    H165917   6.117   3.687   4.541  1.0149  2.4220 -0.8085
14834TIP3    H265918   6.095   3.638   4.399 -0.9531 -0.3443  0.3625
14835TIP3   OH265919   3.579   0.532  11.402 -0.7038  0.4937 -0.3113
14835TIP3    H165920   3.576   0.628  11.398  1.5318  0.5682 -2.0219
14835TIP3    H265921   3.504   0.503  11.350 -3.2120  1.1751  2.6419
14836TIP3   OH265922   1.021   6.347  14.436  0.4507 -0.0897  0.1933
14836TIP3    H165923   1.084   6.351  14.508 -0.6340 -1.6438  1.2988
14836TIP3    H265924   1.037   6.261  14.396  1.1201  0.8009 -1.5363
14837TIP3   OH265925   3.649   2.955  14.429 -0.1079 -0.1643 -0.1226
14837TIP3    H165926   3.674   2.891  14.497 -1.2497  0.3736  0.8314
14837TIP3    H265927   3.555   2.966  14.440  0.0735  1.7447 -0.2137
14838TIP3   OH265928   0.820   5.530  11.247  0.2637 -0.2106 -0.2763
14838TIP3    H165929   0.848   5.539  11.338 -0.3862 -0.1392 -0.0810
14838TIP3    H265930   0.886   5.578  11.197 -0.9292  2.3120  0.4144
14839TIP3   OH265931   6.303   3.474  11.949  0.4407 -0.3239  0.4282
14839TIP3    H165932   6.353   3.538  11.898 -0.7186 -0.4960 -1.0132
14839TIP3    H265933   6.369   3.417  11.987  1.4062  0.3739 -0.1479
14840TIP3   OH265934   3.931   3.341   5.319 -0.1229  0.0016 -0.5599
14840TIP3    H165935   3.923   3.338   5.224 -0.1766  0.3021 -0.5650
14840TIP3    H265936   4.008   3.286   5.338  0.7001  1.0087 -0.8873
14841TIP3   OH265937   0.909   3.819  16.290 -0.3500 -0.0975  0.1942
14841TIP3    H165938   0.959   3.847  16.213  1.5226  0.4606  1.5551
14841TIP3    H265939   0.970   3.765  16.340 -1.8997 -1.4155  0.7497
14842TIP3   OH265940   2.930   4.091   0.252  0.3616  0.3620 -0.7213
14842TIP3    H165941   2.863   4.024   0.241 -0.5170  1.1369 -0.2324
14842TIP3    H265942   3.013   4.047   0.231 -0.1027 -1.0572  0.3183
14843TIP3   OH265943   6.223   0.063   3.525  0.4940 -0.5647 -0.0154
14843TIP3    H165944   6.278   0.017   3.588 -0.1163 -0.8204  0.3503
14843TIP3    H265945   6.248   0.155   3.533 -0.8806 -0.2962  2.0334
14844TIP3   OH265946   6.537   1.784   3.398 -0.0484 -0.3065  0.3530
14844TIP3    H165947   6.516   1.865   3.444  0.9512 -0.6972  1.5360
14844TIP3    H265948   6.614   1.750   3.443 -1.7999 -3.1495  1.4104
14845TIP3   OH265949   2.618   1.921   3.829 -0.3690  0.1050 -0.0372
14845TIP3    H165950   2.534   1.967   3.822 -0.4026  0.1501  0.5731
14845TIP3    H265951   2.633   1.914   3.924 -0.3949 -1.1920 -0.1197
14846TIP3   OH265952   3.728   1.121  16.556 -0.2002 -0.7075 -0.0896
14846TIP3    H165953   3.820   1.132  16.581 -0.8841 -0.3574  2.5203
14846TIP3    H265954   3.716   1.183  16.484  1.8356 -1.5099 -1.2119
14847TIP3   OH265955   5.344   3.593   1.195  0.0384 -0.1926  0.1692
14847TIP3    H165956   5.358   3.657   1.264 -0.8144  0.0713  0.1211
14847TIP3    H265957   5.361   3.508   1.235 -0.3989 -0.0361  0.6936
14848TIP3   OH265958   1.562   1.142  15.666 -0.4960  0.6435  0.4847
14848TIP3    H165959   1.612   1.062  15.685 -0.8947  0.2150 -0.2336
14848TIP3    H265960   1.576   1.198  15.742  1.1290  0.5547  0.2822
14849TIP3   OH265961   3.915   5.595   0.220 -0.1072  0.7174 -0.5039
14849TIP3    H165962   3.921   5.648   0.140  0.9881  2.4370  0.6389
14849TIP3    H265963   3.951   5.510   0.197 -0.6616  0.8826 -2.0600
14850TIP3   OH265964   1.007   6.043  10.731  0.1119  0.6203 -0.3438
14850TIP3    H165965   0.927   6.091  10.708  1.3718  2.3682 -1.3727
14850TIP3    H265966   0.987   6.001  10.814 -1.9859  0.6885 -0.7578
14851TIP3   OH265967   4.733   3.562   5.408 -0.8444 -1.2506 -0.2768
14851TIP3    H165968   4.714   3.632   5.345 -0.7241 -0.6452  0.3440
14851TIP3    H265969   4.828   3.551   5.403 -0.6607 -0.2873  0.7209
14852TIP3   OH265970   4.621   3.197   0.953  0.7176  0.0522 -0.6859
14852TIP3    H165971   4.647   3.258   0.884  2.0005  2.8807  2.0498
14852TIP3    H265972   4.700   3.146   0.970  0.5596 -0.2868 -0.9715
14853TIP3   OH265973   2.259   1.977   1.566 -0.4642 -0.1449  0.0600
14853TIP3    H165974   2.325   1.929   1.517 -0.2220 -1.5185  1.6205
14853TIP3    H265975   2.308   2.032   1.626 -0.7535  1.5942 -1.2293
14854TIP3   OH265976   4.387   5.684   2.842 -0.0322  0.2436  0.3859
14854TIP3    H165977   4.370   5.710   2.932  0.2371 -1.2095  0.8885
14854TIP3    H265978   4.308   5.638   2.815 -1.4916  3.4332 -1.3064
14855TIP3   OH265979   6.668   2.598   6.902 -0.3605 -0.3723 -0.0095
14855TIP3    H165980   6.726   2.596   6.826 -1.0900 -0.3306 -0.5818
14855TIP3    H265981   6.592   2.546   6.875 -0.1988 -1.1883  1.0497
14856TIP3   OH265982   5.955   4.802  13.806  0.0758  0.6190 -0.0666
14856TIP3    H165983   6.024   4.827  13.867 -0.4300 -1.1611  1.3185
14856TIP3    H265984   5.874   4.833  13.845 -0.0285  2.0544 -1.3287
14857TIP3   OH265985   0.437   3.202   0.073  0.5082 -0.3200  0.2448
14857TIP3    H165986   0.505   3.266   0.052  0.6300 -0.1034  1.2264
14857TIP3    H265987   0.407   3.170  -0.011  2.4131 -1.0485 -0.2087
14858TIP3   OH265988   1.306   5.702   5.884  0.5099  0.0991  0.2070
14858TIP3    H165989   1.233   5.729   5.940  0.1709  0.2527 -0.3021
14858TIP3    H265990   1.374   5.674   5.945 -0.7046 -2.0177  0.6949
14859TIP3   OH265991   1.477   1.024  12.594 -0.2850  0.1533 -0.3516
14859TIP3    H165992   1.431   0.996  12.515 -1.2376 -0.4126  0.3845
14859TIP3    H265993   1.447   1.113  12.609  1.0532  0.8337 -1.4468
14860TIP3   OH265994   1.176   2.834   5.936  0.2583  0.1791 -0.0602
14860TIP3    H165995   1.174   2.745   5.972 -2.1207 -0.0382 -0.5442
14860TIP3    H265996   1.267   2.862   5.946  0.7634 -1.7519  1.4448
14861TIP3   OH265997   6.324   5.725  14.880  0.3528  0.5343 -0.3191
14861TIP3    H165998   6.300   5.814  14.904  1.6394  0.7656  0.1890
14861TIP3    H265999   6.407   5.710  14.925  0.5217 -0.6578 -1.0002
14862TIP3   OH266000   0.793   3.103  10.903  0.3844  0.3096 -0.3092
14862TIP3    H166001   0.827   3.022  10.866 -0.8130 -0.4891  0.2930
14862TIP3    H266002   0.799   3.166  10.831  0.6494 -0.4872 -1.0070
14863TIP3   OH266003   2.400   2.214  12.283 -0.0983  0.1205  0.0877
14863TIP3    H166004   2.333   2.172  12.229 -0.7250  0.7870  0.3254
14863TIP3    H266005   2.469   2.239  12.221  0.0373 -0.7727 -0.1265
14864TIP3   OH266006   4.963   2.952   2.861  0.4853 -0.0418  0.4218
14864TIP3    H166007   4.977   2.974   2.769  0.4490  0.7267  0.5916
14864TIP3    H266008   5.040   2.986   2.906  0.6989 -0.7785  0.6289
14865TIP3   OH266009   6.611   4.828   5.815 -0.1631 -0.5812  0.0059
14865TIP3    H166010   6.526   4.865   5.836  0.1331  0.7785 -1.0802
14865TIP3    H266011   6.594   4.736   5.797 -1.3756 -0.3452 -0.0876
14866TIP3   OH266012   4.323   0.693   0.369  0.4054  0.3082  0.1363
14866TIP3    H166013   4.402   0.717   0.417  0.0503 -0.2795  1.0592
14866TIP3    H266014   4.267   0.770   0.375  1.2335  1.0627 -1.3031
14867TIP3   OH266015   2.911   6.568  14.613  0.4243  0.3779 -0.0839
14867TIP3    H166016   2.991   6.603  14.653  0.5872 -0.3118  0.2111
14867TIP3    H266017   2.938   6.486  14.573 -0.1034  0.2164 -0.1161
14868TIP3   OH266018   3.220   6.570   5.271  0.0465  0.2444  0.2433
14868TIP3    H166019   3.155   6.623   5.225  1.6941  1.1885 -1.0955
14868TIP3    H266020   3.199   6.480   5.246 -0.1989  0.6048 -0.9188
14869TIP3   OH266021   0.018   0.084   6.450 -0.3168 -0.3502  0.0336
14869TIP3    H166022   0.068   0.055   6.527 -0.2935  0.1885  0.2285
14869TIP3    H266023  -0.061   0.123   6.487 -0.2043  0.1075 -0.2076
14870TIP3   OH266024   3.233   2.207  13.113 -0.9467  0.0434  0.1875
14870TIP3    H166025   3.199   2.149  13.044 -0.7728  0.6194 -0.3908
14870TIP3    H266026   3.214   2.161  13.194 -2.3061 -0.0632 -0.1707
14871TIP3   OH266027   1.615   2.527  13.376  0.2054 -0.1978 -0.3209
14871TIP3    H166028   1.662   2.458  13.422 -1.8273 -0.6582  1.1772
14871TIP3    H266029   1.600   2.492  13.288  0.1314 -1.2207  0.0934
14872TIP3   OH266030   3.993   0.670  12.637 -0.0765 -0.1034  0.0195
14872TIP3    H166031   4.082   0.703  12.645  0.4607 -1.5925  0.4853
14872TIP3    H266032   3.995   0.585  12.680 -1.9275  0.1723  0.7603
14873TIP3   OH266033   6.736   4.022   4.844 -0.3222 -0.3845  0.2919
14873TIP3    H166034   6.661   4.013   4.785 -0.2167 -1.3452  0.2874
14873TIP3    H266035   6.716   3.963   4.916  0.2491 -0.3408  0.4871
14874TIP3   OH266036   0.173   6.014  12.831  0.4122  0.3053  0.2829
14874TIP3    H166037   0.160   6.090  12.888 -1.3962  1.5991 -1.6625
14874TIP3    H266038   0.127   5.943  12.875 -0.9301  1.2650  0.5166
14875TIP3   OH266039   3.831   2.893   4.710  0.1217  0.1706 -0.3586
14875TIP3    H166040   3.753   2.928   4.754 -0.1940 -1.0318  0.0965
14875TIP3    H266041   3.902   2.949   4.740 -0.1275 -0.4204  1.5213
14876TIP3   OH266042   3.986   0.215   5.149  0.1342 -0.1360  0.2452
14876TIP3    H166043   4.059   0.245   5.095 -0.4326  0.4122 -0.2349
14876TIP3    H266044   3.948   0.295   5.184 -1.0218 -0.3055 -0.5572
14877TIP3   OH266045   1.606   1.542   2.371  0.0305  0.1784  0.1196
14877TIP3    H166046   1.686   1.534   2.319  0.2029  2.0463  0.0377
14877TIP3    H266047   1.619   1.481   2.444  0.5248 -1.2053 -1.0849
14878TIP3   OH266048   2.198   1.390  15.209  0.6174  0.4909  0.1329
14878TIP3    H166049   2.169   1.393  15.118 -0.7803 -0.0940  0.5426
14878TIP3    H266050   2.175   1.302  15.239  0.0330  1.0350  1.3640
14879TIP3   OH266051   0.008   0.941   4.890  0.0089  0.4756  0.5487
14879TIP3    H166052   0.022   0.921   4.983 -0.7682 -1.0209  0.3667
14879TIP3    H266053  -0.087   0.944   4.881  0.0441 -0.6504 -0.4320
14880TIP3   OH266054   0.561   4.818   6.773  0.0147  0.2468 -0.1274
14880TIP3    H166055   0.601   4.900   6.800  0.3722 -0.2622  0.9610
14880TIP3    H266056   0.633   4.755   6.772 -0.5461 -0.4448  0.8143
14881TIP3   OH266057   1.402   0.130  11.645  0.4577  0.7495  0.0200
14881TIP3    H166058   1.315   0.150  11.610  0.2901 -0.2399 -0.1516
14881TIP3    H266059   1.436   0.061  11.587  0.6089 -0.1651  1.1580
14882TIP3   OH266060   5.540   4.293   5.195  0.3678  0.3237 -0.2176
14882TIP3    H166061   5.577   4.305   5.282 -0.2176  1.7793 -0.1354
14882TIP3    H266062   5.596   4.228   5.153 -0.2758 -1.6414  1.7892
14883TIP3   OH266063   3.690   2.627  10.882  0.0903 -0.1495  0.1013
14883TIP3    H166064   3.740   2.698  10.842  0.8051 -0.4937  0.3722
14883TIP3    H266065   3.652   2.579  10.808  2.7381 -1.7856 -0.3402
14884TIP3   OH266066   0.986   3.791  10.569 -0.7489  0.2286  0.2816
14884TIP3    H166067   1.057   3.846  10.602 -1.5886  1.1077  0.7025
14884TIP3    H266068   0.924   3.853  10.529 -1.1147 -0.5467 -0.3877
14885TIP3   OH266069   2.164   1.026  11.427  0.0111 -0.0799 -0.2663
14885TIP3    H166070   2.085   0.998  11.473  0.4954 -1.6766 -0.3542
14885TIP3    H266071   2.236   1.000  11.484  0.5064  1.3122 -0.2139
14886TIP3   OH266072   2.456   0.988   0.829 -0.1260 -0.0827  0.2959
14886TIP3    H166073   2.519   0.960   0.896  1.5923  0.4683 -1.0249
14886TIP3    H266074   2.509   1.006   0.752 -2.1728 -2.3790 -1.8310
14887TIP3   OH266075   2.115   5.270  10.716 -0.1708 -0.3417 -0.0005
14887TIP3    H166076   2.163   5.201  10.762 -0.7186 -2.2855 -2.1580
14887TIP3    H266077   2.026   5.264  10.750  0.0720  0.2414  0.7701
14888TIP3   OH266078   0.194   6.657  10.384  0.1934  0.1575 -0.2698
14888TIP3    H166079   0.234   6.698  10.308 -0.1673 -0.2847 -0.7082
14888TIP3    H266080   0.239   6.573  10.393 -0.3312 -0.1562 -0.5090
14889TIP3   OH266081   5.386   1.528   5.581 -0.0420 -0.2262 -0.4825
14889TIP3    H166082   5.462   1.475   5.560  0.1454 -0.0969 -0.1311
14889TIP3    H266083   5.417   1.618   5.573 -0.0769 -0.1748 -0.0386
14890TIP3   OH266084   1.190   1.280  12.606 -0.4451  0.5399 -0.2570
14890TIP3    H166085   1.280   1.309  12.622 -0.3162  1.0931 -1.8128
14890TIP3    H266086   1.177   1.206  12.666  1.6786 -0.7640 -1.2854
14891TIP3   OH266087   3.131   5.255   2.102  0.2292 -0.4526  0.5162
14891TIP3    H166088   3.189   5.267   2.027  0.0221 -3.2292 -0.1999
14891TIP3    H266089   3.189   5.233   2.174  0.2474 -0.4807  0.4930
14892TIP3   OH266090   1.952   0.588  11.319  0.2051  0.2584 -0.3422
14892TIP3    H166091   2.012   0.589  11.245  1.8878  0.0552  0.9648
14892TIP3    H266092   1.870   0.555  11.283  1.4145 -1.2952 -1.7931
14893TIP3   OH266093   5.013   5.071  12.517  0.2419  0.4287  0.0755
14893TIP3    H166094   5.094   5.096  12.473  0.2487 -0.4350 -0.4298
14893TIP3    H266095   5.033   4.987  12.558 -1.1036 -1.1315 -2.2202
14894TIP3   OH266096   0.708   0.664   2.118 -0.5814  1.1716  0.0356
14894TIP3    H166097   0.711   0.586   2.174 -0.0998  1.7616  0.8630
14894TIP3    H266098   0.797   0.671   2.082 -0.7769  1.0288 -0.4776
14895TIP3   OH266099   3.999   3.407   3.212 -0.0742 -0.0959  0.3836
14895TIP3    H166100   4.036   3.319   3.207  0.0126  0.0023 -0.9876
14895TIP3    H266101   4.037   3.445   3.291  1.8291 -0.4191 -0.3431
14896TIP3   OH266102   0.068   0.049   5.102 -0.2129  0.0558  0.3195
14896TIP3    H166103   0.085   0.119   5.164 -0.5684 -1.2273  1.9312
14896TIP3    H266104  -0.004  -0.000   5.140  1.8153 -2.8488  0.7636
14897TIP3   OH266105   1.287   1.701   5.785  0.1082 -0.2140 -0.0031
14897TIP3    H166106   1.274   1.755   5.707 -0.5009  0.4983  0.5772
14897TIP3    H266107   1.206   1.650   5.792 -1.3313  2.1430  2.0048
14898TIP3   OH266108   0.344   1.162  12.073 -0.5175  0.1873  0.6050
14898TIP3    H166109   0.391   1.115  12.005 -0.6982  1.7457 -0.6697
14898TIP3    H266110   0.315   1.095  12.134 -0.5414 -1.2935 -0.9806
14899TIP3   OH266111   1.554   3.517   5.681 -0.2347  0.6486  0.2126
14899TIP3    H166112   1.479   3.466   5.651  0.8247 -1.8326  1.4195
14899TIP3    H266113   1.614   3.518   5.606  0.1878 -0.9520  0.4768
14900TIP3   OH266114   1.760   4.649   5.478  0.1562 -0.0412 -0.0383
14900TIP3    H166115   1.786   4.655   5.386  0.2212 -0.8237 -0.0776
14900TIP3    H266116   1.739   4.556   5.491  2.7408 -0.5374  1.4159
14901TIP3   OH266117   5.379   4.424  16.810 -0.1212 -0.2181  0.0539
14901TIP3    H166118   5.376   4.339  16.853 -0.1559 -0.0369  0.4138
14901TIP3    H266119   5.340   4.484  16.874 -1.0921 -0.1146 -0.6163
14902TIP3   OH266120   5.224   4.717   2.278 -0.4363  0.1805  0.1105
14902TIP3    H166121   5.220   4.793   2.336  0.6178  0.2338  0.1283
14902TIP3    H266122   5.249   4.645   2.336 -2.8046 -0.5032  0.3753
14903TIP3   OH266123   0.952   2.326   4.762 -0.1985  0.4325  0.0811
14903TIP3    H166124   1.025   2.343   4.702  0.7068 -1.3181  0.5802
14903TIP3    H266125   0.985   2.353   4.848 -0.1040 -0.3669  0.3092
14904TIP3   OH266126   1.803   0.398  14.512  0.4834 -0.3941 -0.3937
14904TIP3    H166127   1.784   0.418  14.603 -0.7696 -1.5105 -0.3811
14904TIP3    H266128   1.890   0.360  14.513  0.4558 -0.4501  0.3377
14905TIP3   OH266129   5.982   4.512  13.771  0.1107 -0.3448 -0.0040
14905TIP3    H166130   5.897   4.482  13.738 -1.3925  0.6432  2.6399
14905TIP3    H266131   5.976   4.607  13.771  1.4436 -0.2398 -0.2382
14906TIP3   OH266132   4.053   4.769  16.257  0.2250 -0.4149 -0.6268
14906TIP3    H166133   4.082   4.678  16.267  0.7330 -0.3148 -1.1218
14906TIP3    H266134   4.121   4.820  16.302 -0.9631 -0.3623  1.2330
14907TIP3   OH266135   0.945   0.028  12.879  0.2030  0.4442 -0.1112
14907TIP3    H166136   0.949   0.010  12.973  1.6047 -0.6088 -0.3418
14907TIP3    H266137   0.974  -0.053  12.838 -2.1115  0.2664 -1.5532
14908TIP3   OH266138   6.078   3.417   0.960 -0.9375 -0.0530 -0.3532
14908TIP3    H166139   5.989   3.387   0.940 -1.3735  0.3997  0.8379
14908TIP3    H266140   6.070   3.462   1.044  0.3857  0.1776 -0.3312
14909TIP3   OH266141   6.020   5.182  14.059 -0.4151 -0.1029  0.3879
14909TIP3    H166142   6.064   5.152  14.139 -0.9199 -1.2555  0.2439
14909TIP3    H266143   5.929   5.155  14.071 -0.5491 -0.0346 -0.4690
14910TIP3   OH266144   6.339   4.765   2.026  0.1075 -0.1025 -0.0231
14910TIP3    H166145   6.279   4.835   2.000  0.7614  0.0057 -1.3133
14910TIP3    H266146   6.288   4.711   2.086 -0.8106  0.7807  0.0221
14911TIP3   OH266147   4.754   5.153  14.446 -0.2211  0.3242  0.2169
14911TIP3    H166148   4.680   5.126  14.391 -0.1141 -0.6161  0.5180
14911TIP3    H266149   4.751   5.249  14.444  1.3117  0.4878 -3.5671
14912TIP3   OH266150   3.509   0.086  11.820  0.7118 -0.2440  0.0358
14912TIP3    H166151   3.451   0.017  11.788  1.4837 -1.1432  0.5565
14912TIP3    H266152   3.523   0.142  11.744  1.1660 -1.4151 -0.7681
14913TIP3   OH266153   4.265   2.753  14.903 -0.1921 -0.3937  0.5590
14913TIP3    H166154   4.246   2.784  14.814 -2.0233 -1.5039  0.5108
14913TIP3    H266155   4.194   2.790  14.956 -0.5790 -1.8144  1.0739
14914TIP3   OH266156   3.376   5.031  16.408  0.2629  0.3827 -0.2797
14914TIP3    H166157   3.348   5.122  16.413 -0.9617 -0.0266  0.6741
14914TIP3    H266158   3.453   5.026  16.464 -0.3182  0.6031  0.5472
14915TIP3   OH266159   5.920   5.724   5.585  0.4779 -0.1493  0.1684
14915TIP3    H166160   5.872   5.686   5.658 -3.1026 -0.8279 -2.2939
14915TIP3    H266161   5.911   5.819   5.597  0.1774 -0.2465  0.7182
14916TIP3   OH266162   1.102   5.977  16.808 -0.2224  0.1700  0.0188
14916TIP3    H166163   1.028   5.932  16.766  1.0727 -0.7352 -1.3837
14916TIP3    H266164   1.179   5.927  16.781  0.8671  0.6743  2.0226
14917TIP3   OH266165   3.301   2.998  12.376 -0.0544 -0.1065 -0.1831
14917TIP3    H166166   3.305   2.975  12.469 -1.3851 -0.6907 -0.2554
14917TIP3    H266167   3.286   3.092  12.375 -0.0035 -0.0946  0.1990
14918TIP3   OH266168   2.131   2.340   3.268  0.2501  0.2669  0.4434
14918TIP3    H166169   2.037   2.326   3.274  0.4042 -0.2745  2.1534
14918TIP3    H266170   2.170   2.258   3.297  1.2594  0.5251 -0.1132
14919TIP3   OH266171   0.559   0.469  11.960  0.1978  0.1614 -0.2539
14919TIP3    H166172   0.512   0.550  11.977 -2.6277 -1.3610 -0.2483
14919TIP3    H266173   0.559   0.461  11.864 -0.2826 -0.2248 -0.2248
14920TIP3   OH266174   5.997   4.074   5.246  0.1261  0.8213  0.2298
14920TIP3    H166175   6.033   4.095   5.160  0.8327  2.4312  0.8652
14920TIP3    H266176   6.042   4.134   5.306 -0.7952  0.1685  1.6349
14921TIP3   OH266177   3.453   0.929  17.198 -0.2866  0.5356  0.7394
14921TIP3    H166178   3.387   0.963  17.260  0.3649 -1.0329  2.3975
14921TIP3    H266179   3.405   0.867  17.144 -0.4881  0.5225  0.9304
14922TIP3   OH266180   2.634   4.306  15.798  0.2742  0.6323 -0.3987
14922TIP3    H166181   2.719   4.350  15.790  0.2408  1.0621  1.2442
14922TIP3    H266182   2.573   4.375  15.823  0.0141 -0.1341  1.2206
14923TIP3   OH266183   4.851   3.633   6.531  0.0623 -0.4097  0.8292
14923TIP3    H166184   4.846   3.690   6.607  0.0362 -1.5351  1.6889
14923TIP3    H266185   4.943   3.639   6.503 -0.4415  2.0003 -0.6816
14924TIP3   OH266186   0.537   3.126   1.836 -0.0640  0.1938 -0.0648
14924TIP3    H166187   0.542   3.141   1.742  0.3109  1.2299  0.1110
14924TIP3    H266188   0.628   3.131   1.866 -0.2135  0.1791  0.3990
14925TIP3   OH266189   0.276   5.760  11.051  0.0349 -0.0090  0.0029
14925TIP3    H166190   0.283   5.855  11.054  1.2154 -0.0764 -0.3889
14925TIP3    H266191   0.182   5.743  11.061 -0.2340  1.2086 -0.3102
14926TIP3   OH266192   1.735   1.308  10.770 -0.7461 -0.0306  0.2149
14926TIP3    H166193   1.825   1.294  10.797 -1.5754 -2.2049  2.1647
14926TIP3    H266194   1.725   1.257  10.690 -0.9395 -2.2168  1.5610
14927TIP3   OH266195   6.281   3.836  17.280  0.3328  0.5873 -0.3116
14927TIP3    H166196   6.315   3.920  17.311 -0.7935  1.5618 -1.5286
14927TIP3    H266197   6.346   3.805  17.217  0.0611  1.3204 -0.9730
14928TIP3   OH266198   3.887   2.826  13.134 -0.2993  0.3624 -0.2172
14928TIP3    H166199   3.829   2.892  13.095  0.4424  1.9563  1.2596
14928TIP3    H266200   3.882   2.842  13.228 -0.0811 -1.7108  0.1763
14929TIP3   OH266201   2.625   3.439   1.895 -0.2364 -0.4231  0.2006
14929TIP3    H166202   2.628   3.413   1.803  0.9687  0.9896 -0.2198
14929TIP3    H266203   2.603   3.532   1.892  0.1309 -0.2865  1.3142
14930TIP3   OH266204   5.677   2.927   5.822 -0.2749 -0.5393  0.3020
14930TIP3    H166205   5.676   3.000   5.759  0.8241 -1.3146 -0.6737
14930TIP3    H266206   5.731   2.959   5.894  0.6559 -0.5438 -0.3650
14931TIP3   OH266207   0.220   1.990   5.493 -0.1957 -0.2603  0.2708
14931TIP3    H166208   0.259   2.040   5.565  1.9639  0.7402 -1.4793
14931TIP3    H266209   0.183   1.912   5.535  1.4551  0.0149  2.4014
14932TIP3   OH266210   1.768   0.614  14.340 -0.3819 -0.0063 -0.0590
14932TIP3    H166211   1.729   0.672  14.406 -1.0056  1.1052 -1.3505
14932TIP3    H266212   1.770   0.528  14.382 -2.3674  0.3018  0.8119
14933TIP3   OH266213   1.166   6.498   3.225 -0.0924  0.5705 -0.7061
14933TIP3    H166214   1.249   6.455   3.203 -0.1256 -0.2894  0.7388
14933TIP3    H266215   1.180   6.534   3.312 -1.3943 -0.0310 -0.2254
14934TIP3   OH266216   3.903   3.406   3.613 -0.2283  0.0026 -0.2330
14934TIP3    H166217   3.940   3.473   3.555 -0.2751 -1.6496 -2.2745
14934TIP3    H266218   3.900   3.449   3.699  1.3192  2.0265 -1.0878
14935TIP3   OH266219   1.625   1.934   2.257  0.3440  0.1819  0.4478
14935TIP3    H166220   1.717   1.961   2.249  0.7916 -1.2821  0.2031
14935TIP3    H266221   1.596   1.922   2.167  0.0783  0.1181  0.5425
14936TIP3   OH266222   0.501   6.372   4.529 -0.3506 -0.2386  0.2938
14936TIP3    H166223   0.456   6.405   4.606 -1.8922  1.0640 -1.0777
14936TIP3    H266224   0.558   6.444   4.501  1.1658 -1.1633  0.8942
14937TIP3   OH266225   3.072   3.405   6.566 -0.2025  0.0228  0.4770
14937TIP3    H166226   2.993   3.417   6.619 -0.2551 -1.4293  0.7556
14937TIP3    H266227   3.068   3.314   6.537 -0.3431  0.8210 -2.3421
14938TIP3   OH266228   4.706   5.471  11.315  0.2674 -0.0090 -0.6050
14938TIP3    H166229   4.633   5.410  11.324  0.0265  0.0666 -1.9725
14938TIP3    H266230   4.667   5.557  11.334  0.1287 -0.0350 -0.7703
14939TIP3   OH266231   4.242   4.887   4.934 -0.2248  0.1358  0.2575
14939TIP3    H166232   4.258   4.798   4.966  1.8290  0.3314 -0.1141
14939TIP3    H266233   4.304   4.942   4.982 -0.5283  1.1852 -0.5033
14940TIP3   OH266234   4.627   1.844  13.064 -0.4578 -0.1752  0.6005
14940TIP3    H166235   4.545   1.795  13.063 -0.2882 -0.4812  1.1828
14940TIP3    H266236   4.603   1.931  13.095 -0.9650  0.5270 -1.6019
14941TIP3   OH266237   5.257   2.864  12.004  0.1424  0.3428  0.3262
14941TIP3    H166238   5.247   2.847  12.097 -0.5079 -0.3171  0.1503
14941TIP3    H266239   5.218   2.951  11.991 -1.2034 -0.2244  0.4264
14942TIP3   OH266240   4.692   6.719  10.608  0.1138  0.2958  0.1058
14942TIP3    H166241   4.693   6.734  10.703 -2.8956  3.0365 -0.1422
14942TIP3    H266242   4.743   6.791  10.572 -0.3732  0.3717 -0.4421
14943TIP3   OH266243   3.328   1.814   5.503 -0.3867 -0.1066 -0.0398
14943TIP3    H166244   3.260   1.771   5.554 -0.1701 -0.4703 -0.0548
14943TIP3    H266245   3.294   1.902   5.488  0.5754  0.8465  2.8097
14944TIP3   OH266246   4.180   4.344   5.251 -0.0795  0.1597 -0.2190
14944TIP3    H166247   4.187   4.275   5.185 -0.1028  0.5982 -0.6984
14944TIP3    H266248   4.230   4.417   5.212 -1.2726  0.9046 -0.3945
14945TIP3   OH266249   6.431   5.169  15.867 -0.1078 -0.6542 -0.4226
14945TIP3    H166250   6.426   5.253  15.913  0.8561 -0.6058 -0.3838
14945TIP3    H266251   6.522   5.142  15.877 -0.5774 -2.0760  0.1921
14946TIP3   OH266252   5.883   5.777   6.029  0.3328  0.5991  0.4278
14946TIP3    H166253   5.911   5.754   6.117 -0.5211  0.8364  0.7630
14946TIP3    H266254   5.964   5.773   5.977  0.3650 -2.9047  0.4934
14947TIP3   OH266255   0.246   6.645  17.045 -0.2597  0.4982  0.2233
14947TIP3    H166256   0.302   6.583  17.000  1.1435  0.6725  1.6833
14947TIP3    H266257   0.255   6.726  16.994  2.2069  1.0214  1.3619
14948TIP3   OH266258   4.394   0.656   0.732  0.0463 -0.0120  0.2127
14948TIP3    H166259   4.484   0.622   0.734  0.0221 -0.0670  0.4560
14948TIP3    H266260   4.339   0.579   0.743 -0.0165  0.0683  0.4904
14949TIP3   OH266261   1.999   3.446   6.006  0.2375 -0.1877  0.2458
14949TIP3    H166262   1.938   3.430   5.934  0.3922 -1.6913  0.4024
14949TIP3    H266263   1.974   3.532   6.040 -0.9949 -0.2324 -0.4641
14950TIP3   OH266264   3.358   4.783  14.382 -0.2579 -0.2093  0.3852
14950TIP3    H166265   3.376   4.766  14.289 -2.7378  2.7661 -0.8170
14950TIP3    H266266   3.278   4.732  14.399 -0.2178 -0.1764  0.6599
14951TIP3   OH266267   1.344   5.624   2.326  0.3441  0.3670  0.0756
14951TIP3    H166268   1.322   5.630   2.419  0.6409  1.4485  0.0884
14951TIP3    H266269   1.401   5.548   2.319 -0.6055 -0.4178  0.5889
14952TIP3   OH266270   3.718   6.488   0.522 -0.7046 -0.2907  0.4102
14952TIP3    H166271   3.810   6.482   0.548 -0.9693  1.4741  2.0175
14952TIP3    H266272   3.715   6.562   0.461 -1.0347 -0.3480  0.3555
14953TIP3   OH266273   2.309   3.161  11.373  0.3218 -0.2067 -0.0951
14953TIP3    H166274   2.327   3.236  11.318  1.9272  0.1843  0.8981
14953TIP3    H266275   2.258   3.196  11.447 -0.7938 -0.5122 -0.6990
14954TIP3   OH266276   0.783   6.424  16.276 -0.5278  0.4085 -0.2252
14954TIP3    H166277   0.818   6.359  16.337 -0.5937 -0.7808 -1.4195
14954TIP3    H266278   0.689   6.423  16.292 -0.5527  0.0471 -0.3916
14955TIP3   OH266279   1.684   3.945  15.148  0.7650  0.1209 -0.2303
14955TIP3    H166280   1.718   3.972  15.063  1.3133  2.3929  0.6308
14955TIP3    H266281   1.607   4.000  15.161 -0.4600 -1.5419 -0.0226
14956TIP3   OH266282   2.770   3.294  11.934 -0.5146  0.3096 -0.1371
14956TIP3    H166283   2.760   3.363  11.999 -1.2588  1.3904 -1.3436
14956TIP3    H266284   2.848   3.246  11.961 -1.4939 -0.0905  2.2405
14957TIP3   OH266285   2.223   3.694  12.067  0.5069 -0.1044  0.4199
14957TIP3    H166286   2.201   3.757  11.998  2.2208 -1.0168 -1.0761
14957TIP3    H266287   2.274   3.744  12.130  0.7366  0.3063 -0.0820
14958TIP3   OH266288   6.310   0.882   3.781 -0.0612 -0.4869 -0.5965
14958TIP3    H166289   6.391   0.934   3.777 -1.4761  1.8147 -1.0154
14958TIP3    H266290   6.256   0.917   3.711 -2.0233 -0.9251  0.6266
14959TIP3   OH266291   5.919   4.217   2.960 -0.9390  0.0929  0.3272
14959TIP3    H166292   5.859   4.143   2.965 -0.3750 -0.2895  2.2670
14959TIP3    H266293   5.978   4.205   3.034  0.1746  1.6349 -0.2548
14960TIP3   OH266294   1.758   0.800   0.151 -0.2160 -0.8385 -0.5531
14960TIP3    H166295   1.786   0.710   0.173  0.9085 -0.5136 -0.5884
14960TIP3    H266296   1.834   0.838   0.107 -1.3302 -0.4392 -2.1952
14961TIP3   OH266297   4.298   0.125  13.476 -0.4207  0.4008 -0.1435
14961TIP3    H166298   4.351   0.050  13.451 -0.0628  0.3397  0.7684
14961TIP3    H266299   4.332   0.197  13.423  1.4800  0.6719  1.3246
14962TIP3   OH266300   2.476   5.185  12.279 -0.2511 -0.0647 -0.1051
14962TIP3    H166301   2.571   5.175  12.285  0.1090  2.4240 -0.7654
14962TIP3    H266302   2.442   5.103  12.315  2.1227 -2.0464 -1.9531
14963TIP3   OH266303   3.723   0.454   1.967 -0.3261  0.0681 -0.7952
14963TIP3    H166304   3.794   0.470   2.029  0.8400 -0.9422 -1.7955
14963TIP3    H266305   3.657   0.406   2.016 -1.4517  2.9819  0.7886
14964TIP3   OH266306   4.137   4.447  10.505  0.3407 -0.3536 -0.4607
14964TIP3    H166307   4.044   4.465  10.512  0.1873 -1.0082 -0.8102
14964TIP3    H266308   4.179   4.518  10.555 -0.3705 -0.4877  0.3332
14965TIP3   OH266309   0.849   2.273  16.639  0.3865 -0.0586 -0.0181
14965TIP3    H166310   0.808   2.189  16.617 -1.1568  0.8458 -0.7213
14965TIP3    H266311   0.803   2.303  16.717  2.2801 -0.7439  1.4611
14966TIP3   OH266312   6.015   0.176   0.424 -0.2039  0.4390  0.2029
14966TIP3    H166313   6.045   0.233   0.353  0.8425  0.3861  0.5939
14966TIP3    H266314   5.992   0.237   0.495  0.5203  0.4050  0.4730
14967TIP3   OH266315   1.685   1.932  13.215  0.7017 -0.6840  0.3402
14967TIP3    H166316   1.757   1.974  13.168  2.0205 -1.8398  1.2150
14967TIP3    H266317   1.616   1.997  13.217  1.0948 -0.1224 -1.9780
14968TIP3   OH266318   1.854   5.268  13.615  0.3618 -0.1643 -0.2179
14968TIP3    H166319   1.931   5.324  13.617 -0.0909  0.4634  0.2701
14968TIP3    H266320   1.883   5.188  13.572  1.2503  0.1079 -0.1462
14969TIP3   OH266321   5.753   0.479  16.121 -0.2049  0.5299 -0.0415
14969TIP3    H166322   5.766   0.397  16.168  0.2572  1.9164  2.4421
14969TIP3    H266323   5.819   0.478  16.051 -0.0954 -1.1034  0.0556
14970TIP3   OH266324   2.346   3.323   3.384 -0.1336 -0.3463 -0.1304
14970TIP3    H166325   2.332   3.307   3.478  0.1099  0.3960  0.0436
14970TIP3    H266326   2.304   3.249   3.340 -1.1242 -0.1796  0.5221
14971TIP3   OH266327   6.689   2.301   2.566 -0.5404  0.1179  0.1747
14971TIP3    H166328   6.597   2.299   2.591 -0.6265  2.2904  0.2230
14971TIP3    H266329   6.736   2.310   2.649 -0.4407  1.0858  0.0294
14972TIP3   OH266330   2.282   1.529   5.749 -0.1068 -0.1184  0.7674
14972TIP3    H166331   2.218   1.502   5.683  1.3152  0.7012 -1.0504
14972TIP3    H266332   2.229   1.569   5.819 -1.6722 -1.0814  0.1785
14973TIP3   OH266333   6.307   0.764   5.262 -0.0794 -0.8927  0.6781
14973TIP3    H166334   6.297   0.856   5.287 -1.4857 -1.0607  0.7931
14973TIP3    H266335   6.221   0.739   5.227  0.4840 -1.9810  0.0154
14974TIP3   OH266336   1.157   0.539  15.323 -0.4284 -0.1021 -0.3526
14974TIP3    H166337   1.243   0.579  15.306 -0.5719  0.7397  0.8227
14974TIP3    H266338   1.094   0.609  15.307 -1.0735 -1.0920 -2.6510
14975TIP3   OH266339   0.399   5.687  12.909 -0.5529 -0.3724 -0.2945
14975TIP3    H166340   0.410   5.776  12.941 -1.5991 -0.1071 -0.6540
14975TIP3    H266341   0.481   5.669  12.861 -2.0447  2.1750 -4.3363
14976TIP3   OH266342   4.749   0.244  14.420 -0.4336 -0.5088  0.4289
14976TIP3    H166343   4.764   0.326  14.375  0.2611 -1.0089 -0.2682
14976TIP3    H266344   4.772   0.176  14.356 -3.7527 -1.3371 -0.0844
14977TIP3   OH266345   3.516   3.995   0.925 -0.0326  0.1946 -0.4154
14977TIP3    H166346   3.480   3.910   0.949 -1.4110  1.3696  2.1339
14977TIP3    H266347   3.606   3.977   0.898  0.1154 -1.9315  1.2613
14978TIP3   OH266348   5.886   1.162  16.028  0.3554  0.3241  0.0011
14978TIP3    H166349   5.869   1.082  15.979 -1.4986 -1.0834  2.6847
14978TIP3    H266350   5.800   1.203  16.038  0.8743  1.2503  0.8935
14979TIP3   OH266351   5.001   1.940   3.808  0.2836  0.2014  0.4799
14979TIP3    H166352   4.992   1.886   3.729  1.7306 -1.0591  1.0955
14979TIP3    H266353   4.971   2.027   3.782 -3.1376 -1.0620 -0.2882
14980TIP3   OH266354   0.315   3.903   4.218  0.9619 -0.4558  0.0184
14980TIP3    H166355   0.356   3.956   4.287  0.4729  1.2966 -0.9562
14980TIP3    H266356   0.283   3.826   4.263  2.8971 -0.5985  1.2924
14981TIP3   OH266357   4.613   0.490  16.691  0.5641  0.2194 -0.5518
14981TIP3    H166358   4.661   0.527  16.617 -0.3645  0.5609 -0.9979
14981TIP3    H266359   4.605   0.562  16.754  0.2581  0.2943 -0.6730
14982TIP3   OH266360   6.308   4.985  13.423 -0.0326 -0.5136  0.0154
14982TIP3    H166361   6.232   5.039  13.400  2.2681  2.3290 -1.4491
14982TIP3    H266362   6.341   4.954  13.338  2.1493  0.8662  0.2837
14983TIP3   OH266363   1.484   3.465   4.144  0.1942  0.5675  0.2080
14983TIP3    H166364   1.522   3.442   4.060 -1.3799 -1.3188 -0.0810
14983TIP3    H266365   1.494   3.386   4.197 -0.1231  1.2324  1.2863
14984TIP3   OH266366   5.416   3.751  13.324  0.6176 -0.3321 -0.0501
14984TIP3    H166367   5.461   3.784  13.246  0.6738  0.0852  0.1583
14984TIP3    H266368   5.386   3.664  13.299  0.4835 -0.1309 -0.5968
14985TIP3   OH266369   1.690   3.877   0.922 -0.1235 -0.0447  0.0141
14985TIP3    H166370   1.669   3.837   1.006  1.9954  0.7948  1.0142
14985TIP3    H266371   1.763   3.937   0.941  1.1783 -0.6462 -2.5938
14986TIP3   OH266372   0.840   0.159   6.129  0.2540 -0.3967  0.2074
14986TIP3    H166373   0.746   0.162   6.112  0.2623 -0.7731  0.0883
14986TIP3    H266374   0.849   0.098   6.202  0.3027  0.5233  0.9961
14987TIP3   OH266375   2.222   5.033  13.080  0.9555 -0.3691 -0.1903
14987TIP3    H166376   2.221   5.022  13.175  1.2602 -0.8089 -0.2309
14987TIP3    H266377   2.302   5.082  13.062  0.0386  1.2377 -0.0853
14988TIP3   OH266378   0.696   5.707  16.593  0.6603  0.0247 -0.3051
14988TIP3    H166379   0.630   5.683  16.657  0.8724 -0.6586 -0.3414
14988TIP3    H266380   0.712   5.627  16.544  1.7204  0.1152 -0.1166
14989TIP3   OH266381   5.185   4.786   2.917  0.4687  0.5961  0.0156
14989TIP3    H166382   5.113   4.737   2.878  0.3202  0.4734  0.4367
14989TIP3    H266383   5.166   4.877   2.896 -0.8374  0.7644  1.7220
14990TIP3   OH266384   4.670   3.870   3.703  0.2958  0.3043  0.3505
14990TIP3    H166385   4.623   3.921   3.637  1.2981  1.7549  0.7257
14990TIP3    H266386   4.614   3.874   3.781 -0.3604 -0.4913 -0.0620
14991TIP3   OH266387   6.200   3.965  16.135  0.6561 -0.0805  0.5230
14991TIP3    H166388   6.249   3.899  16.086  2.5984  0.6267  1.3993
14991TIP3    H266389   6.139   4.002  16.072  0.3253 -1.8958 -0.2860
14992TIP3   OH266390   1.400   6.144  12.520  0.0466 -0.9040 -0.0303
14992TIP3    H166391   1.484   6.130  12.477  0.3284 -2.2817  0.9014
14992TIP3    H266392   1.335   6.137  12.449  0.6186 -1.2822 -0.5265
14993TIP3   OH266393   4.516   3.878   5.050 -0.1168  0.0753  0.0945
14993TIP3    H166394   4.561   3.854   4.969 -1.3385  0.9581 -0.8883
14993TIP3    H266395   4.423   3.865   5.030 -0.3689 -0.8744  1.7826
14994TIP3   OH266396   4.014   2.120  12.674  0.0327 -0.3941 -0.2102
14994TIP3    H166397   4.036   2.198  12.623  0.0997 -0.7728 -0.7579
14994TIP3    H266398   4.005   2.050  12.610  0.6980 -1.0078  0.3350
14995TIP3   OH266399   6.366   4.275   0.473  0.5373  0.2726  0.5666
14995TIP3    H166400   6.401   4.344   0.416  2.2317 -1.0079 -0.0215
14995TIP3    H266401   6.274   4.300   0.487  0.5969  1.6549 -1.1333
14996TIP3   OH266402   6.286   1.022  15.411 -0.0853 -0.5076  0.4194
14996TIP3    H166403   6.247   1.088  15.354  1.2678  0.4022  0.4789
14996TIP3    H266404   6.270   0.939  15.367  2.3637  0.2786 -2.2647
14997TIP3   OH266405   3.805   4.218   5.823 -1.1316  0.5143  1.4596
14997TIP3    H166406   3.751   4.228   5.902 -1.6238  1.4364  1.0253
14997TIP3    H266407   3.756   4.264   5.755 -0.2180  0.6030  0.8457
14998TIP3   OH266408   2.047   5.360  15.078 -0.7822 -0.2702  0.5444
14998TIP3    H166409   1.995   5.300  15.132 -2.2669 -0.3016 -0.8519
14998TIP3    H266410   2.030   5.446  15.115 -0.9657 -0.4024  0.7702
14999TIP3   OH266411   5.615   3.795   5.950 -0.8356  0.0895 -0.0021
14999TIP3    H166412   5.610   3.721   5.891 -0.6462 -1.2994  1.6550
14999TIP3    H266413   5.533   3.843   5.935  0.3020  1.2947 -3.1784
15000TIP3   OH266414   5.650   1.604  16.105 -0.0091 -0.2633 -0.1298
15000TIP3    H166415   5.705   1.581  16.030  0.5060  1.3328 -0.2723
15000TIP3    H266416   5.588   1.668  16.070  0.7078  1.0528  0.9662
15001TIP3   OH266417   6.125   3.299  11.827  0.1156  0.1431 -0.5217
15001TIP3    H166418   6.192   3.354  11.868  0.2110 -0.3846  0.0410
15001TIP3    H266419   6.076   3.262  11.900 -0.4569  0.1118 -0.9202
15002TIP3   OH266420   2.196   6.607  17.321 -0.1598 -0.4835  0.0827
15002TIP3    H166421   2.173   6.678  17.380 -0.1661 -0.6272  0.2538
15002TIP3    H266422   2.116   6.554  17.315 -0.5016  0.1147 -0.8988
15003TIP3   OH266423   2.560   3.484   0.927 -0.1374  0.9161  0.0450
15003TIP3    H166424   2.475   3.458   0.963 -0.0465 -0.7517 -0.8672
15003TIP3    H266425   2.541   3.565   0.880 -0.9444  1.2678  0.9186
15004TIP3   OH266426   2.401   1.928   3.579 -0.4393 -0.8645 -0.0626
15004TIP3    H166427   2.418   1.984   3.655 -0.9208 -0.4347 -0.2670
15004TIP3    H266428   2.323   1.878   3.603 -1.4543  0.3033 -0.8175
15005TIP3   OH266429   3.111   2.844   5.394 -0.2156 -0.3576 -0.2734
15005TIP3    H166430   3.175   2.785   5.434 -0.6974  0.0289  1.1183
15005TIP3    H266431   3.077   2.795   5.319  0.4481 -1.2555 -0.0061
15006TIP3   OH266432   4.362   0.577   2.867  0.5808  0.5123 -0.6153
15006TIP3    H166433   4.375   0.555   2.775  2.6709 -1.5334  0.0861
15006TIP3    H266434   4.283   0.529   2.892  1.2712 -0.7593 -0.8113
15007TIP3   OH266435   0.707   1.718  10.454  0.1151 -0.1356  0.1377
15007TIP3    H166436   0.742   1.683  10.372  0.3527  2.0367 -0.7291
15007TIP3    H266437   0.629   1.664  10.471 -1.2439  0.7399 -2.7005
15008TIP3   OH266438   5.666   5.480  14.116  0.0934  0.2412 -0.7643
15008TIP3    H166439   5.657   5.401  14.169 -1.2994  1.2459  0.6199
15008TIP3    H266440   5.599   5.471  14.048 -2.0261  1.3424  1.0187
15009TIP3   OH266441   0.535   5.488   0.352  0.3004 -0.0536 -0.6110
15009TIP3    H166442   0.627   5.470   0.372  0.4461  0.1307 -1.0956
15009TIP3    H266443   0.488   5.414   0.390  0.4474  0.7847  1.3113
15010TIP3   OH266444   5.493   4.496   2.168  0.4703  0.1920  0.1645
15010TIP3    H166445   5.425   4.436   2.135 -0.8778  1.9154 -0.3681
15010TIP3    H266446   5.475   4.503   2.262  0.7608 -0.3833  0.2651
15011TIP3   OH266447   1.677   1.258  11.161 -0.3110 -0.2697 -0.3193
15011TIP3    H166448   1.751   1.306  11.123 -0.8295 -0.7334 -1.9774
15011TIP3    H266449   1.696   1.256  11.255  0.7041  1.4570 -0.4489
15012TIP3   OH266450   3.924   2.417   6.270  0.2970  0.1676  0.4215
15012TIP3    H166451   3.875   2.385   6.194  1.4872 -0.0479 -0.2864
15012TIP3    H266452   3.865   2.479   6.312  0.0344  1.2191 -1.3847
15013TIP3   OH266453   5.397   6.660   3.459 -0.1195  0.0330 -0.1429
15013TIP3    H166454   5.395   6.623   3.547  2.1353 -2.3019 -0.9747
15013TIP3    H266455   5.329   6.612   3.411  0.8210 -1.0331 -0.4547
15014TIP3   OH266456   1.767   3.454  14.712 -0.3902 -0.0825  0.0916
15014TIP3    H166457   1.709   3.418  14.645  0.3071 -0.9619 -0.0593
15014TIP3    H266458   1.804   3.533  14.673 -1.1694  0.2701  0.0452
15015TIP3   OH266459   6.533   2.028   3.574 -0.8787  0.0126  0.1478
15015TIP3    H166460   6.607   2.088   3.569 -0.2527 -0.7911 -0.5186
15015TIP3    H266461   6.459   2.083   3.602 -0.3436  1.0978 -0.5144
15016TIP3   OH266462   4.495   6.247   5.891  0.3658  0.1338  0.1203
15016TIP3    H166463   4.482   6.239   5.796 -0.2929 -1.3347  0.3091
15016TIP3    H266464   4.562   6.182   5.912 -0.2930 -0.3366  0.8178
15017TIP3   OH266465   2.625   5.157  12.683  0.2587 -0.0970  0.0100
15017TIP3    H166466   2.553   5.110  12.725  0.3171 -0.4283 -0.2535
15017TIP3    H266467   2.643   5.107  12.603 -2.1311  2.3871 -2.2672
15018TIP3   OH266468   6.642   5.472  14.079 -0.1088  0.5803  0.0261
15018TIP3    H166469   6.568   5.416  14.103  0.8631  0.0153  1.8696
15018TIP3    H266470   6.615   5.560  14.108 -0.6050  0.6410 -0.5880
15019TIP3   OH266471   0.024   5.400   6.539  0.0562 -0.7394  0.3411
15019TIP3    H166472   0.073   5.324   6.569 -0.1723 -1.4119 -0.8903
15019TIP3    H266473  -0.022   5.369   6.460  1.6587  1.2279 -1.5129
15020TIP3   OH266474   5.055   2.108   0.011  0.5304  0.3556 -0.2698
15020TIP3    H166475   4.990   2.117  -0.059  1.0697 -0.8482 -0.9440
15020TIP3    H266476   5.128   2.061  -0.029  0.2904 -1.6248  1.4342
15021TIP3   OH266477   6.749   1.334  15.461 -0.2600  0.1011  0.3960
15021TIP3    H166478   6.789   1.338  15.374  0.3816  0.7418  0.7130
15021TIP3    H266479   6.744   1.240  15.480 -1.2524 -0.0916 -0.7048
15022TIP3   OH266480   2.225   0.416   2.152 -0.3458  0.0395  0.4544
15022TIP3    H166481   2.155   0.480   2.146  0.3883  1.0641  2.0918
15022TIP3    H266482   2.229   0.393   2.245  2.3909  1.1300  0.6964
15023TIP3   OH266483   3.841   6.541  11.098  0.5027 -0.3891 -0.1745
15023TIP3    H166484   3.848   6.547  11.193  1.8417 -3.2606  0.0247
15023TIP3    H266485   3.922   6.578  11.065 -0.2301  1.1875 -0.2940
15024TIP3   OH266486   2.772   0.378  16.455  0.9589 -0.1329  0.3155
15024TIP3    H166487   2.742   0.391  16.365  0.9623  0.0815  0.3458
15024TIP3    H266488   2.826   0.299  16.451  1.1418  0.0025  0.0840
15025TIP3   OH266489   3.377   1.779   4.490  0.0848  0.0959 -0.5323
15025TIP3    H166490   3.332   1.696   4.503 -0.2926  0.1220 -1.5711
15025TIP3    H266491   3.465   1.765   4.525  0.5377 -1.2694 -2.0530
15026TIP3   OH266492   4.701   4.125  14.972 -0.6598 -0.3606  0.7672
15026TIP3    H166493   4.681   4.134  14.879 -0.1267 -1.2727  0.5555
15026TIP3    H266494   4.705   4.215  15.005 -0.2678 -0.0111 -0.2137
15027TIP3   OH266495   1.303   3.340   3.868  0.1974 -0.0811 -0.2487
15027TIP3    H166496   1.396   3.344   3.844  0.7649 -1.6580  1.4271
15027TIP3    H266497   1.277   3.432   3.879  0.9398  0.4979 -2.7727
15028TIP3   OH266498   6.428   5.415   6.020  0.6840 -0.1267 -0.1667
15028TIP3    H166499   6.396   5.497   6.060 -1.8561 -0.2828 -1.6531
15028TIP3    H266500   6.391   5.346   6.075  0.2027 -0.2907 -0.6858
15029TIP3   OH266501   6.504   5.218  12.501 -0.1816  0.4085  0.0371
15029TIP3    H166502   6.533   5.309  12.492 -1.3128  0.6578 -1.3122
15029TIP3    H266503   6.482   5.191  12.413 -0.5255 -0.9689  0.5289
15030TIP3   OH266504   6.421   2.876   4.573 -0.2080 -0.2349  0.6294
15030TIP3    H166505   6.482   2.872   4.499 -1.8244  1.0395 -0.8315
15030TIP3    H266506   6.474   2.911   4.645  1.9405 -3.4187  0.7708
15031TIP3   OH266507   3.446   5.040   3.470  0.0506 -0.1037 -0.4128
15031TIP3    H166508   3.533   5.002   3.485  0.3728  0.2562 -1.3079
15031TIP3    H266509   3.442   5.115   3.529 -0.4542 -1.2753  1.1102
15032TIP3   OH266510   3.200   5.543  12.611  0.3009  0.2297 -0.6332
15032TIP3    H166511   3.235   5.585  12.689  0.3215 -0.6166 -0.1710
15032TIP3    H266512   3.227   5.599  12.538  2.0606 -0.0630 -0.2354
15033TIP3   OH266513   4.454   3.461   4.033  0.5430  0.2004  0.3011
15033TIP3    H166514   4.404   3.496   3.959 -1.8128  0.2175  1.7817
15033TIP3    H266515   4.453   3.367   4.021  0.5869  0.2325  0.0481
15034TIP3   OH266516   2.081   5.642   2.395  0.0348  0.4667 -0.2581
15034TIP3    H166517   2.158   5.593   2.366 -1.0364 -0.3783 -1.8172
15034TIP3    H266518   2.035   5.581   2.453 -0.3943  0.2795 -0.7917
15035TIP3   OH266519   3.821   0.155  15.687 -0.1355  0.3119  0.1433
15035TIP3    H166520   3.905   0.185  15.721 -0.4283  0.3636  0.8303
15035TIP3    H266521   3.844   0.094  15.616  0.4773  0.3405  0.3174
15036TIP3   OH266522   5.283   3.912  12.148 -0.8248  0.3239 -0.4828
15036TIP3    H166523   5.309   3.936  12.236 -0.6584 -1.4302 -0.0141
15036TIP3    H266524   5.201   3.958  12.133 -0.8901  0.5728  0.6220
15037TIP3   OH266525   0.868   3.862   3.976  0.0487 -0.5473  0.5831
15037TIP3    H166526   0.857   3.820   4.062 -2.3056 -0.2953  0.4791
15037TIP3    H266527   0.853   3.955   3.993  2.5430 -0.0396  0.3489
15038TIP3   OH266528   4.936   2.872   0.839 -0.5530  0.4383  0.0321
15038TIP3    H166529   4.860   2.890   0.785 -0.8090 -0.6081  0.0178
15038TIP3    H266530   4.903   2.816   0.909  0.3515 -0.7369 -0.4482
15039TIP3   OH266531   6.460   5.293  13.167 -0.3087 -0.0527 -0.4777
15039TIP3    H166532   6.487   5.303  13.076 -0.0048 -0.9727 -0.4992
15039TIP3    H266533   6.542   5.278  13.215 -0.7024 -2.7919 -0.5267
15040TIP3   OH266534   2.237   5.125  16.394  0.4246  0.0480  0.0133
15040TIP3    H166535   2.231   5.220  16.378  0.6552  0.5030  2.2975
15040TIP3    H266536   2.159   5.105  16.446  0.8363 -0.8202  0.3157
15041TIP3   OH266537   4.382   6.482  13.967 -0.1355 -0.1859  0.0174
15041TIP3    H166538   4.396   6.397  14.010  2.7630 -0.2773 -0.9142
15041TIP3    H266539   4.463   6.530  13.981 -0.3783  1.0922 -2.3865
15042TIP3   OH266540   2.392   1.643  16.306  0.0240 -0.3771  0.6575
15042TIP3    H166541   2.358   1.724  16.269 -1.0649 -1.5817 -1.0947
15042TIP3    H266542   2.485   1.660  16.320 -0.5279  1.7888  2.1971
15043TIP3   OH266543   2.245   3.294   3.043  0.8439 -0.4552 -0.0026
15043TIP3    H166544   2.219   3.274   3.133  3.1312 -0.2637  0.7577
15043TIP3    H266545   2.279   3.383   3.047 -0.4265  0.1348 -1.4129
15044TIP3   OH266546   5.962   4.121  12.280 -0.6790  0.0950  0.3177
15044TIP3    H166547   6.052   4.102  12.254 -0.5624 -0.4225  1.0819
15044TIP3    H266548   5.912   4.119  12.199 -0.4449 -2.1556  0.1706
15045TIP3   OH266549   6.081   4.627  15.360  0.1548 -0.2000 -0.0602
15045TIP3    H166550   5.995   4.604  15.326  0.2223 -0.5471  0.0053
15045TIP3    H266551   6.095   4.569  15.434 -0.3293  1.1084  1.0936
15046TIP3   OH266552   5.621   4.534  16.465  0.6422  0.0171 -0.3222
15046TIP3    H166553   5.668   4.516  16.546  0.1064 -0.0730 -0.0246
15046TIP3    H266554   5.567   4.456  16.451  0.1349  0.3659 -0.3307
15047TIP3   OH266555   2.491   1.575   2.616  0.0070  0.2662 -0.4097
15047TIP3    H166556   2.522   1.615   2.535 -0.7589  1.0733 -0.3204
15047TIP3    H266557   2.404   1.612   2.629 -0.4542 -0.9164  0.0501
15048TIP3   OH266558   3.857   3.121  15.104  0.0566  0.0443  0.3498
15048TIP3    H166559   3.852   3.182  15.177  1.3875 -2.3003  2.5491
15048TIP3    H266560   3.933   3.065  15.124  1.1664 -0.0698 -3.3879
15049TIP3   OH266561   4.728   1.427  13.392 -0.2092 -0.2422  0.2280
15049TIP3    H166562   4.819   1.457  13.397 -0.1801 -0.3955  0.7417
15049TIP3    H266563   4.701   1.420  13.484 -0.5244 -0.8495  0.0891
15050TIP3   OH266564   3.475   3.452  16.605  0.1657  0.0804 -0.0947
15050TIP3    H166565   3.562   3.493  16.611 -0.0346  0.6428 -0.9070
15050TIP3    H266566   3.436   3.491  16.527 -0.9335  0.0470  0.4314
15051TIP3   OH266567   2.299   4.060   2.709 -0.1798  0.0642 -0.7487
15051TIP3    H166568   2.211   4.023   2.697  0.3248 -1.7076  0.6408
15051TIP3    H266569   2.356   4.003   2.659  0.2840  0.7847 -1.0526
15052TIP3   OH266570   6.374   2.976  10.525 -0.3259 -0.0217  0.3392
15052TIP3    H166571   6.386   3.034  10.599 -1.1655 -0.6950  1.0279
15052TIP3    H266572   6.456   2.982  10.476 -1.0262  3.1580 -0.6839
15053TIP3   OH266573   0.153   3.576  13.444  0.3740  0.2896 -0.2563
15053TIP3    H166574   0.147   3.578  13.540 -2.2385 -1.0045 -0.2846
15053TIP3    H266575   0.216   3.507  13.425  1.2942  0.8934  0.4889
15054TIP3   OH266576   0.517   6.394   2.953 -0.0878  0.1897 -0.6577
15054TIP3    H166577   0.497   6.362   3.041  0.5600  0.9433 -0.2224
15054TIP3    H266578   0.575   6.326   2.916 -0.5842 -0.2637 -0.6131
15055TIP3   OH266579   6.733   5.835  14.313 -0.0205  0.4974 -0.1718
15055TIP3    H166580   6.673   5.897  14.354 -0.3423  0.3421 -0.4085
15055TIP3    H266581   6.795   5.812  14.383 -0.8830 -0.1798  0.3982
15056TIP3   OH266582   1.970   1.791  13.243  0.0750  0.2929  0.1229
15056TIP3    H166583   1.893   1.753  13.201  0.3854 -0.1040 -0.0907
15056TIP3    H266584   1.936   1.867  13.291 -0.1301  1.6259 -1.9749
15057TIP3   OH266585   0.824   2.651  14.096  0.1285  0.2368 -0.0726
15057TIP3    H166586   0.912   2.679  14.069 -0.0846  0.6192 -0.3683
15057TIP3    H266587   0.764   2.708  14.049 -0.2881 -0.0864  0.0549
15058TIP3   OH266588   1.082   1.979   5.159 -0.0283  0.5310  0.2983
15058TIP3    H166589   1.050   2.044   5.098  1.1717 -1.4661 -2.6744
15058TIP3    H266590   1.154   2.023   5.205 -0.8902  2.0580  0.2330
15059TIP3   OH266591   4.570   6.732  14.314 -0.2669  0.1752 -0.8116
15059TIP3    H166592   4.648   6.767  14.272  0.0287 -0.1159 -0.5140
15059TIP3    H266593   4.503   6.799  14.301 -0.4979 -0.3670 -2.6928
15060TIP3   OH266594   5.952   2.114   2.448  0.0991 -0.3438  0.3514
15060TIP3    H166595   5.908   2.178   2.505  2.4214  1.2247  0.5302
15060TIP3    H266596   5.964   2.037   2.504  0.1128  0.2480  1.1894
15061TIP3   OH266597   4.470   3.159   0.305  0.4050  0.2020  0.2919
15061TIP3    H166598   4.488   3.201   0.221 -0.1636 -1.1999 -0.5793
15061TIP3    H266599   4.429   3.075   0.282 -1.4839  0.5596  1.9962
15062TIP3   OH266600   4.880   1.008   5.715  0.0384  0.1837 -0.1901
15062TIP3    H166601   4.870   0.990   5.808  1.4296  1.2993  0.2033
15062TIP3    H266602   4.907   1.100   5.710 -0.2343  0.2152 -1.7074
15063TIP3   OH266603   5.471   5.120  16.234  0.0687 -0.0628 -0.1576
15063TIP3    H166604   5.468   5.186  16.165  0.2844 -0.0355 -0.1437
15063TIP3    H266605   5.504   5.041  16.190 -0.3505 -0.2076 -0.2111
15064TIP3   OH266606   3.582   0.765  15.833  0.0774  0.1364  0.1404
15064TIP3    H166607   3.600   0.790  15.742  2.5226 -2.4839 -0.2688
15064TIP3    H266608   3.531   0.684  15.826 -1.4058  0.9228  1.2098
15065TIP3   OH266609   6.178   0.071  16.052  0.0057 -0.4156  0.1847
15065TIP3    H166610   6.256   0.103  16.098 -0.8062 -0.6560  1.8120
15065TIP3    H266611   6.204   0.067  15.960  1.6517  0.2702  0.5836
15066TIP3   OH266612   2.823   5.483  12.929 -0.3116 -0.2671  0.1772
15066TIP3    H166613   2.917   5.495  12.927 -0.4708  0.9721 -1.2968
15066TIP3    H266614   2.791   5.550  12.989 -0.3754  0.3452 -0.5321
15067TIP3   OH266615   2.847   1.412   2.038  0.0688 -0.3299  0.3705
15067TIP3    H166616   2.940   1.430   2.051  0.6787 -2.1558 -0.9805
15067TIP3    H266617   2.820   1.478   1.974  0.2924  0.4919  1.0974
15068TIP3   OH266618   1.921   3.196   0.316  0.3229  0.0282 -0.2299
15068TIP3    H166619   1.913   3.121   0.257 -1.9968 -0.5691  0.7196
15068TIP3    H266620   1.909   3.159   0.404  2.3489  1.0905  0.5464
15069TIP3   OH266621   1.184   4.049  12.153  0.1152  0.2331 -0.5585
15069TIP3    H166622   1.187   4.139  12.185 -1.0693 -0.4046  1.5975
15069TIP3    H266623   1.270   4.034  12.114  0.1177  2.4622 -1.5783
15070TIP3   OH266624   4.389   5.523  11.582 -0.0811 -0.0266  0.4274
15070TIP3    H166625   4.343   5.528  11.666  2.2897  3.2162  1.7546
15070TIP3    H266626   4.340   5.581  11.524 -1.3029 -1.7056 -0.2871
15071TIP3   OH266627   3.178   3.950  12.408 -0.1856  0.3475 -0.1033
15071TIP3    H166628   3.263   3.934  12.367  0.1612  0.0018  0.7229
15071TIP3    H266629   3.162   4.044  12.394 -0.8877 -0.0596 -2.4713
15072TIP3   OH266630   4.617   5.444  16.800  0.7773 -0.0703 -0.2619
15072TIP3    H166631   4.664   5.482  16.874  0.0249 -0.4553  0.4296
15072TIP3    H266632   4.684   5.429  16.734  1.2629  1.5103 -0.1706
15073TIP3   OH266633   2.004   5.791  13.640 -0.7870  0.3713 -0.0061
15073TIP3    H166634   2.030   5.884  13.635  0.7686 -0.0542 -0.3945
15073TIP3    H266635   2.040   5.761  13.724  2.5375 -0.9162 -1.7283
15074TIP3   OH266636   2.005   2.308   6.389 -0.3729 -0.0126  0.2328
15074TIP3    H166637   2.099   2.290   6.395 -0.4251 -0.8114 -1.0285
15074TIP3    H266638   1.967   2.227   6.356 -1.3444  0.6998 -0.4236
15075TIP3   OH266639   6.520   0.556   2.065 -0.0471 -0.1416 -0.2731
15075TIP3    H166640   6.468   0.500   2.007  0.5984  0.6274 -1.6394
15075TIP3    H266641   6.475   0.640   2.063  0.8199  0.3192 -0.8776
15076TIP3   OH266642   3.535   4.811   0.077  0.3494  0.0013 -1.1192
15076TIP3    H166643   3.571   4.761   0.004  2.6789 -0.2518  0.1004
15076TIP3    H266644   3.471   4.752   0.117  0.6939 -0.7306 -1.6205
15077TIP3   OH266645   4.331   6.658   4.990  0.0052  0.1558 -0.4043
15077TIP3    H166646   4.408   6.685   4.942  0.2055 -1.2531 -0.9216
15077TIP3    H266647   4.334   6.709   5.071  1.3353  0.3189 -0.5326
15078TIP3   OH266648   5.032   0.316   4.720 -0.1199  0.0446  0.9432
15078TIP3    H166649   5.060   0.316   4.628 -2.1767 -0.6285  0.2541
15078TIP3    H266650   5.112   0.298   4.769  1.1927  1.2246 -0.6377
15079TIP3   OH266651   2.532   1.737   4.335  0.0366 -0.4613 -0.5725
15079TIP3    H166652   2.459   1.685   4.368 -0.1254 -0.9773 -1.7066
15079TIP3    H266653   2.499   1.775   4.253  0.7583 -0.0125 -0.6626
15080TIP3   OH266654   5.027   3.752   0.879 -0.2045  0.2196  0.1316
15080TIP3    H166655   5.012   3.672   0.930  1.2645  0.4401  0.9611
15080TIP3    H266656   4.991   3.731   0.792 -0.8471 -0.9297  0.6455
15081TIP3   OH266657   0.567   1.996   5.157  0.1842 -0.4674  0.3278
15081TIP3    H166658   0.539   2.010   5.248 -1.5475  0.5736 -0.3098
15081TIP3    H266659   0.491   1.957   5.115  0.9155 -0.7884 -0.7267
15082TIP3   OH266660   6.196   2.286  12.813 -0.5229  0.1148 -0.0224
15082TIP3    H166661   6.178   2.352  12.880 -0.4290 -0.4691  0.5891
15082TIP3    H266662   6.151   2.208  12.845 -0.0467 -0.3112 -0.3881
15083TIP3   OH266663   0.254   2.486  16.285  0.2815 -0.0661 -0.2255
15083TIP3    H166664   0.205   2.554  16.331 -0.2231 -0.9300  0.5604
15083TIP3    H266665   0.317   2.454  16.350 -0.4892 -1.3494 -0.0755
15084TIP3   OH266666   4.540   3.961  12.022 -0.0634  0.0068 -0.4515
15084TIP3    H166667   4.573   3.975  11.934 -0.6618 -1.0843 -0.8709
15084TIP3    H266668   4.446   3.978  12.016 -0.0807  0.1031  0.0154
15085TIP3   OH266669   2.115   5.004  17.335 -0.1627  0.5251 -0.4863
15085TIP3    H166670   2.175   4.930  17.334 -0.2929  0.3545  1.0414
15085TIP3    H266671   2.046   4.978  17.396 -1.4029  1.0168 -1.6427
15086TIP3   OH266672   5.620   3.547   1.165 -0.3600  0.0153  0.3470
15086TIP3    H166673   5.652   3.618   1.220 -0.1357  1.1394 -1.1385
15086TIP3    H266674   5.525   3.549   1.175 -0.4273  1.1174 -0.3023
15087TIP3   OH266675   5.338   3.136   4.451  0.7923  0.0117 -0.2314
15087TIP3    H166676   5.250   3.139   4.414  0.5213 -0.2099  0.3872
15087TIP3    H266677   5.359   3.043   4.456  0.8951  0.0465  0.0048
15088TIP3   OH266678   1.929   4.308  14.844 -0.6250 -0.2600  0.7707
15088TIP3    H166679   1.909   4.269  14.929  0.0131  1.1904  1.6138
15088TIP3    H266680   2.010   4.358  14.858  0.6772 -1.6433 -1.2122
15089TIP3   OH266681   0.219   0.587   3.307  0.2110 -0.1051  0.1836
15089TIP3    H166682   0.231   0.675   3.270 -1.1509 -0.3622 -0.9424
15089TIP3    H266683   0.145   0.597   3.367 -1.0650 -0.7942 -1.2089
15090TIP3   OH266684   4.988   0.445  13.786  0.4631  0.9587  0.0678
15090TIP3    H166685   4.913   0.387  13.768  1.8577 -1.3399  1.1853
15090TIP3    H266686   5.027   0.460  13.700 -0.3900  0.9257 -0.3390
15091TIP3   OH266687   0.048   4.994  13.193  0.7835 -0.2715 -0.5056
15091TIP3    H166688  -0.007   5.017  13.268  0.1667 -0.0802 -1.0059
15091TIP3    H266689   0.128   4.960  13.231  1.2174  1.5374  0.2575
15092TIP3   OH266690   4.282   2.220   0.118  0.4404 -0.1928  0.0402
15092TIP3    H166691   4.300   2.132   0.150 -0.8277 -1.2426 -1.9420
15092TIP3    H266692   4.253   2.207   0.027  0.1177  2.2580 -0.2697
15093TIP3   OH266693   4.421   0.292   1.840  0.1844  0.0118 -0.5087
15093TIP3    H166694   4.396   0.237   1.915  0.7511 -0.3682 -0.5882
15093TIP3    H266695   4.346   0.288   1.781 -0.1926  0.1618 -0.0486
15094TIP3   OH266696   4.568   2.348  15.597  0.1859  0.2498 -0.1010
15094TIP3    H166697   4.641   2.407  15.581 -1.1593  1.4432 -2.3395
15094TIP3    H266698   4.555   2.303  15.514 -1.3124 -0.3036  0.4012
15095TIP3   OH266699   2.853   6.354  15.360 -0.6859 -0.9179  0.8177
15095TIP3    H166700   2.861   6.266  15.324 -0.5638 -1.6589  2.5833
15095TIP3    H266701   2.883   6.347  15.450 -1.3680  0.7753  1.2275
15096TIP3   OH266702   5.236   5.871  16.245  0.5640 -0.6777 -0.1893
15096TIP3    H166703   5.194   5.798  16.201  0.7262  0.8872 -3.1963
15096TIP3    H266704   5.175   5.944  16.233  2.0234  0.5284 -0.5508
15097TIP3   OH266705   5.362   5.815  15.379 -0.2197  0.1646  0.0193
15097TIP3    H166706   5.306   5.797  15.303 -0.8368  1.4019  0.1487
15097TIP3    H266707   5.404   5.899  15.358 -0.8666  0.8314  1.2768
15098TIP3   OH266708   3.019   3.199  12.022 -0.3236 -0.1919  1.0307
15098TIP3    H166709   3.076   3.190  11.946 -2.0347  1.3242 -0.5414
15098TIP3    H266710   3.065   3.260  12.080  0.7525 -0.9359  0.9694
15099TIP3   OH266711   3.509   2.502  15.766 -0.4704 -0.2890  0.1496
15099TIP3    H166712   3.505   2.591  15.801 -0.2604 -0.4496  0.5905
15099TIP3    H266713   3.448   2.503  15.692 -0.0368  0.3795 -0.2157
15100TIP3   OH266714   1.298   0.602   2.269  0.2023  0.1758  0.3324
15100TIP3    H166715   1.362   0.542   2.230  0.9824  0.5775  0.9648
15100TIP3    H266716   1.290   0.673   2.205 -1.1702 -0.8436 -0.7008
15101TIP3   OH266717   0.872   6.214   5.458 -0.0701 -0.3726  0.0640
15101TIP3    H166718   0.892   6.179   5.545 -2.3735 -2.0213  0.0413
15101TIP3    H266719   0.929   6.290   5.448  1.0724 -0.8184  2.5307
15102TIP3   OH266720   5.035   2.473  12.024 -0.2577 -0.2696  0.5332
15102TIP3    H166721   5.017   2.412  12.096  0.1293  0.6035  1.4007
15102TIP3    H266722   4.959   2.466  11.967 -0.5935 -0.9628  1.0484
15103TIP3   OH266723   5.456   4.616  15.754  0.3162 -0.3177  0.1605
15103TIP3    H166724   5.411   4.664  15.685  0.3722  1.8215  1.5225
15103TIP3    H266725   5.441   4.524  15.733 -0.2554  0.2682 -2.2677
15104TIP3   OH266726   5.112   5.507  14.959  0.7063 -0.2994  0.1133
15104TIP3    H166727   5.024   5.478  14.984 -0.0432  1.5891 -0.2009
15104TIP3    H266728   5.135   5.450  14.885 -0.2752 -0.7678  0.1471
15105TIP3   OH266729   0.976   5.643   0.202  0.1694 -0.2789  0.5044
15105TIP3    H166730   1.059   5.629   0.156  0.7304  1.9913  0.6980
15105TIP3    H266731   0.932   5.559   0.199  1.4651 -0.9439 -1.6259
15106TIP3   OH266732   3.562   1.812   0.026 -0.3328  0.2049  0.6361
15106TIP3    H166733   3.586   1.729  -0.015  0.5558  0.0953  1.3560
15106TIP3    H266734   3.586   1.802   0.118 -0.7032  1.0715  0.8393
15107TIP3   OH266735   5.007   6.433   2.349  0.1878  0.1831 -0.2982
15107TIP3    H166736   4.998   6.527   2.333 -0.3153 -0.1737 -2.3462
15107TIP3    H266737   4.927   6.410   2.396 -0.0985  0.6379 -0.5469
15108TIP3   OH266738   1.791   4.802  15.235 -0.2435  0.5176  0.2079
15108TIP3    H166739   1.863   4.842  15.283 -0.4836  0.7149  0.4074
15108TIP3    H266740   1.793   4.710  15.261 -0.5886  0.6908  0.8750
15109TIP3   OH266741   0.870   1.755   0.113  0.8183 -0.3376 -0.4369
15109TIP3    H166742   0.848   1.840   0.075 -0.6222 -0.3155  0.3870
15109TIP3    H266743   0.949   1.772   0.165 -0.4510  0.9381  1.1705
15110TIP3   OH266744   3.498   0.681   4.725 -0.1596  0.1466  0.4313
15110TIP3    H166745   3.477   0.764   4.768 -1.1008  0.5352 -0.7136
15110TIP3    H266746   3.589   0.663   4.749 -0.2559  0.9915  1.4979
15111TIP3   OH266747   1.695   0.488  10.447 -0.7190 -0.6540 -0.5032
15111TIP3    H166748   1.620   0.500  10.506 -1.2873 -0.7901 -1.1917
15111TIP3    H266749   1.770   0.514  10.500 -1.2616 -0.3707  0.1525
15112TIP3   OH266750   3.554   1.996   3.387 -0.1869 -0.1984 -0.0267
15112TIP3    H166751   3.599   1.914   3.408  0.2582 -0.0950 -0.5628
15112TIP3    H266752   3.615   2.064   3.415 -0.1783 -0.0545 -0.4002
15113TIP3   OH266753   4.053   4.655  15.022 -0.1763  0.4245 -0.3788
15113TIP3    H166754   4.140   4.621  15.003  0.1646  1.1813 -0.1902
15113TIP3    H266755   4.033   4.715  14.949 -1.3960 -1.2600 -1.5089
15114TIP3   OH266756   4.115   1.132  16.359 -0.4545 -0.5141  0.4089
15114TIP3    H166757   4.049   1.063  16.352 -2.6747  1.3368  1.5179
15114TIP3    H266758   4.118   1.171  16.271 -0.1821 -1.1773  0.1244
15115TIP3   OH266759   2.867   0.912  16.473 -0.7736  0.3904 -0.2543
15115TIP3    H166760   2.892   0.932  16.563 -0.3146  0.0733 -0.3049
15115TIP3    H266761   2.921   0.971  16.419  2.4492 -2.4780 -0.5289
15116TIP3   OH266762   5.925   3.779  15.630 -0.8021 -0.1927  0.3224
15116TIP3    H166763   5.968   3.834  15.564 -0.4841  0.5356  1.1159
15116TIP3    H266764   5.917   3.836  15.706 -0.4408 -1.2598  1.1753
15117TIP3   OH266765   4.082   0.834  11.798 -0.3067  0.2034 -0.2479
15117TIP3    H166766   4.050   0.813  11.886  0.8391 -2.5724 -0.4087
15117TIP3    H266767   4.167   0.877  11.813  0.6526 -1.6920  0.0617
15118TIP3   OH266768   5.148   2.627   4.425 -0.2506 -0.2354  1.0599
15118TIP3    H166769   5.215   2.695   4.413 -0.6765  0.1823  1.0380
15118TIP3    H266770   5.198   2.546   4.432  0.1820 -0.1786 -0.8577
15119TIP3   OH266771   4.759   4.301   1.841  0.0173  0.8660  0.3808
15119TIP3    H166772   4.842   4.296   1.795  0.2106  0.6184  0.7493
15119TIP3    H266773   4.697   4.252   1.787  0.4302 -0.1217  0.7849
15120TIP3   OH266774   3.535   5.376   4.109 -0.3977  0.6264 -0.2340
15120TIP3    H166775   3.616   5.341   4.146  0.7857  3.3583  0.0287
15120TIP3    H266776   3.478   5.389   4.184 -0.8313 -0.6336 -0.3301
15121TIP3   OH266777   6.357   4.148   2.186  0.7438 -1.0705  0.1754
15121TIP3    H166778   6.288   4.081   2.178 -0.7750  0.0463  2.6025
15121TIP3    H266779   6.380   4.146   2.279 -1.0883  3.2667  0.9408
15122TIP3   OH266780   0.499   5.588  13.821  0.0514 -0.1030 -0.0060
15122TIP3    H166781   0.537   5.636  13.748 -0.0309 -0.0660 -0.0247
15122TIP3    H266782   0.425   5.642  13.851 -0.0297 -0.2068 -0.0153
15123TIP3   OH266783   5.597   5.489   0.271 -0.2302 -0.1232 -0.3264
15123TIP3    H166784   5.551   5.572   0.261  1.0150  0.4206 -1.9234
15123TIP3    H266785   5.528   5.426   0.292 -0.9738  1.5956  3.0600
15124TIP3   OH266786   3.346   6.556   5.006 -0.4654  0.2438 -0.1252
15124TIP3    H166787   3.318   6.468   5.030 -0.1674  0.4763  1.1494
15124TIP3    H266788   3.264   6.606   4.999 -0.6568 -0.1822 -1.1446
15125TIP3   OH266789   2.718   2.378  12.847  0.1320  0.5057 -0.0286
15125TIP3    H166790   2.703   2.392  12.941 -1.4426 -1.3236  0.0793
15125TIP3    H266791   2.658   2.439  12.804  0.7636  1.2570  0.1295
15126TIP3   OH266792   1.901   0.730   4.933 -0.2029 -0.1768  0.1875
15126TIP3    H166793   1.995   0.738   4.953 -0.1396  2.1067 -0.7680
15126TIP3    H266794   1.862   0.809   4.969 -1.6420 -0.6586 -0.2341
15127TIP3   OH266795   5.976   6.028   3.878  0.1500  0.1582 -0.2908
15127TIP3    H166796   5.938   5.996   3.796 -0.2075 -0.8429  0.2509
15127TIP3    H266797   6.020   5.952   3.915  1.0185  0.8172  0.0468
15128TIP3   OH266798   4.514   4.786   4.777 -0.0968 -0.0362  0.1864
15128TIP3    H166799   4.590   4.726   4.778  0.5468  0.7518  1.7443
15128TIP3    H266800   4.447   4.741   4.829 -0.0617  0.0331  0.2926
15129TIP3   OH266801   5.093   0.597   1.205  0.1728 -0.0662  0.0649
15129TIP3    H166802   5.013   0.558   1.240 -0.7851 -0.2529 -2.1429
15129TIP3    H266803   5.062   0.656   1.136  1.6151  3.7939  2.3953
15130TIP3   OH266804   1.002   6.512   4.740  0.0401  0.3407 -0.0620
15130TIP3    H166805   1.056   6.433   4.744  1.6046  1.3572 -0.2150
15130TIP3    H266806   1.033   6.566   4.813 -2.3195  0.0585  1.2326
15131TIP3   OH266807   4.582   6.467  12.343 -0.2368 -0.0354  0.2531
15131TIP3    H166808   4.506   6.521  12.366 -0.7435 -0.6544  0.0896
15131TIP3    H266809   4.588   6.403  12.413  2.2235  2.0178  2.0905
15132TIP3   OH266810   0.635   6.712  13.977 -0.4535  0.2152  0.0011
15132TIP3    H166811   0.551   6.668  13.991  0.3408 -1.1942  0.5151
15132TIP3    H266812   0.699   6.642  13.977  0.9544  1.4122  1.5805
15133TIP3   OH266813   3.591   4.175  11.371 -1.0283  0.1570 -0.0000
15133TIP3    H166814   3.631   4.259  11.350 -1.5221  1.0317  2.2416
15133TIP3    H266815   3.609   4.120  11.295 -0.8165  2.3037 -1.5897
15134TIP3   OH266816   2.880   6.629  10.890  0.3464 -0.5018  0.0658
15134TIP3    H166817   2.790   6.660  10.905  0.5827 -0.1181  0.7564
15134TIP3    H266818   2.885   6.613  10.796 -0.0987  0.5881 -0.1567
15135TIP3   OH266819   0.088   6.466  15.425  0.6406  0.0148  0.2707
15135TIP3    H166820   0.071   6.378  15.391  0.5287  0.2604 -0.3296
15135TIP3    H266821   0.055   6.525  15.356  0.0850  0.5340  0.9623
15136TIP3   OH266822   2.748   1.732   3.683  0.1550 -0.2309 -0.1765
15136TIP3    H166823   2.681   1.781   3.729 -0.7426 -1.6823  0.1199
15136TIP3    H266824   2.738   1.757   3.591 -0.9691 -0.6224 -0.1663
15137TIP3   OH266825   3.132   3.649   1.695 -0.1103  0.3191 -0.2195
15137TIP3    H166826   3.181   3.659   1.776  1.2622  0.6112 -1.0447
15137TIP3    H266827   3.123   3.738   1.661  1.7355  0.0207 -1.6941
15138TIP3   OH266828   0.403   1.062  12.418 -0.2618  0.1360  0.3215
15138TIP3    H166829   0.474   0.998  12.408  1.9503  2.1960  1.7069
15138TIP3    H266830   0.323   1.010  12.415  1.3862 -2.6407  1.0023
15139TIP3   OH266831   4.266   3.357   4.430 -0.0522  0.5144 -0.2795
15139TIP3    H166832   4.283   3.277   4.480  1.2643 -0.1059 -1.6226
15139TIP3    H266833   4.186   3.339   4.381 -1.1180  0.9713  1.2305
15140TIP3   OH266834   0.115   2.867  17.136 -0.3202  0.1504  0.2107
15140TIP3    H166835   0.083   2.815  17.209  0.1871 -0.3142  0.1094
15140TIP3    H266836   0.128   2.954  17.172  2.0610 -0.5671  1.2868
15141TIP3   OH266837   1.964   6.131  15.784  1.1525  0.7579 -0.7598
15141TIP3    H166838   1.917   6.203  15.825  2.4665  1.7032 -0.8470
15141TIP3    H266839   2.053   6.164  15.771  1.3482 -0.2703 -2.3796
15142TIP3   OH266840   1.676   0.415   0.145  0.4165 -0.4515  0.3043
15142TIP3    H166841   1.736   0.460   0.205  1.9839 -1.2721 -0.6043
15142TIP3    H266842   1.689   0.322   0.164  2.4229 -0.8733 -2.5741
15143TIP3   OH266843   1.711   1.488  11.570 -0.4427 -0.0283  0.2936
15143TIP3    H166844   1.779   1.548  11.602  0.5998  0.1488 -2.0210
15143TIP3    H266845   1.631   1.540  11.569  0.6859  1.8948 -2.8978
15144TIP3   OH266846   3.490   2.766  14.968  0.2651 -0.6338 -0.6942
15144TIP3    H166847   3.443   2.803  15.043 -1.2320 -2.1323 -0.8300
15144TIP3    H266848   3.546   2.699  15.006  0.6334 -0.3617 -0.7588
15145TIP3   OH266849   4.370   0.885  10.540  0.0701  0.6136  0.1022
15145TIP3    H166850   4.370   0.809  10.481  1.2573 -0.2047  1.1156
15145TIP3    H266851   4.429   0.948  10.499 -0.6907  0.8949 -0.5929
15146TIP3   OH266852   2.895   0.753  13.242  0.1983 -0.7254 -0.1657
15146TIP3    H166853   2.946   0.676  13.269  0.9967  0.6289  2.5887
15146TIP3    H266854   2.917   0.765  13.150  4.0481 -0.9065  0.5558
15147TIP3   OH266855   4.209   2.591  11.066  0.6456  0.0074  0.0432
15147TIP3    H166856   4.191   2.573  10.974 -0.5770 -1.9813  0.6224
15147TIP3    H266857   4.139   2.651  11.093  1.1518  0.7971 -0.3507
15148TIP3   OH266858   4.930   3.523  11.936 -0.2433 -0.2914 -0.3936
15148TIP3    H166859   5.018   3.488  11.921 -1.3510 -3.6152 -0.0673
15148TIP3    H266860   4.912   3.504  12.028 -1.8910 -1.3507 -0.8778
15149TIP3   OH266861   3.360   3.798   3.948 -0.1444  0.8262  0.0913
15149TIP3    H166862   3.439   3.808   3.895  0.3922 -2.6593  0.0485
15149TIP3    H266863   3.289   3.797   3.883  0.1314  0.4633 -0.2103
15150TIP3   OH266864   2.857   6.383   0.810 -0.1132 -0.0385 -0.4286
15150TIP3    H166865   2.880   6.459   0.757 -1.0314  0.8959  0.4876
15150TIP3    H266866   2.927   6.377   0.875 -0.7073  0.8452  0.3218
15151TIP3   OH266867   1.258   4.616   3.105  0.6006 -0.2736  0.0488
15151TIP3    H166868   1.248   4.710   3.093  1.1454 -0.0946  0.9445
15151TIP3    H266869   1.328   4.607   3.170 -0.3220 -1.2585  0.9493
15152TIP3   OH266870   2.291   2.122  10.640 -0.1497  0.1514  0.2883
15152TIP3    H166871   2.279   2.205  10.594 -0.7932  0.8550  1.6375
15152TIP3    H266872   2.218   2.068  10.611 -0.9318  0.8241  0.9390
15153TIP3   OH266873   4.814   4.071  10.660  0.3531 -0.0857  0.2834
15153TIP3    H166874   4.723   4.099  10.668  0.4195  0.2310 -0.0718
15153TIP3    H266875   4.809   3.980  10.631  0.1560  0.2280 -0.6980
15154TIP3   OH266876   2.879   2.094  17.271 -0.1717  0.2641 -0.2213
15154TIP3    H166877   2.929   2.169  17.239 -0.0655 -0.5174 -2.0365
15154TIP3    H266878   2.914   2.019  17.221 -2.0989 -0.5345 -0.4546
15155TIP3   OH266879   2.258   4.007  13.289  0.4104  0.1950 -0.1452
15155TIP3    H166880   2.286   3.971  13.373 -0.1194  0.7027  0.2595
15155TIP3    H266881   2.308   4.088  13.280  0.4851  0.1288 -0.3360
15156TIP3   OH266882   2.412   3.927  15.180 -0.5983 -0.0728 -0.4401
15156TIP3    H166883   2.362   3.896  15.104 -2.6116 -1.2327  1.2403
15156TIP3    H266884   2.405   3.855  15.244  0.9530  0.8910  0.8884
15157TIP3   OH266885   1.550   5.233  14.767  0.1826  0.4911  0.2013
15157TIP3    H166886   1.493   5.232  14.844  1.7033 -2.2658  1.4481
15157TIP3    H266887   1.635   5.203  14.800  1.1371  0.0791 -2.3963
15158TIP3   OH266888   2.562   0.682  14.496 -0.0328  0.7929  0.2877
15158TIP3    H166889   2.551   0.674  14.401  1.5098  1.9147 -0.0357
15158TIP3    H266890   2.487   0.734  14.524 -0.2275  0.9038 -0.4006
15159TIP3   OH266891   4.122   1.692  16.469 -0.0758 -0.1274 -0.3825
15159TIP3    H166892   4.215   1.672  16.468  0.1801  0.8766 -2.1717
15159TIP3    H266893   4.079   1.612  16.438  0.4634  0.2256 -2.1894
15160TIP3   OH266894   2.434   5.865  12.389  0.0734  0.8840  0.5143
15160TIP3    H166895   2.368   5.821  12.337  0.8520  1.4684 -1.0285
15160TIP3    H266896   2.462   5.799  12.453 -0.1190 -0.2218 -0.5175
15161TIP3   OH266897   2.363   6.257   0.200  0.0607  0.4234  0.1472
15161TIP3    H166898   2.409   6.174   0.189  0.5851  0.4417  1.9271
15161TIP3    H266899   2.368   6.276   0.294 -1.4413  1.6755  0.0265
15162TIP3   OH266900   6.690   0.582  16.805  0.3851  0.0546 -0.0368
15162TIP3    H166901   6.646   0.636  16.870 -0.6184 -1.7924  0.9243
15162TIP3    H266902   6.669   0.624  16.721 -1.4833  0.4363  0.5592
15163TIP3   OH266903   6.632   2.019  13.285 -0.3495  0.2688  0.1415
15163TIP3    H166904   6.706   1.999  13.228 -1.3894 -0.2003 -1.0998
15163TIP3    H266905   6.662   2.091  13.340  0.5667  1.0450 -1.3182
15164TIP3   OH266906   4.183   5.786   3.217 -0.1007 -0.5121  0.3679
15164TIP3    H166907   4.131   5.786   3.136 -0.2974 -1.2302  0.4832
15164TIP3    H266908   4.228   5.702   3.216  0.7001 -0.0874  0.5054
15165TIP3   OH266909   1.378   6.676   2.687 -0.7183  0.1180 -0.3982
15165TIP3    H166910   1.308   6.716   2.738 -0.1283 -2.0869  2.3621
15165TIP3    H266911   1.346   6.588   2.665  0.3783 -0.1793 -0.9094
15166TIP3   OH266912   4.218   2.524   1.258  0.3002 -0.2806 -0.5241
15166TIP3    H166913   4.130   2.558   1.243 -0.5633 -2.4290 -0.7335
15166TIP3    H266914   4.246   2.564   1.340  0.2563  2.4809 -1.7613
15167TIP3   OH266915   2.792   0.515   6.338 -0.0542 -0.0069  0.0168
15167TIP3    H166916   2.844   0.590   6.365  1.3476 -0.2191 -1.8448
15167TIP3    H266917   2.711   0.552   6.302  0.3428  0.5856 -0.2743
15168TIP3   OH266918   2.366   1.160  12.224  0.2434  0.3063 -0.0631
15168TIP3    H166919   2.322   1.242  12.248  0.0185 -0.2259  1.4712
15168TIP3    H266920   2.337   1.142  12.135 -3.7583 -0.6667  1.2222
15169TIP3   OH266921   0.843   6.455   5.893  0.4931  0.1655 -0.1883
15169TIP3    H166922   0.869   6.475   5.982  0.2198 -1.2709  0.2530
15169TIP3    H266923   0.911   6.493   5.838  0.5718  1.2234  0.6091
15170TIP3   OH266924   5.229   4.139   4.294  0.3876 -0.6856 -0.1063
15170TIP3    H166925   5.271   4.096   4.220 -0.4467 -0.0898 -0.9510
15170TIP3    H266926   5.241   4.232   4.278  0.8425 -0.5486  0.9107
15171TIP3   OH266927   0.137   0.557  17.170 -0.1930 -0.6658  0.3950
15171TIP3    H166928   0.153   0.465  17.191  2.4405 -0.4402 -0.1713
15171TIP3    H266929   0.079   0.554  17.093  0.1941 -1.8786  0.1232
15172TIP3   OH266930   0.355   1.832   0.218 -0.1486 -0.0247 -0.3775
15172TIP3    H166931   0.446   1.804   0.215 -0.3119 -0.6754  0.4466
15172TIP3    H266932   0.311   1.779   0.152  0.1218  0.5291 -1.0134
15173TIP3   OH266933   0.593   0.648   4.836 -0.3183  0.0542 -0.3853
15173TIP3    H166934   0.561   0.700   4.909  0.3998 -1.2873  0.9245
15173TIP3    H266935   0.592   0.558   4.868  0.2183 -0.5425 -1.9577
15174TIP3   OH266936   2.765   4.244   4.408  0.2818  0.2712 -0.1062
15174TIP3    H166937   2.679   4.203   4.417 -0.1677  1.0083 -0.9686
15174TIP3    H266938   2.797   4.215   4.322  0.3109  1.0727 -0.3703
15175TIP3   OH266939   1.795   2.158   0.224 -0.2053 -0.4568 -0.3116
15175TIP3    H166940   1.868   2.201   0.269  1.0828 -0.8352 -1.9176
15175TIP3    H266941   1.806   2.065   0.242  0.8246 -0.7099 -1.9597
15176TIP3   OH266942   6.145   3.115  17.287  0.0894  0.5061 -0.0263
15176TIP3    H166943   6.220   3.116  17.347  0.3346 -2.1357 -0.1558
15176TIP3    H266944   6.180   3.076  17.207 -1.4956 -1.4098  0.1352
15177TIP3   OH266945   2.949   2.659   4.312 -0.5230 -0.0318 -0.3282
15177TIP3    H166946   2.970   2.644   4.405 -0.7556  0.0903 -0.2564
15177TIP3    H266947   2.927   2.752   4.307 -1.7477 -0.2963 -0.2630
15178TIP3   OH266948   1.651   5.373  16.533 -0.6710 -0.6851  0.2126
15178TIP3    H166949   1.596   5.354  16.609 -0.2555 -0.7586  0.5011
15178TIP3    H266950   1.611   5.324  16.461  0.2183 -2.4672  0.8710
15179TIP3   OH266951   2.325   1.662   1.659  0.5153 -0.0142  0.0814
15179TIP3    H166952   2.261   1.606   1.704 -0.0500  0.9111  0.4406
15179TIP3    H266953   2.296   1.662   1.568 -1.1537  1.9123  0.5507
15180TIP3   OH266954   2.968   1.930  13.667  0.1283  0.0539 -0.3394
15180TIP3    H166955   2.879   1.894  13.670  0.2146 -0.1160  0.2953
15180TIP3    H266956   2.968   1.997  13.736 -0.6120  2.6515 -2.6999
15181TIP3   OH266957   1.130   6.519   5.737 -0.0483  0.3063 -0.5962
15181TIP3    H166958   1.218   6.484   5.723 -0.1812  0.2003 -1.1947
15181TIP3    H266959   1.092   6.524   5.649 -1.0840 -0.8252 -0.2420
15182TIP3   OH266960   3.396   4.172   6.032  0.0619 -0.0244 -0.3282
15182TIP3    H166961   3.424   4.251   5.986 -1.1284 -0.2332 -1.5159
15182TIP3    H266962   3.475   4.120   6.042  0.9163  1.4242  0.7303
15183TIP3   OH266963   3.435   3.624   5.247 -0.2500 -0.2634  0.1177
15183TIP3    H166964   3.526   3.599   5.233  0.3813  1.7568  0.2131
15183TIP3    H266965   3.439   3.690   5.316 -1.5884  0.9360 -0.8802
15184TIP3   OH266966   3.074   4.147  16.981  0.0725 -0.9038  0.0865
15184TIP3    H166967   3.037   4.061  16.997  0.7985 -1.9415 -3.0220
15184TIP3    H266968   3.015   4.188  16.917 -0.2951  0.9875  1.5435
15185TIP3   OH266969   5.104   3.054  13.834 -0.4735  0.5732 -0.2971
15185TIP3    H166970   5.091   3.015  13.747 -1.9164  2.4169 -0.9754
15185TIP3    H266971   5.137   2.982  13.887  0.0997 -0.7191 -2.2683
15186TIP3   OH266972   6.378   3.968   3.645 -0.4640 -0.3703 -0.0929
15186TIP3    H166973   6.403   3.953   3.737  0.3578 -0.8591 -0.3907
15186TIP3    H266974   6.427   4.046   3.619 -0.3404 -0.5031 -0.2565
15187TIP3   OH266975   3.382   3.144   2.999 -0.3562 -0.2979 -0.2861
15187TIP3    H166976   3.354   3.135   2.907 -1.2806 -3.0814  0.1485
15187TIP3    H266977   3.300   3.147   3.048  0.0550 -1.8085  0.5813
15188TIP3   OH266978   3.432   6.353   2.215  0.2396  0.1687  0.3207
15188TIP3    H166979   3.436   6.337   2.121  0.0766  0.1270  0.3203
15188TIP3    H266980   3.385   6.278   2.251  0.5777  0.0269  0.4763
15189TIP3   OH266981   0.970   2.762   1.722 -0.4079 -0.0550  0.2114
15189TIP3    H166982   0.879   2.787   1.735 -0.2851 -0.3804  1.7883
15189TIP3    H266983   1.020   2.820   1.779  0.3352 -0.2572 -0.2102
15190TIP3   OH266984   1.336   4.455  15.238 -0.0205  0.0280 -0.2634
15190TIP3    H166985   1.360   4.477  15.148  1.5482  1.9573  0.5382
15190TIP3    H266986   1.265   4.516  15.259  0.8126  0.8266  0.3249
15191TIP3   OH266987   3.275   3.201  15.210 -0.6161 -0.2319  0.2731
15191TIP3    H166988   3.281   3.120  15.159  2.1682  0.8119 -1.2790
15191TIP3    H266989   3.234   3.264  15.150  0.1269  0.2802  0.2834
15192TIP3   OH266990   6.477   1.652   6.392 -0.3966 -0.3875 -0.2141
15192TIP3    H166991   6.550   1.709   6.368  0.1313 -0.7098  0.5779
15192TIP3    H266992   6.510   1.563   6.378  0.0928 -0.6187  1.9932
15193TIP3   OH266993   2.176   3.021  13.692  0.8845  0.0961 -0.5104
15193TIP3    H166994   2.128   3.088  13.643 -0.1358  0.1082  0.4571
15193TIP3    H266995   2.170   2.942  13.638 -1.5864 -0.3239  0.2275
15194TIP3   OH266996   1.846   6.702   3.459 -0.1606 -0.3039 -0.8575
15194TIP3    H166997   1.902   6.626   3.473  1.4556  0.7326 -1.3100
15194TIP3    H266998   1.777   6.695   3.525  0.9348 -1.2620  0.2257
15195TIP3   OH266999   1.281   5.633   2.914 -0.3786 -0.3480 -0.2663
15195TIP3    H167000   1.310   5.711   2.962 -0.8679 -0.0807 -0.4021
15195TIP3    H267001   1.280   5.661   2.823 -0.9383 -0.3959 -0.2748
15196TIP3   OH267002   0.561   2.502   3.390 -0.5747  0.8405  0.2218
15196TIP3    H167003   0.639   2.482   3.338 -1.4199  1.6299 -1.4401
15196TIP3    H267004   0.594   2.521   3.477  0.8202 -1.5353  0.2919
15197TIP3   OH267005   0.414   5.752   6.400  0.0010  0.1905  0.1046
15197TIP3    H167006   0.486   5.697   6.433  0.5357  0.3015 -0.8429
15197TIP3    H267007   0.436   5.840   6.432 -0.8727 -0.1165  1.6504
15198TIP3   OH267008   2.048   6.252  11.543  0.1841 -0.3047  0.2112
15198TIP3    H167009   2.022   6.198  11.468  3.3262 -0.0866 -1.2336
15198TIP3    H267010   2.063   6.189  11.613  2.0166 -1.2188 -0.9097
15199TIP3   OH267011   1.659   2.505  16.588 -0.0942 -0.1045  0.7626
15199TIP3    H167012   1.739   2.482  16.541 -0.2885  0.1603  0.2941
15199TIP3    H267013   1.646   2.598  16.569 -0.9864 -0.3427  0.1120
15200TIP3   OH267014   5.928   1.623  15.011  0.0754 -0.3622 -0.6341
15200TIP3    H167015   5.866   1.567  14.965  0.1613 -0.8261 -0.1863
15200TIP3    H267016   5.924   1.595  15.102 -1.8407  2.0771  0.1439
15201TIP3   OH267017   6.066   5.395   5.046 -0.0707 -0.2934 -0.0149
15201TIP3    H167018   6.085   5.383   4.953 -1.0336 -0.7512 -0.1640
15201TIP3    H267019   6.060   5.490   5.057  0.2008 -0.2319 -0.3907
15202TIP3   OH267020   1.787   2.852   5.808 -0.2993 -0.2946 -0.4528
15202TIP3    H167021   1.883   2.852   5.814 -0.2075  2.4192 -0.5089
15202TIP3    H267022   1.760   2.928   5.861 -2.5784 -1.9464  0.9172
15203TIP3   OH267023   1.231   1.830  13.053  0.9057  0.7971  0.2245
15203TIP3    H167024   1.272   1.893  12.994  2.2436  1.4889  1.8353
15203TIP3    H267025   1.137   1.845  13.043  1.0919  0.8990 -1.6792
15204TIP3   OH267026   0.470   5.302  16.985  0.1894 -0.3968  0.6303
15204TIP3    H167027   0.396   5.297  17.044 -0.6609 -0.2908 -0.3923
15204TIP3    H267028   0.437   5.266  16.902  0.9687  0.5975 -0.1326
15205TIP3   OH267029   5.851   5.579  11.761 -0.1601  0.1658 -0.7262
15205TIP3    H167030   5.809   5.665  11.769 -0.0278  0.2493 -0.9406
15205TIP3    H267031   5.940   5.598  11.733  0.2534  0.0403  0.4137
15206TIP3   OH267032   0.218   1.538  10.526  0.1631 -0.2856 -0.3070
15206TIP3    H167033   0.151   1.597  10.561 -0.6952 -1.0193 -0.6718
15206TIP3    H267034   0.168   1.465  10.491  1.1516 -0.6725 -0.9154
15207TIP3   OH267035   2.666   5.732   0.175  0.0990 -0.4179 -0.5604
15207TIP3    H167036   2.633   5.822   0.184 -1.0453 -0.7958 -0.8181
15207TIP3    H267037   2.601   5.678   0.218 -0.8385 -1.3989 -2.9976
15208TIP3   OH267038   5.739   5.169  14.039 -0.2100  0.5272 -0.2528
15208TIP3    H167039   5.740   5.106  13.967  1.0582 -2.2987  2.0054
15208TIP3    H267040   5.653   5.158  14.079  0.0296  0.1928  0.1726
15209TIP3   OH267041   4.929   5.743  12.791  0.6051 -0.5380 -0.2018
15209TIP3    H167042   4.953   5.757  12.700  3.9653  0.9431  0.7660
15209TIP3    H267043   4.961   5.655  12.811  0.4574 -0.6109 -0.2865
15210TIP3   OH267044   3.694   3.425   2.336  0.1985 -0.2215 -0.2582
15210TIP3    H167045   3.598   3.425   2.344  0.0795 -1.5862 -1.1919
15210TIP3    H267046   3.710   3.383   2.251  1.6502 -1.3501  0.5363
15211TIP3   OH267047   4.732   0.828  15.833 -0.1084 -0.2641 -0.2864
15211TIP3    H167048   4.690   0.743  15.824  0.5667 -0.6394  0.0134
15211TIP3    H267049   4.814   0.809  15.880 -0.5176  0.7069  0.8613
15212TIP3   OH267050   0.278   4.754  13.599 -0.0046  0.2223  0.3214
15212TIP3    H167051   0.251   4.713  13.680  1.2135 -0.4896  0.3934
15212TIP3    H267052   0.239   4.842  13.602  1.0713  0.6916  2.2772
15213TIP3   OH267053   6.481   6.264   0.197 -0.0357  0.0782 -0.3564
15213TIP3    H167054   6.485   6.303   0.285 -0.4889 -0.3846 -0.1189
15213TIP3    H267055   6.405   6.306   0.156  0.2530  0.3863 -0.5726
15214TIP3   OH267056   2.111   4.721   1.682  0.3426  0.4201  0.0180
15214TIP3    H167057   2.047   4.708   1.752 -1.4283  1.6101 -1.2877
15214TIP3    H267058   2.194   4.734   1.728 -0.3998 -0.7640  1.7936
15215TIP3   OH267059   1.088   1.500  15.668 -0.1911 -0.4248  0.0532
15215TIP3    H167060   0.992   1.502  15.676 -0.2362  2.1114 -0.3100
15215TIP3    H267061   1.119   1.478  15.756 -1.0913 -0.4219  0.3790
15216TIP3   OH267062   6.119   1.210   3.977  0.3480  0.7461  0.0963
15216TIP3    H167063   6.178   1.138   3.956  0.7250  0.1467  2.8840
15216TIP3    H267064   6.174   1.274   4.022 -0.4905  1.6301 -0.1096
15217TIP3   OH267065   1.873   4.401   2.225 -0.5004  0.0884  0.5170
15217TIP3    H167066   1.778   4.389   2.222 -0.7419  1.2127  2.4304
15217TIP3    H267067   1.908   4.313   2.238 -1.2300 -0.3911 -0.6216
15218TIP3   OH267068   4.594   5.586  15.949 -0.1077 -0.1640  0.1034
15218TIP3    H167069   4.602   5.666  16.001 -0.1878 -1.6234  2.5065
15218TIP3    H267070   4.504   5.585  15.919  0.0327  0.8753 -0.4005
15219TIP3   OH267071   4.066   6.562  12.484 -0.1485 -0.6003  0.2296
15219TIP3    H167072   4.057   6.467  12.481  0.5932 -0.6528 -0.5447
15219TIP3    H267073   4.015   6.594  12.410 -0.3822 -0.3871  0.4780
15220TIP3   OH267074   2.488   5.302   1.013  0.5132  0.1278  0.5210
15220TIP3    H167075   2.396   5.280   1.028 -0.6754  2.3971 -2.4053
15220TIP3    H267076   2.528   5.219   0.984 -1.3151 -0.3967 -0.6857
15221TIP3   OH267077   3.519   4.211   0.536  0.2258  0.2226  0.4313
15221TIP3    H167078   3.495   4.162   0.458 -0.9618 -1.7367  1.9336
15221TIP3    H267079   3.588   4.158   0.577  1.3687  1.6059  0.3855
15222TIP3   OH267080   2.499   0.587   3.271 -0.5559 -0.0012 -0.2695
15222TIP3    H167081   2.411   0.623   3.257 -0.2296  0.8443 -0.1746
15222TIP3    H267082   2.487   0.522   3.341 -0.5071  2.8757  2.6977
15223TIP3   OH267083   6.200   5.306   0.052  0.5610  0.2416 -0.4233
15223TIP3    H167084   6.253   5.370   0.004 -1.9268  2.5988 -0.2756
15223TIP3    H267085   6.182   5.237  -0.012  2.2991  0.2764 -0.9847
15224TIP3   OH267086   0.912   6.023  12.297  0.1048  0.0040 -0.1106
15224TIP3    H167087   0.846   5.993  12.360  1.3793 -0.0202  1.2600
15224TIP3    H267088   0.988   5.967  12.314  0.7821  0.6323 -1.0377
15225TIP3   OH267089   0.086   3.398   1.022 -0.5141  0.7568  0.0927
15225TIP3    H167090   0.164   3.381   0.970 -0.1047  2.1134  0.2121
15225TIP3    H267091   0.083   3.493   1.030 -1.1783  0.6390  1.6120
15226TIP3   OH267092   1.075   1.946   3.957 -0.0969  0.5969  0.0856
15226TIP3    H167093   1.138   1.899   3.902 -0.2091  0.6219 -0.0634
15226TIP3    H267094   1.047   1.881   4.021  1.3255  1.0309  1.2005
15227TIP3   OH267095   4.322   3.577   6.775 -0.1324 -0.0548 -0.3451
15227TIP3    H167096   4.383   3.602   6.706 -0.6775  0.2575 -0.7195
15227TIP3    H267097   4.378   3.549   6.848  0.4426 -0.5438 -0.9663
15228TIP3   OH267098   4.008   4.326   5.459 -0.2608  0.2852 -0.1306
15228TIP3    H167099   4.064   4.359   5.390 -1.7646  0.4856 -1.3080
15228TIP3    H267100   3.988   4.236   5.434 -1.5308  0.6391 -0.4656
15229TIP3   OH267101   2.001   4.100  11.955  0.2880  0.4241  0.0961
15229TIP3    H167102   2.053   4.090  11.875  0.9510 -0.1308  0.5861
15229TIP3    H267103   2.030   4.182  11.993  0.2098  0.5236 -0.0579
15230TIP3   OH267104   5.941   5.075  13.038  0.0156  0.3907  0.4845
15230TIP3    H167105   5.866   5.118  13.079 -0.6989  0.5323 -0.9185
15230TIP3    H267106   5.921   4.982  13.041  0.1310  0.3723  0.7523
15231TIP3   OH267107   0.287   6.082   2.943  0.2119  0.3700  0.0772
15231TIP3    H167108   0.276   5.988   2.954 -0.0437  0.1384 -1.8398
15231TIP3    H267109   0.370   6.102   2.986  0.4766 -0.8088  0.1361
15232TIP3   OH267110   0.587   3.539   1.901 -0.1951 -0.2841  0.2079
15232TIP3    H167111   0.547   3.482   1.967 -0.6751 -1.1205 -0.7894
15232TIP3    H267112   0.640   3.600   1.952 -2.9456  1.0948  1.6615
15233TIP3   OH267113   5.033   5.791   5.541 -0.0656 -0.6568 -0.2799
15233TIP3    H167114   4.951   5.753   5.511 -0.9702 -0.1663  1.4252
15233TIP3    H267115   5.085   5.716   5.570 -0.5512 -0.8525  0.0913
15234TIP3   OH267116   4.216   4.685  16.688  0.0917  0.5091  0.0530
15234TIP3    H167117   4.151   4.692  16.619 -0.4075  1.2440  0.5737
15234TIP3    H267118   4.171   4.640  16.760  0.5423 -0.0717 -0.0199
15235TIP3   OH267119   6.082   6.409  16.760 -0.0558 -0.6805  0.4642
15235TIP3    H167120   6.013   6.361  16.805 -0.2227 -0.7211  0.1709
15235TIP3    H267121   6.063   6.501  16.779 -0.8439 -0.6264 -0.5163
15236TIP3   OH267122   2.551   2.546   1.873  0.2471  0.4809 -0.1279
15236TIP3    H167123   2.488   2.593   1.819 -1.6801 -1.8557 -0.0729
15236TIP3    H267124   2.568   2.465   1.826  2.7676  0.7381  0.1983
15237TIP3   OH267125   4.668   3.664   4.882  0.4354  0.5754  0.3509
15237TIP3    H167126   4.620   3.582   4.894  0.5286  0.6068  0.9665
15237TIP3    H267127   4.752   3.638   4.842  0.6623  0.3159  0.9922
15238TIP3   OH267128   3.099   0.256   3.317 -0.3949 -0.0884 -0.4714
15238TIP3    H167129   3.068   0.301   3.395  0.3937 -0.0617 -0.1634
15238TIP3    H267130   3.108   0.324   3.250  3.5392  0.8736  0.7733
15239TIP3   OH267131   2.364   0.954   2.427 -0.4670 -0.0801 -0.5658
15239TIP3    H167132   2.326   0.868   2.407 -0.1286 -0.1238 -1.0325
15239TIP3    H267133   2.384   0.950   2.520 -0.8834 -0.3419 -0.4847
15240TIP3   OH267134   2.885   2.490   6.459 -0.3501  0.7426 -0.4858
15240TIP3    H167135   2.945   2.563   6.474 -0.9145  1.1677 -0.2346
15240TIP3    H267136   2.905   2.427   6.528  0.3845  0.4914 -0.9175
15241TIP3   OH267137   1.257   3.186   4.157  0.2096  0.0438  0.0647
15241TIP3    H167138   1.214   3.261   4.197 -1.0666 -0.9583  0.6674
15241TIP3    H267139   1.243   3.197   4.063 -0.8143  0.0955  0.2072
15242TIP3   OH267140   2.897   0.576   5.215 -0.2614 -0.5274 -0.2463
15242TIP3    H167141   2.828   0.640   5.231 -0.9635 -0.8138 -1.9849
15242TIP3    H267142   2.858   0.492   5.239 -0.4953 -0.6764 -1.1258
15243TIP3   OH267143   6.135   6.661   4.986 -0.4273 -0.1919  0.5482
15243TIP3    H167144   6.082   6.739   5.002 -0.0975 -0.1007  1.1995
15243TIP3    H267145   6.096   6.593   5.040 -0.9183 -0.5802 -0.2693
15244TIP3   OH267146   5.365   3.549  17.289 -0.3020 -0.3545 -0.2468
15244TIP3    H167147   5.432   3.616  17.298 -1.4611  0.7053  0.7453
15244TIP3    H267148   5.406   3.482  17.233  1.9810 -0.3125  1.2377
15245TIP3   OH267149   2.088   2.939   6.021  0.1900  0.1742  0.1247
15245TIP3    H167150   2.164   2.922   5.966 -1.7239 -3.7466 -1.6904
15245TIP3    H267151   2.053   3.022   5.988  1.5032  0.0754 -1.6803
15246TIP3   OH267152   0.552   0.504   1.718 -0.6823  0.0799 -0.1779
15246TIP3    H167153   0.583   0.565   1.784 -2.2243  1.3672 -0.5938
15246TIP3    H267154   0.512   0.433   1.768 -2.2603  1.2680  0.3389
15247TIP3   OH267155   0.671   2.181   4.585 -0.2491 -0.4165  0.4197
15247TIP3    H167156   0.587   2.141   4.563  0.0967 -1.9284  1.6112
15247TIP3    H267157   0.736   2.116   4.556  0.3600 -0.5792  2.0528
15248TIP3   OH267158   0.808   5.939  15.111 -0.0140 -0.5184  0.5004
15248TIP3    H167159   0.868   6.001  15.150  1.1479 -0.6629 -0.9796
15248TIP3    H267160   0.773   5.984  15.034 -0.8039 -0.9182  0.6153
15249TIP3   OH267161   4.978   5.092  15.807 -0.2901 -0.3537  0.0803
15249TIP3    H167162   4.973   5.072  15.901 -0.9562 -3.0292 -0.4356
15249TIP3    H267163   4.887   5.108  15.782 -0.0612  0.8028 -0.0637
15250TIP3   OH267164   2.312   3.018   0.787  0.5386  0.3704  0.0061
15250TIP3    H167165   2.261   2.959   0.843 -1.7603  1.5491 -0.7393
15250TIP3    H267166   2.295   2.987   0.698  1.2765  0.7018 -0.2589
15251TIP3   OH267167   1.397   6.307  13.524 -0.3637  0.1031  0.7742
15251TIP3    H167168   1.397   6.225  13.574  0.7512 -0.0922  0.4885
15251TIP3    H267169   1.378   6.374  13.589  1.0161 -0.1514  1.4918
15252TIP3   OH267170   4.152   2.668   4.254 -0.1552  0.4935 -0.1496
15252TIP3    H167171   4.125   2.598   4.313  2.2798 -0.4842 -0.0658
15252TIP3    H267172   4.151   2.628   4.167  1.1295  0.3431 -0.1155
15253TIP3   OH267173   6.333   4.274   1.787  0.3219 -0.3188  0.3061
15253TIP3    H167174   6.422   4.265   1.822  0.2559 -2.2571  0.0500
15253TIP3    H267175   6.295   4.187   1.793 -1.1678  0.2133 -0.6874
15254TIP3   OH267176   3.847   0.115  13.389 -0.2615  0.2556 -1.0036
15254TIP3    H167177   3.788   0.190  13.400  0.1284  0.5096 -0.5705
15254TIP3    H267178   3.909   0.124  13.461  0.3593  0.0413 -1.5059
15255TIP3   OH267179   3.256   3.621   5.782  0.7963  0.3209 -0.1008
15255TIP3    H167180   3.198   3.548   5.802  1.1105  0.2906  0.7447
15255TIP3    H267181   3.269   3.617   5.687  0.6943 -0.6219 -0.0793
15256TIP3   OH267182   1.796   3.738   2.644 -0.3072 -0.2744 -0.0344
15256TIP3    H167183   1.731   3.672   2.664  0.2790 -0.2935  2.0109
15256TIP3    H267184   1.838   3.758   2.728  2.0893 -0.0252 -1.1982
15257TIP3   OH267185   5.766   0.874  11.563  0.7511  0.5142 -0.4882
15257TIP3    H167186   5.751   0.799  11.621  0.3552  0.8424 -0.1611
15257TIP3    H267187   5.678   0.900  11.535  0.8396  1.3051 -0.0358
15258TIP3   OH267188   2.520   1.935   2.699  0.0385  0.2250 -0.5867
15258TIP3    H167189   2.516   1.891   2.784  1.6209  0.5521 -0.3253
15258TIP3    H267190   2.473   1.875   2.640 -1.0415 -0.0305  0.4760
15259TIP3   OH267191   5.024   5.695   5.209  0.3777 -0.4163 -0.1132
15259TIP3    H167192   4.977   5.671   5.130 -0.4142 -0.7929  0.4601
15259TIP3    H267193   5.022   5.791   5.210  0.7489 -0.3977 -0.7500
15260TIP3   OH267194   4.124   2.343   5.137 -0.5122  0.2928  0.0271
15260TIP3    H167195   4.073   2.424   5.131 -1.3328 -0.2229 -0.0410
15260TIP3    H267196   4.142   2.319   5.046 -0.8343  0.0394  0.0329
15261TIP3   OH267197   6.057   0.144  12.495  0.3126  0.4907 -0.1331
15261TIP3    H167198   5.981   0.130  12.551 -0.4120 -1.1688 -1.4379
15261TIP3    H267199   6.022   0.177  12.412  0.5198 -3.0878 -1.8358
15262TIP3   OH267200   3.446   1.339  16.289 -0.6946  0.0929 -0.1200
15262TIP3    H167201   3.365   1.289  16.277 -0.2399 -0.9908  1.1374
15262TIP3    H267202   3.447   1.399  16.214 -2.6599  0.1616 -0.1619
15263TIP3   OH267203   5.032   3.548  12.638 -0.8798 -0.5756 -0.1080
15263TIP3    H167204   5.120   3.553  12.673 -1.4106  0.7410  1.1565
15263TIP3    H267205   5.021   3.630  12.589 -1.5670 -0.4450  0.2390
15264TIP3   OH267206   6.204   0.427  16.085 -0.7693 -0.2387 -0.4203
15264TIP3    H167207   6.251   0.368  16.143 -0.1843 -0.7521 -1.3839
15264TIP3    H267208   6.183   0.503  16.139  2.7688  0.8638 -0.3185
15265TIP3   OH267209   5.158   1.384   4.190 -0.2765  0.9704  0.4739
15265TIP3    H167210   5.065   1.405   4.202 -0.2806  0.2047  2.0569
15265TIP3    H267211   5.199   1.467   4.169 -1.1668  1.5010  0.7710
15266TIP3   OH267212   3.406   4.498  13.239 -0.5646  0.4585 -0.0161
15266TIP3    H167213   3.351   4.456  13.305 -0.7894 -1.1496 -1.1692
15266TIP3    H267214   3.435   4.579  13.280  0.1659 -0.9592  2.4658
15267TIP3   OH267215   3.579   6.277   1.247  0.1265  0.7328  0.5653
15267TIP3    H167216   3.563   6.196   1.199  2.2752  1.2500 -1.2308
15267TIP3    H267217   3.498   6.328   1.238 -0.0263  0.2183 -1.3806
15268TIP3   OH267218   5.014   0.288   3.819  0.2344  0.2425 -0.2437
15268TIP3    H167219   5.045   0.197   3.818  1.0526  0.5001  0.3114
15268TIP3    H267220   5.019   0.316   3.728  2.4566  0.5050 -0.1155
15269TIP3   OH267221   3.867   5.120  14.689 -0.4284  0.0178  0.2873
15269TIP3    H167222   3.857   5.036  14.644 -1.0985  0.6215 -0.7424
15269TIP3    H267223   3.784   5.166  14.674 -0.3051  0.6306  1.3443
15270TIP3   OH267224   3.330   6.101   6.037  0.0001  0.0863  0.3813
15270TIP3    H167225   3.316   6.050   5.957 -0.2674 -0.2737  0.6523
15270TIP3    H267226   3.424   6.097   6.053  0.0826  0.3351 -0.0281
15271TIP3   OH267227   4.228   4.828  11.737  0.4499  0.0127  0.1119
15271TIP3    H167228   4.156   4.884  11.764  0.5633 -0.2441  0.9759
15271TIP3    H267229   4.223   4.827  11.641 -1.2257 -0.7031  0.1824
15272TIP3   OH267230   6.011   6.084  11.464 -0.1522 -0.5347 -0.6028
15272TIP3    H167231   5.946   6.014  11.475 -0.7531  0.1340  0.1796
15272TIP3    H267232   5.977   6.138  11.393 -0.4234 -0.2177 -0.2326
15273TIP3   OH267233   4.018   2.591   1.973 -0.1010 -0.0598  0.0683
15273TIP3    H167234   4.099   2.592   2.024 -0.2408 -1.7188  0.3799
15273TIP3    H267235   3.953   2.632   2.031  0.3161  0.5363  0.1318
15274TIP3   OH267236   5.304   1.726   2.192 -0.3746  0.2148 -0.0144
15274TIP3    H167237   5.323   1.818   2.174 -0.0305  0.4230  1.2480
15274TIP3    H267238   5.377   1.698   2.248 -0.7923 -0.6487  0.1093
15275TIP3   OH267239   4.656   4.666  13.930 -0.3369  0.4988  0.4096
15275TIP3    H167240   4.738   4.683  13.976 -0.6929  0.4172  1.0872
15275TIP3    H267241   4.588   4.700  13.988 -0.7571  1.0043 -0.3608
15276TIP3   OH267242   6.463   5.498   5.499 -1.0911  0.1838 -0.2382
15276TIP3    H167243   6.371   5.481   5.478 -0.7802  0.1315 -1.6786
15276TIP3    H267244   6.463   5.527   5.590 -2.3977 -0.9598  0.1461
15277TIP3   OH267245   2.782   5.329  10.844  0.5827 -0.2485 -0.1898
15277TIP3    H167246   2.689   5.347  10.829  0.5278 -0.9372 -0.7494
15277TIP3    H267247   2.827   5.399  10.798  0.3430  0.6200  0.8528
15278TIP3   OH267248   3.217   6.358  11.250 -0.0664  0.0775  0.1176
15278TIP3    H167249   3.312   6.356  11.234  0.1664 -3.8208  0.8900
15278TIP3    H267250   3.181   6.298  11.185 -1.4519 -1.4506  2.1523
15279TIP3   OH267251   5.320   5.410  14.132  0.3984  0.2267 -0.1971
15279TIP3    H167252   5.256   5.479  14.148 -0.0531 -0.1857 -0.2158
15279TIP3    H267253   5.382   5.449  14.069  0.3923  0.7579  0.1219
15280TIP3   OH267254   2.655   3.098   1.705  0.3860  0.3438 -0.0328
15280TIP3    H167255   2.683   3.077   1.616  3.3706  0.6557  0.7046
15280TIP3    H267256   2.727   3.150   1.741 -1.3228  1.3625  2.1461
15281TIP3   OH267257   3.411   0.677   0.136  0.7520  0.0038  0.4686
15281TIP3    H167258   3.448   0.624   0.207 -0.0138  0.8214  1.5223
15281TIP3    H267259   3.412   0.767   0.170  0.7301  0.4762 -0.7271
15282TIP3   OH267260   3.589   6.623   5.831 -0.2148  0.0096  0.6217
15282TIP3    H167261   3.631   6.547   5.791  1.5033  1.2830 -0.0634
15282TIP3    H267262   3.567   6.594   5.920 -0.4115 -1.5505  0.0959
15283TIP3   OH267263   4.391   3.491   0.226  0.4137 -0.0361 -0.0156
15283TIP3    H167264   4.301   3.490   0.259  0.6385  0.3146  0.6216
15283TIP3    H267265   4.382   3.487   0.131 -0.2600 -0.6707  0.0692
15284TIP3   OH267266   6.560   3.123  15.599 -0.0266 -0.1394  0.0723
15284TIP3    H167267   6.613   3.043  15.597  0.4660  0.1950 -0.9300
15284TIP3    H267268   6.623   3.193  15.617 -0.1969  0.2086 -0.6699
15285TIP3   OH267269   6.634   1.220   4.241 -0.3199  0.3251 -0.3530
15285TIP3    H167270   6.662   1.269   4.164 -0.1155  1.4437  0.4201
15285TIP3    H267271   6.569   1.159   4.207  0.3565  0.2229 -1.5506
15286TIP3   OH267272   6.704   6.622  15.184 -0.2284  0.3793  0.1937
15286TIP3    H167273   6.699   6.526  15.182  2.7919  0.1264 -0.1179
15286TIP3    H267274   6.660   6.650  15.103 -0.1722 -0.8074 -0.2632
15287TIP3   OH267275   1.424   5.039  15.214  0.5453  0.2899 -0.0331
15287TIP3    H167276   1.507   5.081  15.235  0.2189  0.7404  0.3929
15287TIP3    H267277   1.371   5.050  15.293  0.1984 -0.2895 -0.1777
15288TIP3   OH267278   6.535   0.141   4.571  0.3037  0.3188 -0.4364
15288TIP3    H167279   6.461   0.170   4.517 -0.0143  2.0871  0.8660
15288TIP3    H267280   6.495   0.085   4.638  0.4290 -0.2506 -0.8264
15289TIP3   OH267281   3.563   5.638   2.203 -0.3082 -0.0237 -0.4798
15289TIP3    H167282   3.486   5.625   2.258  1.1887  0.3498  1.8488
15289TIP3    H267283   3.632   5.662   2.264  1.7241 -0.5056 -2.4570
15290TIP3   OH267284   4.677   2.121   1.850  0.2839  0.1092  0.1158
15290TIP3    H167285   4.624   2.151   1.924  0.3598  0.9463 -0.1577
15290TIP3    H267286   4.720   2.042   1.882 -1.2751 -0.7083  0.2818
15291TIP3   OH267287   5.818   3.154  13.649 -0.4070  0.3911  0.1041
15291TIP3    H167288   5.836   3.198  13.566 -1.1003 -0.3977 -0.4850
15291TIP3    H267289   5.726   3.175  13.668 -0.6303 -0.4375  0.0127
15292TIP3   OH267290   1.437   0.683  13.338  0.1648 -0.4861  0.4071
15292TIP3    H167291   1.387   0.676  13.257 -1.1616 -0.4611  1.2101
15292TIP3    H267292   1.517   0.729  13.313 -1.0930  1.2808 -0.5127
15293TIP3   OH267293   1.068   6.072  16.234 -0.0658  0.0190  0.4934
15293TIP3    H167294   0.996   6.064  16.171 -0.1471  0.7460  0.4819
15293TIP3    H267295   1.121   5.994  16.221 -0.7774 -0.4565  0.4002
15294TIP3   OH267296   3.630   0.174   3.121  0.0378  0.3437  0.1219
15294TIP3    H167297   3.595   0.198   3.035  0.9339 -0.2034 -0.3975
15294TIP3    H267298   3.712   0.129   3.103  0.8860  1.3322  1.3135
15295TIP3   OH267299   0.339   6.425   4.769 -0.2038 -0.4649  0.2222
15295TIP3    H167300   0.321   6.466   4.853  1.0653 -0.0031  0.2841
15295TIP3    H267301   0.257   6.381   4.745 -1.1045  0.8240  0.8766
15296TIP3   OH267302   2.484   6.377  13.938 -0.0949  0.0300 -0.3375
15296TIP3    H167303   2.524   6.304  13.986  0.4947  1.4236  1.3992
15296TIP3    H267304   2.558   6.432  13.913 -0.4734 -0.2700 -2.2193
15297TIP3   OH267305   6.029   1.257  12.653 -0.3477 -0.2123  0.4766
15297TIP3    H167306   5.967   1.329  12.667 -0.7556 -0.6697  1.0894
15297TIP3    H267307   6.112   1.300  12.634 -0.7246  0.4134  0.2130
15298TIP3   OH267308   0.594   5.838   1.475 -0.0289  0.2985 -0.1916
15298TIP3    H167309   0.512   5.865   1.515  0.0899  0.2664  0.0713
15298TIP3    H267310   0.626   5.766   1.530 -0.2728 -0.2895 -0.8003
15299TIP3   OH267311   5.904   5.019  16.357  0.2847  0.2226  0.4189
15299TIP3    H167312   5.937   4.945  16.407 -2.5661 -1.4909 -0.0439
15299TIP3    H267313   5.951   5.014  16.274 -1.0155 -2.2001 -0.2667
15300TIP3   OH267314   3.863   2.422  12.250  0.7939 -0.6436 -0.2240
15300TIP3    H167315   3.873   2.388  12.339 -0.7633  1.4959  0.8592
15300TIP3    H267316   3.881   2.516  12.258 -0.3833 -0.2256 -1.9541
15301TIP3   OH267317   1.549   5.837  11.413  0.1660  0.4237  0.0808
15301TIP3    H167318   1.489   5.774  11.372 -0.5940  2.0143 -1.3693
15301TIP3    H267319   1.569   5.900  11.344 -0.1416  2.5275  1.7928
15302TIP3   OH267320   0.723   4.660   2.164 -0.1532 -0.7088 -0.4283
15302TIP3    H167321   0.756   4.727   2.104 -2.2518  0.5405 -0.2912
15302TIP3    H267322   0.781   4.665   2.240  1.4606 -1.0954 -1.5751
15303TIP3   OH267323   4.505   0.432   1.485 -0.1243  0.0103 -0.8479
15303TIP3    H167324   4.528   0.511   1.535 -1.7589  0.1682 -0.2916
15303TIP3    H267325   4.589   0.390   1.468  0.8681  2.1707 -1.7041
15304TIP3   OH267326   6.554   0.621   6.379  0.0796 -0.1074 -0.0154
15304TIP3    H167327   6.569   0.547   6.439  0.3273 -2.1802 -2.4482
15304TIP3    H267328   6.460   0.619   6.361  0.0140  0.4695  0.2560
15305TIP3   OH267329   1.578   1.736  11.007  0.0265 -0.0236  0.2593
15305TIP3    H167330   1.579   1.666  11.073  0.0803  2.0551  2.6118
15305TIP3    H267331   1.533   1.809  11.050  1.6498  2.0520 -1.3509
15306TIP3   OH267332   5.534   4.448  11.247  0.1961  0.1784  0.0033
15306TIP3    H167333   5.511   4.462  11.339  0.8281  2.0372 -0.0796
15306TIP3    H267334   5.449   4.439  11.203 -0.1560  0.6894  0.5625
15307TIP3   OH267335   6.692   6.575   2.083  0.2799 -0.4113 -0.2733
15307TIP3    H167336   6.607   6.554   2.120 -0.1364  1.3978 -0.1134
15307TIP3    H267337   6.727   6.644   2.139  1.0369  0.1449 -1.3817
15308TIP3   OH267338   3.718   1.464   3.995  0.4862 -0.6744 -0.2914
15308TIP3    H167339   3.691   1.556   4.000  0.1449 -0.5979 -2.5082
15308TIP3    H267340   3.731   1.438   4.086  0.5236  1.5416  0.4018
15309TIP3   OH267341   1.783   0.213   6.100  0.3296 -0.5171 -0.5707
15309TIP3    H167342   1.761   0.188   6.190 -0.3088  0.7526 -0.3390
15309TIP3    H267343   1.825   0.136   6.063  1.7083 -0.6712  1.1903
15310TIP3   OH267344   4.172   6.268   3.229  0.1506  0.2087 -0.1240
15310TIP3    H167345   4.208   6.180   3.223 -0.8691 -0.1569 -1.3948
15310TIP3    H267346   4.208   6.314   3.153 -1.0495  0.1829 -0.7471
15311TIP3   OH267347   3.705   5.365   0.072 -0.2231 -0.0696 -0.2584
15311TIP3    H167348   3.630   5.367   0.132 -0.7477 -0.7454 -0.8780
15311TIP3    H267349   3.672   5.402  -0.009  0.1314 -0.3066 -0.5137
15312TIP3   OH267350   0.080   4.121  13.874  0.0811  0.5941  0.2697
15312TIP3    H167351   0.061   4.196  13.930 -1.2319 -1.6912  3.1404
15312TIP3    H267352   0.173   4.102  13.891  0.3074  1.2880 -0.1549
15313TIP3   OH267353   5.758   5.172   5.705  0.5071  0.3923  0.0485
15313TIP3    H167354   5.838   5.120   5.703 -0.6238 -1.4266 -0.2080
15313TIP3    H267355   5.786   5.257   5.739  2.6492  0.0478 -0.6865
15314TIP3   OH267356   3.478   4.788  16.802 -0.1668  0.1829 -0.3327
15314TIP3    H167357   3.542   4.853  16.772  0.2699 -0.2403 -0.3338
15314TIP3    H267358   3.469   4.728  16.728  1.1531 -1.0464  0.4461
15315TIP3   OH267359   0.159   4.486  16.657 -0.7031  0.2225 -0.2999
15315TIP3    H167360   0.066   4.496  16.637 -1.4034 -0.7700  2.0689
15315TIP3    H267361   0.162   4.475  16.752  2.1339  3.0403  0.1079
15316TIP3   OH267362   5.732   5.364   1.646 -0.6500  0.0688 -0.1419
15316TIP3    H167363   5.650   5.359   1.595 -0.9033 -0.6977  0.3306
15316TIP3    H267364   5.783   5.289   1.616 -1.0482 -0.7316  1.1518
15317TIP3   OH267365   4.798   1.532  13.118  0.5408 -0.3463  0.1204
15317TIP3    H167366   4.711   1.503  13.146  0.1157 -0.2630 -1.0524
15317TIP3    H267367   4.799   1.626  13.136 -0.7856  0.2791 -2.5845
15318TIP3   OH267368   2.057   0.956  13.499  0.4239  0.1389 -0.2273
15318TIP3    H167369   2.077   1.040  13.458  1.0071 -0.0090 -0.2561
15318TIP3    H267370   1.991   0.977  13.565  1.2478  0.7704  0.4078
15319TIP3   OH267371   5.534   0.613  15.050 -0.4873  0.8516 -0.0749
15319TIP3    H167372   5.600   0.555  15.089  1.2499  0.3033 -3.5037
15319TIP3    H267373   5.455   0.559  15.046  0.2820 -0.2877 -0.5325
15320TIP3   OH267374   4.212   1.205   6.472  0.3564  0.0672  0.4252
15320TIP3    H167375   4.248   1.285   6.512  2.0949 -0.3055 -0.2741
15320TIP3    H267376   4.274   1.136   6.497 -2.0246 -1.5040  2.4965
15321TIP3   OH267377   0.850   2.256   3.016  0.4917 -0.0466  0.1976
15321TIP3    H167378   0.754   2.256   3.018  0.4720  1.2182  0.1676
15321TIP3    H267379   0.876   2.224   3.102  0.0627 -1.1063 -0.0470
15322TIP3   OH267380   2.009   0.023  17.106 -0.5772  0.1398 -0.4274
15322TIP3    H167381   2.002  -0.007  17.197 -0.5128 -1.5109 -0.9322
15322TIP3    H267382   2.044   0.111  17.113  0.8710 -0.4916  1.1209
15323TIP3   OH267383   5.529   6.527   2.002  0.4235  0.3892 -0.0057
15323TIP3    H167384   5.611   6.576   1.993  0.5287  0.2722  0.2915
15323TIP3    H267385   5.554   6.436   1.987  0.6369  0.1656  1.5123
15324TIP3   OH267386   1.431   4.759   2.857  0.1730 -0.5819  0.1999
15324TIP3    H167387   1.434   4.831   2.793 -1.3451  0.1491  0.8795
15324TIP3    H267388   1.481   4.791   2.931 -1.5079  0.3575  0.9946
15325TIP3   OH267389   0.823   1.596   6.130 -0.1089 -0.0776 -0.6783
15325TIP3    H167390   0.803   1.689   6.124  0.8380  0.0361 -3.6160
15325TIP3    H267391   0.893   1.590   6.195  0.0451  1.2869 -0.7029
15326TIP3   OH267392   2.549   0.626   0.626  0.0004  0.1561  0.0797
15326TIP3    H167393   2.543   0.531   0.625 -0.4196  0.1253 -2.6087
15326TIP3    H267394   2.634   0.645   0.586  0.5900  0.9372  1.6307
15327TIP3   OH267395   4.916   3.964   3.781  0.2542  0.3064  0.6339
15327TIP3    H167396   4.871   3.991   3.861 -0.7214 -0.5360  0.3983
15327TIP3    H267397   4.851   3.910   3.735  1.0709  0.1460 -0.3509
15328TIP3   OH267398   5.696   1.178  12.839  0.0565 -0.1643  0.4153
15328TIP3    H167399   5.779   1.140  12.868 -0.1691 -0.4520  0.6923
15328TIP3    H267400   5.689   1.260  12.886 -0.0652 -0.3870  0.7840
15329TIP3   OH267401   5.888   2.962   2.610  0.7238 -0.2880  0.4834
15329TIP3    H167402   5.870   2.871   2.585  1.4258 -0.4043  0.3716
15329TIP3    H267403   5.812   2.988   2.662 -0.2050 -0.4298 -0.7601
15330TIP3   OH267404   2.849   3.052   3.653  0.2702 -0.2904 -0.1693
15330TIP3    H167405   2.793   3.082   3.724 -0.6286 -1.3432 -0.4158
15330TIP3    H267406   2.932   3.098   3.667 -0.0986  0.0020  1.1834
15331TIP3   OH267407   1.461   1.778  16.198  0.3648 -0.2209 -0.3093
15331TIP3    H167408   1.392   1.736  16.248  0.2165 -0.2518 -0.5380
15331TIP3    H267409   1.495   1.846  16.256 -2.0281  2.0102 -1.3427
15332TIP3   OH267410   0.536   5.952  14.942  0.5122  0.3217  0.1363
15332TIP3    H167411   0.562   6.043  14.929 -0.4557  0.7392  0.9069
15332TIP3    H267412   0.458   5.957  14.998  1.0406 -1.0297  1.0600
15333TIP3   OH267413   3.434   1.960   1.400 -0.0135  0.0123 -0.0286
15333TIP3    H167414   3.456   2.034   1.456 -1.4454  0.3994  0.0603
15333TIP3    H267415   3.401   1.894   1.460  1.2827 -0.7378 -0.1068
15334TIP3   OH267416   1.116   1.118   3.520  0.1795  0.7051 -0.2596
15334TIP3    H167417   1.100   1.211   3.535 -1.4247  0.6906 -1.5254
15334TIP3    H267418   1.200   1.101   3.561 -0.2586  2.3261  1.4499
15335TIP3   OH267419   0.476   3.300  17.067 -0.4104  0.1359  0.5216
15335TIP3    H167420   0.482   3.354  16.988 -0.0551  1.3826  1.3868
15335TIP3    H267421   0.411   3.232  17.044  1.3381 -0.9437 -1.6373
15336TIP3   OH267422   4.575   2.138   4.470 -0.0848 -0.3100  0.8764
15336TIP3    H167423   4.488   2.113   4.439 -0.0557 -0.7957  1.1885
15336TIP3    H267424   4.558   2.202   4.539 -0.1594  0.5027  0.1191
15337TIP3   OH267425   4.819   1.976   4.528  0.0789 -0.2672  0.0988
15337TIP3    H167426   4.743   2.032   4.509  0.2591  0.6341  1.8020
15337TIP3    H267427   4.856   2.013   4.608  0.4801 -2.5919  1.0525
15338TIP3   OH267428   1.997   6.521  13.313  0.1328  0.0348  0.1036
15338TIP3    H167429   1.922   6.490  13.263  0.5893  0.9021 -1.1771
15338TIP3    H267430   2.045   6.442  13.338 -0.0652 -0.4184 -0.9270
15339TIP3   OH267431   2.066   3.793   1.091 -0.2910  0.5185 -0.6546
15339TIP3    H167432   2.063   3.704   1.056 -0.6191  0.4126 -0.3614
15339TIP3    H267433   2.109   3.783   1.176  1.6496  0.9376 -1.5091
15340TIP3   OH267434   5.906   0.929   3.721 -0.0114  0.2429  0.2063
15340TIP3    H167435   5.855   0.929   3.640  2.5496  0.4598 -1.5027
15340TIP3    H267436   5.904   1.020   3.750 -2.4552 -0.1383  1.5068
15341TIP3   OH267437   3.315   4.561  15.464  0.1917 -0.0390 -0.0597
15341TIP3    H167438   3.369   4.638  15.449  0.2629 -0.1873 -0.5720
15341TIP3    H267439   3.372   4.487  15.445  0.1679 -0.2290  0.5760
15342TIP3   OH267440   5.106   6.081   5.631 -0.6711  0.0221  0.7336
15342TIP3    H167441   5.169   6.042   5.570 -1.6168  1.2203 -1.1144
15342TIP3    H267442   5.091   6.014   5.697  1.2655 -0.9123  0.2772
15343TIP3   OH267443   4.519   1.228   3.612 -0.0664 -0.2238 -0.0972
15343TIP3    H167444   4.587   1.199   3.551  0.0085  1.6312 -0.9558
15343TIP3    H267445   4.502   1.319   3.588 -1.5427 -0.0795  1.3133
15344TIP3   OH267446   1.505   4.487   2.870  0.2982 -0.2685  0.0523
15344TIP3    H167447   1.419   4.461   2.901  0.4015 -1.6064 -0.7172
15344TIP3    H267448   1.504   4.583   2.875 -0.1066 -0.3580  2.9110
15345TIP3   OH267449   3.693   3.519   0.447  0.2748  0.1787  0.1843
15345TIP3    H167450   3.636   3.528   0.370  0.0601  0.4748  0.3776
15345TIP3    H267451   3.731   3.431   0.438 -0.0431  0.0617 -0.0606
15346TIP3   OH267452   1.030   5.507  11.903 -0.2710 -0.0308  0.1597
15346TIP3    H167453   1.111   5.458  11.915 -0.0429 -0.0400 -1.2316
15346TIP3    H267454   1.058   5.596  11.883 -0.6780  0.6384  2.2733
15347TIP3   OH267455   5.085   5.478   0.391  0.1373 -0.0584  0.2943
15347TIP3    H167456   5.073   5.544   0.459 -0.3114 -0.4489  0.5970
15347TIP3    H267457   5.169   5.437   0.413  0.8176  0.9390 -0.3537
15348TIP3   OH267458   1.622   5.562  15.660 -0.0879  0.4171 -0.6473
15348TIP3    H167459   1.552   5.503  15.687  0.4050  0.1669  0.1373
15348TIP3    H267460   1.582   5.620  15.595 -1.5694  1.5523  1.1905
15349TIP3   OH267461   3.254   5.221  13.838 -0.0713 -0.3470 -0.3629
15349TIP3    H167462   3.235   5.311  13.809  3.1165  1.0885  1.4254
15349TIP3    H267463   3.193   5.206  13.910  0.3391  1.0773  0.3318
15350TIP3   OH267464   2.557   0.317   1.763 -0.3075 -0.5371  0.5492
15350TIP3    H167465   2.644   0.280   1.749 -0.0887 -0.6369  1.9840
15350TIP3    H267466   2.502   0.277   1.696  0.5878 -1.0555  0.1070
15351TIP3   OH267467   0.253   2.655   0.393 -0.6437 -0.2889 -0.8181
15351TIP3    H167468   0.283   2.638   0.483  0.6260  1.7323 -0.7991
15351TIP3    H267469   0.176   2.599   0.383 -0.2189 -1.3389  1.1705
15352TIP3   OH267470   6.268   1.816  13.310  0.4482  0.2342  0.1588
15352TIP3    H167471   6.353   1.782  13.337  1.3550  1.6579 -0.7677
15352TIP3    H267472   6.285   1.859  13.226 -1.7165 -1.7420 -1.4264
15353TIP3   OH267473   2.151   0.705  14.071  0.2691  0.0106  0.2386
15353TIP3    H167474   2.245   0.714  14.057  0.0563  0.1158 -1.3333
15353TIP3    H267475   2.143   0.664  14.157  1.6864  2.0148  1.4130
15354TIP3   OH267476   6.451   3.526   5.768 -0.2561 -0.3695 -0.2406
15354TIP3    H167477   6.499   3.494   5.691  0.3660 -0.5329  0.2120
15354TIP3    H267478   6.502   3.496   5.843  0.1313  1.3017  0.2181
15355TIP3   OH267479   0.814   5.204   4.602  0.3342 -0.2534  0.0991
15355TIP3    H167480   0.792   5.111   4.595  1.0411 -0.3509 -1.1663
15355TIP3    H267481   0.736   5.245   4.639 -0.0072 -1.3331  0.6293
15356TIP3   OH267482   5.934   1.839   5.763  0.0632 -0.0326 -0.7872
15356TIP3    H167483   6.008   1.827   5.705 -0.5826  2.0529 -2.1759
15356TIP3    H267484   5.949   1.925   5.803 -0.3569 -0.6938  0.9050
15357TIP3   OH267485   4.118   4.733  10.858 -0.1896  0.4825 -0.0397
15357TIP3    H167486   4.151   4.702  10.942  0.4804 -2.8765 -1.3761
15357TIP3    H267487   4.179   4.696  10.793 -2.2275  0.5623 -2.1368
15358TIP3   OH267488   4.891   4.040  11.524  0.8414 -0.1874 -0.3479
15358TIP3    H167489   4.814   4.033  11.467  0.1832 -1.5990  0.6451
15358TIP3    H267490   4.862   4.095  11.597  0.7295 -0.8065  0.0799
15359TIP3   OH267491   0.486   4.593  15.475 -0.0544 -0.1458  0.0255
15359TIP3    H167492   0.460   4.608  15.566  1.0430  1.3497  0.1357
15359TIP3    H267493   0.564   4.538  15.481  1.2793  1.6439  0.1788
15360TIP3   OH267494   4.925   3.891   0.445  0.4314 -0.2622 -1.0490
15360TIP3    H167495   4.993   3.891   0.512  0.3938  2.4482 -0.9286
15360TIP3    H267496   4.852   3.938   0.485 -0.4743 -0.6406 -2.1972
15361TIP3   OH267497   4.801   0.778  13.317 -0.2453 -0.4619  0.3972
15361TIP3    H167498   4.848   0.859  13.300  0.9078 -0.4517  3.1349
15361TIP3    H267499   4.826   0.720  13.245 -0.0784  1.1821 -0.9048
15362TIP3   OH267500   0.545   0.367   2.868 -0.6702 -0.1736  0.5692
15362TIP3    H167501   0.573   0.384   2.958  3.2863  0.4399 -0.5779
15362TIP3    H267502   0.536   0.454   2.830 -1.8212 -0.4438  0.1942
15363TIP3   OH267503   1.940   4.795   3.681  0.4836 -0.5469 -0.1523
15363TIP3    H167504   1.901   4.824   3.763 -2.3802  0.9442 -1.8823
15363TIP3    H267505   1.977   4.875   3.642  0.5361 -0.9463 -0.9470
15364TIP3   OH267506   3.958   6.343  12.148  0.1647  0.1788  0.1264
15364TIP3    H167507   3.894   6.286  12.189  1.8156 -1.7976  0.1256
15364TIP3    H267508   3.980   6.407  12.216  0.6916 -1.2532  1.3606
15365TIP3   OH267509   3.049   5.452   3.846  1.0538  0.3987 -0.2832
15365TIP3    H167510   3.012   5.511   3.912 -1.6547 -0.9266 -0.5013
15365TIP3    H267511   3.046   5.502   3.765  1.2371  0.8402 -0.0264
15366TIP3   OH267512   4.867   1.879  17.268  0.3891 -0.1385 -0.2522
15366TIP3    H167513   4.958   1.907  17.269  0.5852 -0.5705 -2.0258
15366TIP3    H267514   4.856   1.829  17.349  1.8585 -0.4681 -0.2355
15367TIP3   OH267515   5.553   0.384  11.914 -0.4091  0.1498 -0.2818
15367TIP3    H167516   5.543   0.316  11.981 -2.0298  0.7541  0.1597
15367TIP3    H267517   5.647   0.393  11.902 -0.1265 -2.4588 -0.6823
15368TIP3   OH267518   0.777   5.896  14.047  0.3717  0.6911 -0.8355
15368TIP3    H167519   0.726   5.924  13.971 -0.7021 -1.4009 -0.9593
15368TIP3    H267520   0.829   5.973  14.071 -0.7021  1.9971 -2.4836
15369TIP3   OH267521   4.378   2.914   0.344 -0.5346  0.1740 -0.2041
15369TIP3    H167522   4.332   2.933   0.425 -2.0604 -1.5353 -0.5964
15369TIP3    H267523   4.432   2.838   0.364  1.7815  1.7842  0.0762
15370TIP3   OH267524   2.212   4.300  13.401  0.0003  0.1676  0.0005
15370TIP3    H167525   2.272   4.326  13.470  0.0196  0.1723 -0.0182
15370TIP3    H267526   2.166   4.380  13.377 -0.2897  0.0904  0.2846
15371TIP3   OH267527   0.030   2.353   5.681  0.3994 -0.3646  0.1406
15371TIP3    H167528  -0.026   2.361   5.758 -0.5499  1.9430 -0.7152
15371TIP3    H267529   0.117   2.338   5.716 -0.5168 -3.2808  1.5321
15372TIP3   OH267530   2.662   5.254  14.853 -0.0162  0.1724  0.0804
15372TIP3    H167531   2.626   5.189  14.792  3.4326 -1.6528 -0.2530
15372TIP3    H267532   2.660   5.336  14.803 -2.1218 -0.1377 -0.4412
15373TIP3   OH267533   4.015   3.106   4.777  0.0222  0.1826  0.4881
15373TIP3    H167534   3.967   3.127   4.857  0.8244  0.2229  0.9702
15373TIP3    H267535   4.103   3.082   4.807  0.5004  0.7444 -0.4237
15374TIP3   OH267536   2.659   2.045  11.115  0.2184  0.2499 -0.1434
15374TIP3    H167537   2.747   2.041  11.077  0.7027 -0.1714  0.9801
15374TIP3    H267538   2.645   1.957  11.151 -0.6942  0.2963 -0.3815
15375TIP3   OH267539   3.452   4.088   2.123 -0.5528 -0.2065  0.3462
15375TIP3    H167540   3.360   4.081   2.146  0.1371 -2.2456  3.2118
15375TIP3    H267541   3.478   4.176   2.150 -1.0924 -0.6151  2.3777
15376TIP3   OH267542   6.449   4.027   0.839  0.5171  0.2980 -0.1740
15376TIP3    H167543   6.427   3.948   0.789 -0.7388 -0.0950  0.9318
15376TIP3    H267544   6.369   4.048   0.887  1.8493  0.1446  2.3220
15377TIP3   OH267545   5.743   5.741   1.091 -0.0755 -0.1971  0.2293
15377TIP3    H167546   5.811   5.698   1.143  0.5257  0.2374 -0.1707
15377TIP3    H267547   5.678   5.770   1.155 -0.2922 -1.3141  0.5450
15378TIP3   OH267548   5.796   2.568   6.503  0.5085 -0.1486  0.0248
15378TIP3    H167549   5.776   2.475   6.493  0.4321 -0.1855  0.4785
15378TIP3    H267550   5.880   2.569   6.549  1.7054  0.0020 -2.0626
15379TIP3   OH267551   4.325   6.041  17.335  0.4519 -0.2642  0.0361
15379TIP3    H167552   4.411   6.081  17.346  0.2808  0.3862 -0.8495
15379TIP3    H267553   4.263   6.112  17.350  0.0446 -0.7971  0.9718
15380TIP3   OH267554   2.055   0.855   0.771  0.5655 -0.2563  0.3555
15380TIP3    H167555   2.127   0.886   0.715 -0.5426  0.1718 -0.8736
15380TIP3    H267556   1.988   0.922   0.764 -0.7072 -1.5110 -0.0276
15381TIP3   OH267557   5.822   5.138  15.897  0.1508 -0.4883 -0.3503
15381TIP3    H167558   5.771   5.210  15.860  0.2973 -0.3043 -0.1901
15381TIP3    H267559   5.875   5.178  15.966 -1.1393 -1.0498  1.0343
15382TIP3   OH267560   6.191   6.447  11.933  0.0923 -0.6511  0.5310
15382TIP3    H167561   6.284   6.428  11.946  0.3306  0.4574  0.5921
15382TIP3    H267562   6.188   6.491  11.848 -0.5728 -1.8717 -0.1027
15383TIP3   OH267563   1.999   3.999  15.810 -0.1145 -0.1855 -0.6211
15383TIP3    H167564   1.914   4.035  15.836  0.2108 -1.3433  2.3843
15383TIP3    H267565   2.057   4.075  15.805 -0.4139  0.2388  1.4687
15384TIP3   OH267566   3.514   4.817  12.320 -0.0098 -0.0748 -0.2840
15384TIP3    H167567   3.442   4.762  12.351  1.7607 -0.5273  3.5231
15384TIP3    H267568   3.477   4.906  12.319 -0.5141 -0.1811  2.4017
15385TIP3   OH267569   1.588   2.457  12.778  0.0276  0.0673  0.2036
15385TIP3    H167570   1.588   2.371  12.735  0.5499 -0.0339  0.3980
15385TIP3    H267571   1.531   2.445  12.854  0.3383 -0.1998  0.3996
15386TIP3   OH267572   1.486   1.235  12.308  0.5394  0.2547 -0.1963
15386TIP3    H167573   1.554   1.244  12.375  0.7395 -0.4624 -0.2947
15386TIP3    H267574   1.438   1.317  12.312  1.2628  0.6734  0.0434
15387TIP3   OH267575   4.210   4.173   5.038  1.0559  0.2210 -0.0490
15387TIP3    H167576   4.176   4.083   5.041 -0.1521  0.6337 -0.7159
15387TIP3    H267577   4.276   4.171   4.969 -0.7658  0.3897 -1.8929
15388TIP3   OH267578   1.189   0.856  15.507  0.2013 -0.3685 -0.2480
15388TIP3    H167579   1.162   0.764  15.517 -0.1126 -0.5478 -2.2876
15388TIP3    H267580   1.199   0.867  15.413 -0.3190  1.8723 -0.0812
15389TIP3   OH267581   4.547   2.431  13.220  0.3395 -0.1915  0.2452
15389TIP3    H167582   4.467   2.407  13.267 -0.2751  0.0668 -0.6504
15389TIP3    H267583   4.598   2.349  13.216 -1.9663 -1.6803 -3.2576
15390TIP3   OH267584   6.040   1.049   1.517  0.3669  0.5716 -0.5741
15390TIP3    H167585   6.048   0.981   1.450  1.0461 -0.9753  0.9950
15390TIP3    H267586   6.119   1.102   1.507  1.4051 -0.7741  0.1396
15391TIP3   OH267587   6.404   4.422   3.684 -0.1252 -0.3754 -0.3103
15391TIP3    H167588   6.360   4.366   3.620 -0.0730 -1.5061  0.6201
15391TIP3    H267589   6.340   4.432   3.755  0.8971 -1.6707  0.8536
15392TIP3   OH267590   1.408   3.736  16.487 -0.1199 -0.3780 -0.4403
15392TIP3    H167591   1.481   3.732  16.550  0.2289 -3.9395 -0.9004
15392TIP3    H267592   1.329   3.731  16.541  0.1776 -3.4209 -0.1455
15393TIP3   OH267593   4.570   2.082   3.270 -0.6209  0.3355 -0.0395
15393TIP3    H167594   4.575   2.144   3.198  0.1763  1.3243  0.8237
15393TIP3    H267595   4.553   1.997   3.229 -3.2792  1.3103 -1.1369
15394TIP3   OH267596   2.148   1.969  16.445  0.4085  0.0658  0.3474
15394TIP3    H167597   2.233   1.993  16.483  1.5064 -1.5249 -0.9416
15394TIP3    H267598   2.091   1.957  16.521  1.7785 -0.3425  1.3736
15395TIP3   OH267599   2.787   2.686  13.369  0.1908  0.0776  0.1609
15395TIP3    H167600   2.871   2.677  13.324 -0.1230 -0.1660 -0.3898
15395TIP3    H267601   2.770   2.600  13.407  0.2509  0.1602  0.3718
15396TIP3   OH267602   0.750   6.441   0.536  0.2590  0.3164 -0.6485
15396TIP3    H167603   0.658   6.464   0.551 -0.0033 -1.1466  0.1276
15396TIP3    H267604   0.749   6.394   0.452  0.2791  0.2245 -0.5976
15397TIP3   OH267605   2.612   1.904   0.304  0.0727  0.6352 -0.4367
15397TIP3    H167606   2.582   1.905   0.395  0.6937 -0.4165 -0.1925
15397TIP3    H267607   2.534   1.922   0.252 -0.1911  1.7620  0.3137
15398TIP3   OH267608   2.189   4.076  10.988 -0.0579  0.0448  0.8546
15398TIP3    H167609   2.215   4.081  10.896 -1.2507 -2.4229  0.2786
15398TIP3    H267610   2.112   4.019  10.987 -0.3044  0.2348  3.3589
15399TIP3   OH267611   3.160   4.832  15.357 -0.5959 -0.1146 -0.0746
15399TIP3    H167612   3.085   4.843  15.415  1.0026 -1.7912  2.5522
15399TIP3    H267613   3.122   4.811  15.272 -3.1269 -1.0755  1.1944
15400TIP3   OH267614   2.782   3.819   5.218  0.2043 -0.1593  0.2005
15400TIP3    H167615   2.699   3.814   5.266  0.4882  0.3907  0.7578
15400TIP3    H267616   2.769   3.761   5.143 -0.0418 -1.5389  1.2549
15401TIP3   OH267617   4.554   2.415   4.967  0.2685 -0.4944  0.2428
15401TIP3    H167618   4.471   2.416   5.015  0.1179 -2.3920  0.0698
15401TIP3    H267619   4.588   2.327   4.979  1.1297 -0.4602 -1.6266
15402TIP3   OH267620   4.379   4.158   4.077  0.6906 -0.4362 -0.3059
15402TIP3    H167621   4.301   4.200   4.114  0.5092  1.0995 -2.3061
15402TIP3    H267622   4.451   4.189   4.132  0.3013  0.8964 -0.5241
15403TIP3   OH267623   6.212   5.491  12.273 -0.8103 -0.0206 -0.0838
15403TIP3    H167624   6.247   5.407  12.300 -2.9783 -0.1887  2.7195
15403TIP3    H267625   6.264   5.555  12.321 -0.6719  0.0986 -0.3895
15404TIP3   OH267626   4.799   4.946  15.024 -0.2309 -0.5662 -0.3479
15404TIP3    H167627   4.799   5.007  15.098 -0.2378 -0.9924  0.0089
15404TIP3    H267628   4.782   5.001  14.948 -2.2596 -0.3826  0.1783
15405TIP3   OH267629   5.777   3.450  15.186  0.2603 -0.4986 -0.1360
15405TIP3    H167630   5.797   3.481  15.274 -2.1235 -0.2971  0.3905
15405TIP3    H267631   5.702   3.391  15.197  0.9889 -1.8285 -1.8490
15406TIP3   OH267632   6.556   1.691  16.880  0.1860 -0.4445 -0.1082
15406TIP3    H167633   6.477   1.662  16.834  0.1247  0.0821 -0.3349
15406TIP3    H267634   6.586   1.768  16.831  0.4057 -0.1819  0.4358
15407TIP3   OH267635   3.476   4.583  15.123  0.1686  0.0467  0.5590
15407TIP3    H167636   3.568   4.572  15.098  0.2668  1.9897 -0.0944
15407TIP3    H267637   3.466   4.531  15.202  0.8524 -3.2052 -1.3339
15408TIP3   OH267638   0.361   3.398  13.458 -0.4837 -0.6965 -0.3544
15408TIP3    H167639   0.431   3.349  13.416 -0.6484 -0.7614 -0.5545
15408TIP3    H267640   0.373   3.381  13.552  0.7149  0.5600 -0.2462
15409TIP3   OH267641   0.644   6.657  12.189  0.2190  0.3412  0.5269
15409TIP3    H167642   0.695   6.730  12.154  1.2173 -0.8699 -0.6816
15409TIP3    H267643   0.710   6.600  12.230 -0.3836 -0.3893  0.4996
15410TIP3   OH267644   3.382   3.528   3.991  0.7923  0.5065  1.3936
15410TIP3    H167645   3.391   3.622   4.006  0.1499  0.3350  3.0363
15410TIP3    H267646   3.441   3.510   3.918  2.8298  1.7471  2.6313
15411TIP3   OH267647   2.157   0.861   1.239 -0.1995 -0.1487 -0.7727
15411TIP3    H167648   2.119   0.934   1.287  0.9747  0.0293 -0.0719
15411TIP3    H267649   2.213   0.903   1.173 -0.2147 -0.4043 -0.9475
15412TIP3   OH267650   4.014   5.341  15.736  0.1722  0.0515 -0.0643
15412TIP3    H167651   4.088   5.282  15.722 -0.3623 -1.8840  3.7984
15412TIP3    H267652   4.040   5.394  15.812 -1.2640  1.4540 -0.4897
15413TIP3   OH267653   4.245   1.367  12.630 -0.3865  0.1072  0.2736
15413TIP3    H167654   4.181   1.370  12.559 -0.6836 -1.7245  0.4125
15413TIP3    H267655   4.194   1.382  12.709 -0.4353 -0.0432  0.2724
15414TIP3   OH267656   4.587   6.538   2.021  0.3745  0.3952 -0.1962
15414TIP3    H167657   4.648   6.576   2.084  1.7422 -2.5734  0.4378
15414TIP3    H267658   4.505   6.586   2.034  1.8661  2.9098  0.5783
15415TIP3   OH267659   1.181   4.580  16.506 -0.7057 -0.2857  0.3170
15415TIP3    H167660   1.140   4.502  16.544 -0.9313 -0.3323 -0.0162
15415TIP3    H267661   1.140   4.653  16.553 -2.3214 -0.2526 -1.0492
15416TIP3   OH267662   2.840   5.189  13.635 -1.0139  0.0243 -0.5154
15416TIP3    H167663   2.780   5.127  13.677  0.2616 -0.5459  0.5102
15416TIP3    H267664   2.843   5.264  13.694  0.2032 -0.4645  0.0679
15417TIP3   OH267665   0.670   1.052   0.566  0.7259  0.0714  0.0548
15417TIP3    H167666   0.583   1.083   0.537 -0.0763 -1.0298  1.1941
15417TIP3    H267667   0.731   1.111   0.522 -0.5531  0.3767 -1.4304
15418TIP3   OH267668   2.082   5.282   0.000 -0.1449 -0.8805 -0.8257
15418TIP3    H167669   2.145   5.312   0.065  0.4612 -1.9280 -0.9085
15418TIP3    H267670   2.110   5.193  -0.021 -1.3568 -1.1799 -1.2420
15419TIP3   OH267671   0.066   6.167   5.878  0.0129 -0.1847  0.0377
15419TIP3    H167672  -0.014   6.220   5.877  0.2961  0.2712  0.6526
15419TIP3    H267673   0.117   6.199   5.804  0.9062  1.5886  1.3287
15420TIP3   OH267674   5.307   5.137  13.253 -0.3246  0.2588  0.2631
15420TIP3    H167675   5.384   5.080  13.261 -0.8004 -0.3557  0.5289
15420TIP3    H267676   5.333   5.218  13.297 -0.0769 -0.2023  0.9857
15421TIP3   OH267677   2.988   3.348  12.300 -0.6885  0.0217 -0.4381
15421TIP3    H167678   2.999   3.425  12.355 -0.6092  1.2444 -2.0689
15421TIP3    H267679   2.895   3.345  12.279 -0.4110  0.9225 -2.0050
15422TIP3   OH267680   0.360   0.771  16.324  0.2167  0.3914 -0.3547
15422TIP3    H167681   0.372   0.697  16.265 -0.5710  0.4481 -0.5863
15422TIP3    H267682   0.355   0.731  16.411  0.7767  0.2591 -0.3809
15423TIP3   OH267683   5.423   4.607   5.522 -0.3251 -0.4386 -0.6120
15423TIP3    H167684   5.445   4.525   5.567 -0.0406  0.1831  0.3986
15423TIP3    H267685   5.342   4.587   5.475 -0.6774 -1.0843  0.2368
15424TIP3   OH267686   2.388   3.033  16.821  0.1776 -0.0330  0.5617
15424TIP3    H167687   2.449   3.024  16.748  0.4380  1.0339  0.6278
15424TIP3    H267688   2.443   3.043  16.898 -0.0937 -1.8286  1.0268
15425TIP3   OH267689   2.695   1.629  16.304 -0.2754  0.7079 -0.1906
15425TIP3    H167690   2.740   1.708  16.273 -1.4738  1.1451 -0.8638
15425TIP3    H267691   2.737   1.609  16.388  2.8440 -0.3038 -1.8388
15426TIP3   OH267692   1.323   3.830  11.468 -0.3662  0.6472 -0.4318
15426TIP3    H167693   1.406   3.874  11.450 -0.5178  1.4478  0.7489
15426TIP3    H267694   1.331   3.800  11.559 -1.3466  0.6923 -0.3237
15427TIP3   OH267695   4.206   5.497  15.295 -0.1375 -0.0663  0.1386
15427TIP3    H167696   4.155   5.483  15.375  0.8871 -1.2919  0.6205
15427TIP3    H267697   4.159   5.566  15.248 -1.3230 -0.0309  1.3113
15428TIP3   OH267698   3.014   0.548   4.329  0.0771 -0.1659  0.2084
15428TIP3    H167699   2.998   0.487   4.258 -1.2051  1.1462 -0.6968
15428TIP3    H267700   3.090   0.599   4.300  0.5241 -0.6619  0.5037
15429TIP3   OH267701   5.517   5.586  16.307  0.0971 -0.0965  0.3018
15429TIP3    H167702   5.509   5.548  16.219  0.3131  0.5334  0.0069
15429TIP3    H267703   5.585   5.653  16.299  0.5395 -0.4321  1.0892
15430TIP3   OH267704   0.726   2.037  12.602  0.0997  0.2554 -0.0945
15430TIP3    H167705   0.692   2.013  12.516  0.7916 -1.1795 -0.0073
15430TIP3    H267706   0.669   2.108  12.632  0.2326  1.2180 -1.9825
15431TIP3   OH267707   4.445   4.044   2.177 -0.5669  0.4927 -0.2353
15431TIP3    H167708   4.373   3.981   2.176  0.7624 -1.0725 -0.9462
15431TIP3    H267709   4.457   4.067   2.085  1.1909 -0.9218 -0.4180
15432TIP3   OH267710   4.275   0.216   2.061  0.2191 -0.4095 -0.0346
15432TIP3    H167711   4.213   0.168   2.116 -2.0960  0.1981 -1.9297
15432TIP3    H267712   4.245   0.307   2.064  1.3248 -0.0001 -0.6426
15433TIP3   OH267713   0.553   4.131  12.530 -0.5951 -0.4268 -0.0935
15433TIP3    H167714   0.545   4.067  12.600  1.6549 -0.5622  0.1198
15433TIP3    H267715   0.552   4.079  12.449  1.1186 -0.7893  0.0737
15434TIP3   OH267716   5.417   2.365  16.648 -0.5808  0.5657 -0.3661
15434TIP3    H167717   5.433   2.453  16.613 -2.6777  1.3998  0.5910
15434TIP3    H267718   5.351   2.328  16.590 -0.1396 -0.1643 -0.4131
15435TIP3   OH267719   2.530   1.553   2.114  0.1461 -0.3298  0.3048
15435TIP3    H167720   2.565   1.638   2.086 -2.8358  0.6487 -0.9318
15435TIP3    H267721   2.581   1.488   2.065  1.3460  0.8268 -0.0429
15436TIP3   OH267722   3.073   3.633   4.061  0.1737 -0.0161 -0.2025
15436TIP3    H167723   3.007   3.575   4.024  1.7138 -0.9153 -1.6689
15436TIP3    H267724   3.130   3.576   4.113  1.4417  0.2217 -1.2860
15437TIP3   OH267725   0.658   6.463   4.258 -0.0288  0.2289  0.0497
15437TIP3    H167726   0.597   6.390   4.256  0.8353 -0.4992 -1.2767
15437TIP3    H267727   0.603   6.540   4.245 -0.6999 -0.4089 -1.1292
15438TIP3   OH267728   0.958   5.473  12.215  0.6570  0.0320 -0.0227
15438TIP3    H167729   1.003   5.390  12.230  0.6029 -0.0843 -0.5056
15438TIP3    H267730   0.925   5.498  12.302  0.0843 -0.7930  0.0129
15439TIP3   OH267731   2.612   6.623   4.291 -0.0811  0.6601  0.8390
15439TIP3    H167732   2.631   6.626   4.385  2.4344 -0.3280  0.4395
15439TIP3    H267733   2.616   6.530   4.268  0.4452  0.9785 -0.4434
15440TIP3   OH267734   2.454   6.058   1.681 -0.0475 -0.1720 -0.8017
15440TIP3    H167735   2.442   6.122   1.611  0.8213  0.8037 -0.0907
15440TIP3    H267736   2.515   6.101   1.742 -1.5764 -0.5531  1.0744
15441TIP3   OH267737   3.512   1.988  13.351 -0.2131  0.0704  0.1582
15441TIP3    H167738   3.475   1.955  13.269 -1.9479 -0.3914  1.0639
15441TIP3    H267739   3.467   2.072  13.365  1.5527  1.1570 -0.3335
15442TIP3   OH267740   3.754   6.593  15.259  0.2299 -0.4180 -0.0059
15442TIP3    H167741   3.703   6.654  15.205 -0.1589  0.4406  1.2669
15442TIP3    H267742   3.801   6.538  15.197 -0.0459  0.6619 -1.2050
15443TIP3   OH267743   6.097   2.428   0.958 -0.2049 -0.0178  0.0476
15443TIP3    H167744   6.024   2.371   0.935  0.7245 -1.3856  0.3347
15443TIP3    H267745   6.071   2.469   1.041  0.4403 -2.6750  1.6962
15444TIP3   OH267746   2.031   6.022   3.001 -0.4387 -0.6649 -0.5775
15444TIP3    H167747   2.006   5.948   3.055 -0.6135  1.5871  2.7336
15444TIP3    H267748   1.961   6.029   2.936 -2.5993 -1.0612  1.5687
15445TIP3   OH267749   2.843   4.656  17.130 -0.2527  0.1765 -0.1193
15445TIP3    H167750   2.797   4.740  17.134  0.3375  0.4478  1.9578
15445TIP3    H267751   2.794   4.599  17.189  1.5740  0.2600  1.5602
15446TIP3   OH267752   2.970   1.973   0.336  0.1235 -0.0211  0.0955
15446TIP3    H167753   2.925   1.946   0.255 -1.1018  1.2217  0.3367
15446TIP3    H267754   2.902   2.016   0.388  0.7083 -1.4013  2.1245
15447TIP3   OH267755   5.383   0.605  14.228  0.0258 -0.2373  0.0628
15447TIP3    H167756   5.405   0.683  14.177  0.7332 -0.9750 -0.8178
15447TIP3    H267757   5.413   0.532  14.174 -1.8229 -1.2022  0.2440
15448TIP3   OH267758   1.336   0.935  14.266 -0.2475  0.3703  0.0808
15448TIP3    H167759   1.269   0.926  14.198  0.0388  2.2604 -0.5306
15448TIP3    H267760   1.297   0.995  14.330  0.5618  0.9213  0.0817
15449TIP3   OH267761   2.324   3.903  12.831 -0.0474 -0.5773  0.0671
15449TIP3    H167762   2.292   3.875  12.917 -0.1245  0.0765  0.2621
15449TIP3    H267763   2.414   3.932  12.848  0.0588 -0.7812 -0.1433
15450TIP3   OH267764   1.078   4.873   0.688 -0.0674  0.0254  0.3188
15450TIP3    H167765   1.069   4.835   0.600  2.2104  0.3909 -0.1587
15450TIP3    H267766   1.054   4.965   0.676  2.2367  0.5966 -0.5042
15451TIP3   OH267767   0.554   5.881  10.734  0.0866  0.7601 -0.5700
15451TIP3    H167768   0.502   5.900  10.656  0.6912  1.3768 -0.8284
15451TIP3    H267769   0.628   5.829  10.702 -0.0962  0.3082 -0.2754
15452TIP3   OH267770   5.000   5.852  13.027  0.2704  0.1940  0.0544
15452TIP3    H167771   4.930   5.867  13.091  0.6674  2.0226  0.1148
15452TIP3    H267772   4.955   5.823  12.948 -1.0818  4.5112 -1.0328
15453TIP3   OH267773   1.752   0.915  15.669  0.1438 -0.6312 -0.1391
15453TIP3    H167774   1.848   0.917  15.670  0.2182 -1.2766 -2.1109
15453TIP3    H267775   1.730   0.829  15.705  0.2225 -0.0563  1.3671
15454TIP3   OH267776   0.383   0.572   5.511 -0.6566 -0.2000 -0.2702
15454TIP3    H167777   0.383   0.532   5.425  0.3313 -1.8428  0.4439
15454TIP3    H267778   0.398   0.665   5.494  0.6266 -0.6407 -1.8387
15455TIP3   OH267779   0.622   4.100   5.114 -0.4099  0.2148  0.1415
15455TIP3    H167780   0.655   4.025   5.163 -0.8864  0.0294  0.1829
15455TIP3    H267781   0.583   4.061   5.035 -1.8620  0.2814  0.7849
15456TIP3   OH267782   0.135   1.682  13.205  0.2038 -0.0877  0.0975
15456TIP3    H167783   0.079   1.718  13.136 -0.7350  1.0427  1.4028
15456TIP3    H267784   0.108   1.727  13.285  3.7191  1.3392  0.6636
15457TIP3   OH267785   6.104   6.266  12.120 -0.1482  0.0820  0.0787
15457TIP3    H167786   6.133   6.313  12.042  0.1275 -1.1380 -0.5768
15457TIP3    H267787   6.149   6.309  12.192  0.8187  0.2398 -0.5976
15458TIP3   OH267788   4.476   0.778  13.939 -0.4049 -0.4081  0.9299
15458TIP3    H167789   4.449   0.826  13.861 -1.9902 -1.5628  0.7293
15458TIP3    H267790   4.519   0.844  13.994 -2.4508  1.2579  0.6441
15459TIP3   OH267791   0.004   6.332   0.301  0.0411 -0.1651  0.4583
15459TIP3    H167792   0.058   6.411   0.312  0.2577 -0.2489 -0.0089
15459TIP3    H267793  -0.080   6.356   0.340  0.8528 -0.5410  2.6266
15460TIP3   OH267794   6.294   2.903   6.120 -0.1402 -0.3455 -0.2935
15460TIP3    H167795   6.215   2.956   6.130  0.9324  1.3293 -0.3104
15460TIP3    H267796   6.267   2.814   6.143 -1.1971  0.7698  3.3405
15461TIP3   OH267797   2.920   4.342   5.791 -0.0577  0.3813  0.3749
15461TIP3    H167798   2.900   4.421   5.842 -0.4320  1.2452 -1.0354
15461TIP3    H267799   3.003   4.311   5.825 -0.5164  0.6519  1.8073
15462TIP3   OH267800   3.246   0.184   2.213  0.1138  0.4022  0.8478
15462TIP3    H167801   3.156   0.184   2.246  0.5489  0.4778  2.0822
15462TIP3    H267802   3.252   0.263   2.159 -1.1531 -0.7039 -1.0120
15463TIP3   OH267803   4.623   4.899   5.282  0.2398 -0.4613 -0.2964
15463TIP3    H167804   4.697   4.921   5.338 -1.0259  1.5153  0.7016
15463TIP3    H267805   4.561   4.855   5.341 -0.2754 -0.1550 -0.6019
15464TIP3   OH267806   2.274   3.675   4.185 -0.1796  0.1112  0.2416
15464TIP3    H167807   2.272   3.636   4.273  0.9353  0.2754  0.3568
15464TIP3    H267808   2.237   3.763   4.197  0.6879  0.4242  0.7141
15465TIP3   OH267809   3.945   1.581  14.286 -0.5733 -0.0354 -0.3267
15465TIP3    H167810   3.968   1.672  14.267 -1.2004  0.5389  1.4725
15465TIP3    H267811   3.937   1.577  14.382 -1.7514 -1.7003 -0.4445
15466TIP3   OH267812   4.618   3.534   3.261  0.7108  0.0331  0.2197
15466TIP3    H167813   4.669   3.602   3.305  1.1751 -0.0962 -0.1161
15466TIP3    H267814   4.543   3.520   3.319  0.4122  1.0944  0.1191
15467TIP3   OH267815   1.461   1.871   3.960 -0.0952 -0.1536 -0.0995
15467TIP3    H167816   1.402   1.888   3.886 -0.5071  1.0362  0.4735
15467TIP3    H267817   1.403   1.842   4.030 -0.1916  2.0304  0.7911
15468TIP3   OH267818   2.481   1.523   4.705  0.0467 -0.1225  0.0434
15468TIP3    H167819   2.407   1.476   4.744 -0.7379  1.2493  0.2694
15468TIP3    H267820   2.547   1.527   4.774 -0.8676  1.2407  0.8942
15469TIP3   OH267821   4.969   3.812  13.668  0.3832  0.1306 -0.2629
15469TIP3    H167822   5.013   3.728  13.651 -0.3530 -0.4734  0.7524
15469TIP3    H267823   4.894   3.812  13.608  1.8686  1.3244 -2.2654
15470TIP3   OH267824   6.188   0.024  13.409  0.2682  0.8702 -0.1157
15470TIP3    H167825   6.250   0.058  13.474 -0.5933  1.3916  0.4535
15470TIP3    H267826   6.145  -0.049  13.453  0.8865  0.1198 -0.7269
15471TIP3   OH267827   5.848   0.338   1.451 -0.7059 -0.3834  0.4788
15471TIP3    H167828   5.791   0.397   1.402  0.0190  0.8824  1.1101
15471TIP3    H267829   5.789   0.292   1.511 -1.6880 -2.3064 -1.7851
15472TIP3   OH267830   3.037   3.424   0.684  0.6638 -0.8460  0.3704
15472TIP3    H167831   3.054   3.516   0.667  0.0498 -0.9940 -1.2031
15472TIP3    H267832   3.085   3.377   0.615 -1.8097 -1.4845 -1.0398
15473TIP3   OH267833   3.224   2.581   4.393  0.4443 -0.3996 -0.4393
15473TIP3    H167834   3.142   2.553   4.352  0.5150 -0.4540 -0.5444
15473TIP3    H267835   3.231   2.527   4.472  0.5526 -0.6386 -0.6119
15474TIP3   OH267836   4.026   4.290  15.574 -0.0480  0.5210  0.0250
15474TIP3    H167837   4.099   4.301  15.635 -1.2955 -0.4447  1.7736
15474TIP3    H267838   4.037   4.202  15.539 -1.9193 -0.9059  2.6304
15475TIP3   OH267839   0.334   5.619   3.140  0.2111 -0.4813 -0.0389
15475TIP3    H167840   0.344   5.712   3.163  0.2803 -0.7630  1.0989
15475TIP3    H267841   0.349   5.617   3.046 -0.2722  0.7416 -0.1687
15476TIP3   OH267842   0.450   5.383  14.744  0.2779 -0.0382  0.0039
15476TIP3    H167843   0.532   5.336  14.729  0.8444  0.9271 -0.0044
15476TIP3    H267844   0.464   5.468  14.704 -0.5460  0.3160  0.4553
15477TIP3   OH267845   4.623   1.375  11.240  0.2690  0.0439  0.0113
15477TIP3    H167846   4.652   1.287  11.218  1.3514  0.6289 -1.0057
15477TIP3    H267847   4.641   1.427  11.162 -0.4200  1.1557  0.5622
15478TIP3   OH267848   4.037   1.951   0.904  0.2397  0.5198 -0.0986
15478TIP3    H167849   4.098   1.926   0.973  1.6244 -0.3457 -1.5542
15478TIP3    H267850   4.062   2.040   0.880 -0.2308  0.8144  0.4647
15479TIP3   OH267851   5.884   3.180  17.247  0.1849 -0.2605 -0.4894
15479TIP3    H167852   5.978   3.166  17.260  0.5136  1.7221 -0.4698
15479TIP3    H267853   5.872   3.179  17.153 -0.5982 -4.8995 -0.5769
15480TIP3   OH267854   3.322   3.281   5.821  0.6722 -0.6020  0.3019
15480TIP3    H167855   3.248   3.222   5.831 -0.8519  0.6848 -2.1800
15480TIP3    H267856   3.300   3.357   5.876  0.4724 -0.5252  0.1186
15481TIP3   OH267857   3.030   6.087   0.554 -0.1799  0.1870 -0.0511
15481TIP3    H167858   3.123   6.085   0.578 -0.0913  0.2578 -0.3874
15481TIP3    H267859   2.984   6.073   0.637  0.1335 -0.0841  0.0793
15482TIP3   OH267860   6.147   0.125  13.729  0.1089 -0.7554 -0.6483
15482TIP3    H167861   6.084   0.184  13.687 -0.0749 -2.7525 -3.4919
15482TIP3    H267862   6.224   0.179  13.746 -1.4810  1.1974  0.7655
15483TIP3   OH267863   6.195   5.200  11.419  0.1407  0.4755  0.3416
15483TIP3    H167864   6.190   5.104  11.410  0.0923  0.3109  1.9219
15483TIP3    H267865   6.104   5.228  11.430  0.1219  0.7551 -0.4688
15484TIP3   OH267866   6.445   6.602   3.074  0.4794  0.2371 -0.6931
15484TIP3    H167867   6.468   6.510   3.086 -0.5557 -0.1039 -1.1522
15484TIP3    H267868   6.486   6.626   2.991  0.3892  0.0542 -0.7926
15485TIP3   OH267869   6.335   4.203   6.114  0.5297 -0.5568 -0.4582
15485TIP3    H167870   6.418   4.248   6.126  0.1153 -0.0159  0.4666
15485TIP3    H267871   6.309   4.174   6.201 -0.0461 -1.1024 -0.7956
15486TIP3   OH267872   3.780   1.165  15.255 -0.0071 -0.5904 -0.6196
15486TIP3    H167873   3.760   1.090  15.200 -1.2878 -0.7564  0.0336
15486TIP3    H267874   3.784   1.239  15.195  0.3996 -1.0415 -1.1542
15487TIP3   OH267875   5.936   5.456  17.083  0.0054 -0.6209  0.0924
15487TIP3    H167876   6.008   5.401  17.052 -1.3851 -2.7351  0.3664
15487TIP3    H267877   5.919   5.424  17.172 -0.7524  0.3833  0.3223
15488TIP3   OH267878   3.345   5.813  14.949  0.5825 -0.0108 -0.2245
15488TIP3    H167879   3.352   5.829  15.043  0.0648  1.2623 -0.3839
15488TIP3    H267880   3.352   5.718  14.940 -0.3274 -0.2380  1.1862
15489TIP3   OH267881   5.466   0.429  11.497  0.0736 -0.2715 -0.0470
15489TIP3    H167882   5.390   0.390  11.453 -1.8238  2.9328  0.0329
15489TIP3    H267883   5.532   0.361  11.496 -2.1918 -2.6477 -1.7660
15490TIP3   OH267884   5.172   4.257   5.536 -0.3826 -0.2845  0.1337
15490TIP3    H167885   5.220   4.268   5.454  0.1604 -0.0869  0.4742
15490TIP3    H267886   5.130   4.172   5.527 -0.0076 -0.4421 -0.1886
15491TIP3   OH267887   2.153   0.825   6.154  0.2579 -0.9592  0.1046
15491TIP3    H167888   2.075   0.788   6.113  0.8076 -0.5348 -1.3823
15491TIP3    H267889   2.192   0.752   6.202 -1.6237 -0.9152  1.8432
15492TIP3   OH267890   2.312   0.179  16.163 -0.1134  0.3206 -0.1524
15492TIP3    H167891   2.378   0.219  16.220 -2.0640  1.0990  1.7093
15492TIP3    H267892   2.229   0.209  16.199 -1.5102 -0.7000 -2.3454
15493TIP3   OH267893   3.487   0.070   0.718  0.6955  0.4589 -0.2057
15493TIP3    H167894   3.448   0.019   0.647 -0.8216  1.2615  0.0191
15493TIP3    H267895   3.581   0.063   0.703  0.5922 -2.7684  0.0786
15494TIP3   OH267896   5.787   0.633  12.012 -0.0406 -0.2717 -0.3112
15494TIP3    H167897   5.809   0.542  11.992 -0.2323 -0.4464  0.2472
15494TIP3    H267898   5.693   0.640  11.998  0.1725  0.2025 -1.6664
15495TIP3   OH267899   1.160   2.991   3.190  0.5074  0.2178 -0.1548
15495TIP3    H167900   1.140   2.897   3.194  1.2249  0.1040  2.4092
15495TIP3    H267901   1.253   2.994   3.166  0.6368  0.2446  0.3467
15496TIP3   OH267902   4.947   1.944  12.024 -0.4456 -0.0244 -0.3048
15496TIP3    H167903   4.949   1.896  11.941 -0.0536 -1.1315  0.3312
15496TIP3    H267904   5.030   1.991  12.027 -0.0029 -0.8133 -0.0640
15497TIP3   OH267905   5.600   2.481   5.182 -0.3166  0.2693  0.0418
15497TIP3    H167906   5.595   2.553   5.245  0.9070 -0.0998  0.5802
15497TIP3    H267907   5.692   2.457   5.180 -0.6448 -1.0167 -0.4534
15498TIP3   OH267908   2.943   4.797  10.671 -0.2688 -0.6062 -0.7466
15498TIP3    H167909   3.036   4.777  10.669 -0.1765 -0.3950  0.4303
15498TIP3    H267910   2.906   4.731  10.730 -0.2066  1.5659  1.9347
15499TIP3   OH267911   6.328   5.467   3.396  0.7964 -0.0964 -0.3182
15499TIP3    H167912   6.421   5.487   3.387  0.8791  0.7487  1.8625
15499TIP3    H267913   6.324   5.394   3.458 -0.0076  0.6669  0.5722
15500TIP3   OH267914   1.109   5.409  14.951 -0.1762  0.2802  0.0652
15500TIP3    H167915   1.074   5.331  14.908  0.1430  0.9902 -1.5185
15500TIP3    H267916   1.032   5.457  14.980 -0.3763 -0.6442  1.1443
15501TIP3   OH267917   6.402   0.801  12.070  0.0172  0.0280 -0.2167
15501TIP3    H167918   6.363   0.766  12.150  0.7216 -0.9542 -0.2831
15501TIP3    H267919   6.349   0.878  12.049 -0.8066 -0.2904  0.6275
15502TIP3   OH267920   1.032   2.759  15.652 -0.6728 -0.5564 -0.0288
15502TIP3    H167921   1.116   2.724  15.681 -1.0413 -0.7279  0.8738
15502TIP3    H267922   1.047   2.853  15.642  0.2625 -0.8795 -2.2476
15503TIP3   OH267923   1.827   2.330  15.946  0.1084 -0.7652  0.0184
15503TIP3    H167924   1.782   2.287  15.874 -0.6412  0.2520 -0.1425
15503TIP3    H267925   1.766   2.397  15.977  0.9947 -0.2123  0.6451
15504TIP3   OH267926   0.096   4.640  15.771 -0.0592  0.3219  0.0556
15504TIP3    H167927   0.056   4.616  15.687 -0.2232  2.2933 -0.4768
15504TIP3    H267928   0.063   4.575  15.833 -1.9521  0.2789 -0.9227
15505TIP3   OH267929   0.459   2.883  14.771 -0.1947 -0.1199 -0.3627
15505TIP3    H167930   0.375   2.876  14.816 -0.1686  2.2188  0.1705
15505TIP3    H267931   0.524   2.851  14.835 -0.5120 -0.5217 -0.2342
15506TIP3   OH267932   4.915   2.539  10.893  0.4355 -0.3153  0.4463
15506TIP3    H167933   4.843   2.486  10.860  0.2782  0.0106  0.2590
15506TIP3    H267934   4.898   2.627  10.858  1.6163 -0.5016 -0.6624
15507TIP3   OH267935   6.536   0.498  13.753 -0.2879  0.3921  0.6091
15507TIP3    H167936   6.608   0.549  13.791 -1.2716  1.2600  1.3727
15507TIP3    H267937   6.504   0.553  13.681  1.1624 -0.9648 -1.1573
15508TIP3   OH267938   4.711   2.594  11.421 -0.3760 -0.8578  0.1143
15508TIP3    H167939   4.650   2.520  11.426 -1.3887 -0.1280 -0.9469
15508TIP3    H267940   4.731   2.602  11.328 -0.0005 -0.0051  0.2605
15509TIP3   OH267941   5.467   6.567   0.710  0.4783  0.0199 -0.2490
15509TIP3    H167942   5.513   6.599   0.632 -1.9337 -0.9407 -2.2229
15509TIP3    H267943   5.439   6.478   0.686 -0.5299 -0.2094  1.6277
15510TIP3   OH267944   2.844   4.357   0.189 -0.5582 -0.2997  0.4706
15510TIP3    H167945   2.893   4.439   0.197 -0.4222 -0.4587  1.3341
15510TIP3    H267946   2.904   4.289   0.220 -0.7448 -0.7108 -0.0405
15511TIP3   OH267947   4.854   3.203  17.351 -0.0047  0.3542  0.8673
15511TIP3    H167948   4.806   3.285  17.343 -2.6618 -1.2959 -2.8200
15511TIP3    H267949   4.803   3.151  17.413 -0.6975  0.0531  0.0547
15512TIP3   OH267950   5.438   1.767  14.770  0.1236 -0.4058  0.5777
15512TIP3    H167951   5.457   1.763  14.676  1.3741  1.1626  0.7171
15512TIP3    H267952   5.347   1.797  14.775 -0.3122 -1.5723 -0.1226
15513TIP3   OH267953   1.703   0.650  11.850 -0.2898 -0.4902  0.0223
15513TIP3    H167954   1.653   0.571  11.867 -1.5840  0.2285 -0.2717
15513TIP3    H267955   1.772   0.623  11.791  0.8482 -1.8847  1.8905
15514TIP3   OH267956   2.890   3.745  10.923 -0.0012 -0.3609 -0.0656
15514TIP3    H167957   2.877   3.714  10.834 -1.3221 -1.5886  0.5230
15514TIP3    H267958   2.841   3.685  10.977  0.6927  0.4209  1.5084
15515TIP3   OH267959   6.011   1.135  14.032  0.3580  0.1993  0.8079
15515TIP3    H167960   6.072   1.097  13.968  1.9220  0.9992  1.7584
15515TIP3    H267961   6.031   1.090  14.114  0.1800  0.9690  1.2844
15516TIP3   OH267962   5.855   6.613   0.921  0.3001  0.7026 -0.3827
15516TIP3    H167963   5.827   6.555   0.992 -0.1248 -0.3778 -1.3889
15516TIP3    H267964   5.937   6.652   0.952 -0.0513  0.5106  0.8223
15517TIP3   OH267965   4.736   4.716   2.894  0.4568 -0.3827 -0.0434
15517TIP3    H167966   4.647   4.743   2.871  1.1091  0.5480 -1.5987
15517TIP3    H267967   4.739   4.725   2.990 -0.6488  1.0943 -0.1120
15518TIP3   OH267968   6.470   4.234  17.104 -0.2270 -0.1444 -0.4205
15518TIP3    H167969   6.539   4.288  17.064  0.1733 -0.4030 -0.0767
15518TIP3    H267970   6.465   4.265  17.194  0.3493 -1.0119 -0.0802
15519TIP3   OH267971   0.983   0.443   4.901  0.2072  0.2372  0.2917
15519TIP3    H167972   0.929   0.446   4.980  0.6892  0.9039  0.6091
15519TIP3    H267973   1.008   0.351   4.893  0.4733  0.2165  1.1481
15520TIP3   OH267974   5.102   6.279   2.880 -0.7744  0.5427 -0.3161
15520TIP3    H167975   5.038   6.211   2.900 -0.4597 -0.2198 -1.8084
15520TIP3    H267976   5.125   6.265   2.789  2.5312 -0.0474  0.4879
15521TIP3   OH267977   3.896   5.906  13.016  0.4329 -0.5414 -0.1934
15521TIP3    H167978   3.838   5.970  13.057 -1.1412 -2.6776  1.1659
15521TIP3    H267979   3.985   5.939  13.033 -0.3010  1.1816  0.5211
15522TIP3   OH267980   3.811   0.142  16.712  0.2570 -1.0998 -0.1938
15522TIP3    H167981   3.738   0.186  16.755  1.5436  0.6798  0.2669
15522TIP3    H267982   3.840   0.076  16.775  0.2166 -0.5499  0.4108
15523TIP3   OH267983   5.100   2.082  14.423 -0.1856 -0.1756 -0.8809
15523TIP3    H167984   5.136   2.124  14.501  1.0761 -0.2181 -1.4151
15523TIP3    H267985   5.014   2.122  14.412  0.6803  1.7800 -0.9609
15524TIP3   OH267986   5.006   4.626   6.195  0.4142  0.1391  0.1924
15524TIP3    H167987   4.997   4.637   6.290 -0.6051 -1.3165  0.2956
15524TIP3    H267988   5.046   4.539   6.185  0.2746  0.1776 -0.7222
15525TIP3   OH267989   4.062   1.400   4.242 -0.1622  0.1766  0.2103
15525TIP3    H167990   4.153   1.389   4.214 -0.4013 -1.2286 -0.0519
15525TIP3    H267991   4.035   1.482   4.201  1.1077  0.8597  0.6585
15526TIP3   OH267992   2.725   3.564   1.336 -0.3163 -0.3285 -0.4224
15526TIP3    H167993   2.800   3.588   1.390  0.0184 -1.0952 -0.5314
15526TIP3    H267994   2.751   3.588   1.247 -0.0541 -0.9032 -0.5068
15527TIP3   OH267995   0.982   1.785  12.721 -0.1047  0.5498  0.1509
15527TIP3    H167996   1.064   1.735  12.726 -0.3327 -0.1109 -1.8478
15527TIP3    H267997   0.914   1.719  12.711 -1.0753  1.0377  2.7622
15528TIP3   OH267998   5.350   2.747  16.101  0.2328 -0.2952 -0.2219
15528TIP3    H167999   5.317   2.657  16.111 -1.4920  0.3715  0.5015
15528TIP3    H268000   5.336   2.767  16.009  1.4972 -1.0575 -0.6089
15529TIP3   OH268001   5.023   1.234   2.444  0.0547 -1.3694 -0.0283
15529TIP3    H168002   5.013   1.142   2.469 -1.6097 -1.5083 -1.0074
15529TIP3    H268003   5.086   1.269   2.506 -3.2962 -1.7768  4.0832
15530TIP3   OH268004   5.171   4.603   3.440 -0.8267 -0.3130 -0.5241
15530TIP3    H168005   5.180   4.602   3.345 -0.1582  1.5487 -0.5322
15530TIP3    H268006   5.228   4.533   3.471 -0.7372 -0.6649 -1.4780
15531TIP3   OH268007   3.383   2.835   0.601 -0.0791 -0.4762  0.2097
15531TIP3    H168008   3.474   2.863   0.610 -0.6402  2.0891 -1.0958
15531TIP3    H268009   3.333   2.896   0.655 -1.4180  1.6093 -3.0683
15532TIP3   OH268010   0.889   2.853  11.541 -0.0265  0.0185 -0.5482
15532TIP3    H168011   0.939   2.844  11.460 -0.9625  0.7326 -1.2320
15532TIP3    H268012   0.849   2.767  11.554 -1.1085  0.3147 -1.7105
15533TIP3   OH268013   4.939   5.632   4.947  0.1614  0.2252  0.3385
15533TIP3    H168014   4.872   5.670   4.891 -1.0118 -0.8180  0.9629
15533TIP3    H268015   4.929   5.537   4.935  0.2531 -0.0021  1.8532
15534TIP3   OH268016   0.774   2.446   6.537  1.1026 -0.7941 -0.2749
15534TIP3    H168017   0.757   2.424   6.628 -0.1683 -1.8155 -0.7200
15534TIP3    H268018   0.690   2.480   6.505  1.9279  0.9684 -0.6975
15535TIP3   OH268019   5.805   0.685   3.367  0.0211 -0.6262  0.4170
15535TIP3    H168020   5.728   0.702   3.421  0.5733 -1.4205  1.5000
15535TIP3    H268021   5.771   0.676   3.278 -0.8596  1.0924  0.5466
15536TIP3   OH268022   5.583   6.310  15.321  0.1649  0.4430  0.7237
15536TIP3    H168023   5.634   6.385  15.289  2.1132 -0.1844  2.1153
15536TIP3    H268024   5.634   6.278  15.396 -2.1016 -0.5464  1.9208
15537TIP3   OH268025   3.059   0.290   2.824  0.2310 -0.3981 -0.5111
15537TIP3    H168026   3.012   0.350   2.882  1.2876  0.2475 -0.3048
15537TIP3    H268027   3.006   0.288   2.744 -0.6221 -0.3925  0.0370
15538TIP3   OH268028   2.499   4.290  16.620 -0.0382  0.0256 -0.2117
15538TIP3    H168029   2.523   4.354  16.688 -1.8162  1.9434 -1.2817
15538TIP3    H268030   2.558   4.216  16.636  2.7016  2.1917  0.6401
15539TIP3   OH268031   4.484   0.202   5.397 -0.1219  0.1580 -0.4915
15539TIP3    H168032   4.505   0.199   5.491  0.2654  1.5538 -0.5104
15539TIP3    H268033   4.391   0.225   5.394  0.0938  1.0696 -0.4428
15540TIP3   OH268034   0.676   3.637   3.526  0.3310 -0.5464  0.0806
15540TIP3    H168035   0.707   3.660   3.613 -0.1277 -0.2614  0.1727
15540TIP3    H268036   0.664   3.721   3.481 -1.6158 -0.5391  0.5104
15541TIP3   OH268037   0.079   4.351  16.334  0.6516 -0.3646 -0.2383
15541TIP3    H168038   0.087   4.317  16.423  0.4228  1.4552  0.5253
15541TIP3    H268039   0.097   4.275  16.277 -0.9246 -1.9934  1.3097
15542TIP3   OH268040   3.358   2.241  10.927  0.7323 -0.2674  0.1073
15542TIP3    H168041   3.357   2.336  10.920 -0.4838 -0.2792 -0.0603
15542TIP3    H268042   3.440   2.221  10.971  0.3246  0.9633  1.5188
15543TIP3   OH268043   5.052   6.382   3.492  0.3188  0.1705 -0.1090
15543TIP3    H168044   4.968   6.350   3.522  0.1104  1.3178  0.5835
15543TIP3    H268045   5.070   6.332   3.412 -0.9647 -0.1532 -0.2122
15544TIP3   OH268046   3.265   3.819  15.789  0.2606  0.3419 -0.3256
15544TIP3    H168047   3.338   3.821  15.727  0.7630 -0.0551  0.2389
15544TIP3    H268048   3.300   3.860  15.868 -0.2487  0.4874 -0.1723
15545TIP3   OH268049   4.359   5.567  13.180  0.0854  0.4571  0.2933
15545TIP3    H168050   4.311   5.623  13.242 -1.1527  0.2923 -0.4781
15545TIP3    H268051   4.371   5.484  13.227 -1.6616  0.0153  0.0131
15546TIP3   OH268052   6.714   5.170   0.030  0.1176 -0.0741 -0.4238
15546TIP3    H168053   6.746   5.086  -0.003 -0.2498 -0.3925  0.0157
15546TIP3    H268054   6.731   5.167   0.124  0.8528  0.6931 -0.5231
15547TIP3   OH268055   1.827   3.480   5.803 -0.1076 -0.2402  0.1128
15547TIP3    H168056   1.869   3.517   5.725 -1.1022 -0.7281 -0.6779
15547TIP3    H268057   1.738   3.514   5.801  0.0709  0.3741  1.4878
15548TIP3   OH268058   2.691   0.881  15.208  0.2345  0.4651 -0.3093
15548TIP3    H168059   2.615   0.937  15.194  1.3036  2.3984  1.1329
15548TIP3    H268060   2.758   0.916  15.148  0.4040 -0.3899 -0.6382
15549TIP3   OH268061   4.513   4.835   2.760  0.0678  0.4480 -0.7614
15549TIP3    H168062   4.512   4.921   2.720  2.2142  0.4401 -0.9127
15549TIP3    H268063   4.469   4.847   2.844 -0.2811  1.5096 -1.0853
15550TIP3   OH268064   0.578   5.444  12.594 -0.4958  0.1698 -0.0253
15550TIP3    H168065   0.589   5.350  12.578 -1.3365 -0.0953  0.8591
15550TIP3    H268066   0.484   5.454  12.610 -0.3121  1.0551  0.5281
15551TIP3   OH268067   0.100   0.922   2.769 -0.0464 -0.3076  0.0123
15551TIP3    H168068   0.085   0.892   2.859  1.4926 -1.3239 -0.0216
15551TIP3    H268069   0.122   0.842   2.721  1.7328  0.5212 -0.6641
15552TIP3   OH268070   0.802   4.853   3.855  0.6546 -0.0007  0.1698
15552TIP3    H168071   0.757   4.781   3.811 -1.4488  2.3681 -1.8674
15552TIP3    H268072   0.862   4.888   3.789 -0.7867  2.1088 -0.1043
15553TIP3   OH268073   3.966   2.658  11.976  0.1631 -0.0151  0.0670
15553TIP3    H168074   4.052   2.695  11.954  1.3602 -2.1647  0.8270
15553TIP3    H268075   3.952   2.683  12.067 -0.1190  0.4753 -0.1052
15554TIP3   OH268076   3.204   0.989   3.121  0.6324  0.4297  0.4659
15554TIP3    H168077   3.272   0.970   3.186  1.5540  1.9237  0.0074
15554TIP3    H268078   3.220   1.081   3.097 -2.0136  1.0794  0.8795
15555TIP3   OH268079   0.610   3.996   5.548 -0.0934  0.0306 -0.0714
15555TIP3    H168080   0.629   3.911   5.587 -0.1330 -0.8114 -1.8157
15555TIP3    H268081   0.672   4.004   5.476 -0.0265  1.5489  0.1158
15556TIP3   OH268082   4.584   2.932   3.660 -0.1079  0.1674 -0.6980
15556TIP3    H168083   4.583   2.857   3.720  1.8374  1.0487  0.5547
15556TIP3    H268084   4.593   3.008   3.717 -2.6998  1.4931 -1.8984
15557TIP3   OH268085   5.281   3.676   5.409 -0.1297 -0.0894 -0.0831
15557TIP3    H168086   5.332   3.631   5.342  0.8880  0.7274  0.1203
15557TIP3    H268087   5.309   3.767   5.404  1.9557 -0.3835  3.1309
15558TIP3   OH268088   3.686   1.516   2.695  0.3609  0.5201  0.1887
15558TIP3    H168089   3.644   1.600   2.679  2.4860  1.7672  0.8048
15558TIP3    H268090   3.753   1.534   2.761  1.4744 -1.4483 -0.3024
15559TIP3   OH268091   3.758   3.705   1.740  1.0104  0.1953  0.2717
15559TIP3    H168092   3.687   3.643   1.758 -0.1992  0.8853 -1.8105
15559TIP3    H268093   3.769   3.702   1.645  2.8752  1.1033  0.4192
15560TIP3   OH268094   2.314   5.297   2.056  0.4483 -0.2459 -0.4774
15560TIP3    H168095   2.323   5.242   2.134  0.3326  0.1507 -0.1823
15560TIP3    H268096   2.383   5.266   1.997  0.0914 -1.0189 -0.5040
15561TIP3   OH268097   0.346   5.245   2.311  0.1896  0.0878 -0.3574
15561TIP3    H168098   0.275   5.257   2.248  1.6784  0.4904 -2.0330
15561TIP3    H268099   0.417   5.300   2.278  1.0448  0.3244  1.6978
15562TIP3   OH268100   3.904   1.360   2.604  0.8465 -0.1794 -0.1530
15562TIP3    H168101   3.890   1.300   2.531  0.1593 -0.7421  0.4252
15562TIP3    H268102   3.819   1.399   2.621  1.3774  1.3242 -0.8052
15563TIP3   OH268103   4.207   2.328  16.128 -0.5210 -0.0445 -0.1223
15563TIP3    H168104   4.273   2.366  16.070 -0.3420  0.1640  0.2173
15563TIP3    H268105   4.245   2.334  16.216 -1.2020  0.5326  0.1379
15564TIP3   OH268106   6.089   1.300   5.973 -0.0450  0.1366  0.4068
15564TIP3    H168107   6.069   1.393   5.968 -0.8858 -0.0945 -1.0739
15564TIP3    H268108   6.035   1.260   5.906  0.2682 -1.4420  1.0473
15565TIP3   OH268109   1.838   6.568   4.506 -0.2011  0.3744 -0.5005
15565TIP3    H168110   1.768   6.628   4.482 -0.7883  0.0539  0.3275
15565TIP3    H268111   1.851   6.512   4.429 -1.1673  0.1576 -0.5156
15566TIP3   OH268112   4.160   4.560  14.400 -0.1649  0.6972 -0.1610
15566TIP3    H168113   4.164   4.610  14.319  0.7635 -0.0041 -0.5586
15566TIP3    H268114   4.241   4.583  14.446 -0.8570  1.3886  0.7661
15567TIP3   OH268115   2.919   6.748  15.424  0.2071 -0.4910  0.2092
15567TIP3    H168116   2.876   6.763  15.508  0.6996 -1.3413  0.6229
15567TIP3    H268117   2.857   6.782  15.359 -0.1370  0.2578  0.9114
15568TIP3   OH268118   0.119   5.462  15.277 -0.4052 -0.0332  0.0256
15568TIP3    H168119   0.178   5.507  15.337  2.1134 -1.3261 -1.2926
15568TIP3    H268120   0.153   5.372  15.272 -1.1317 -0.2627 -2.4406
15569TIP3   OH268121   0.362   0.021  10.610 -0.6371 -0.5373  0.2350
15569TIP3    H168122   0.306   0.027  10.532 -0.0876 -1.7249 -0.2814
15569TIP3    H268123   0.398  -0.068  10.606  2.1660  0.5452 -0.0480
15570TIP3   OH268124   1.436   3.082  17.265 -0.7035 -0.3261  0.1570
15570TIP3    H168125   1.411   3.049  17.179 -1.7725  0.0221  0.3098
15570TIP3    H268126   1.388   3.165  17.273 -1.2949 -0.7638  1.4082
15571TIP3   OH268127   2.617   0.173  13.145 -0.2014 -0.1132 -0.3610
15571TIP3    H168128   2.634   0.254  13.193 -0.5232 -1.4428  2.1695
15571TIP3    H268129   2.693   0.118  13.163 -0.8092 -1.0281 -0.5410
15572TIP3   OH268130   4.532   4.230   5.180  0.1719 -0.4968  0.2703
15572TIP3    H168131   4.581   4.310   5.197  1.3353 -0.7145 -1.7154
15572TIP3    H268132   4.553   4.173   5.255 -0.6134  0.9728  1.6689
15573TIP3   OH268133   4.150   4.713  12.193 -0.0317  0.0732 -0.2138
15573TIP3    H168134   4.099   4.700  12.112  0.4671 -0.6305 -0.4248
15573TIP3    H268135   4.167   4.807  12.195  0.4642  0.0244 -1.2529
15574TIP3   OH268136   3.870   0.999  14.701  0.4074 -0.4915  0.5442
15574TIP3    H168137   3.944   0.946  14.732 -0.5055 -1.7287  0.6702
15574TIP3    H268138   3.859   1.067  14.767 -0.2200 -1.8760  1.9248
15575TIP3   OH268139   5.337   5.072  11.147  0.5945  0.1696 -0.0160
15575TIP3    H168140   5.286   5.009  11.197 -1.6372  1.6175 -0.3010
15575TIP3    H268141   5.407   5.021  11.107 -0.5751 -1.9309  0.4983
15576TIP3   OH268142   3.478   0.769   1.063 -0.0517  0.3768  0.4017
15576TIP3    H168143   3.554   0.789   1.008 -0.3806 -0.0657 -0.2165
15576TIP3    H268144   3.516   0.732   1.143  0.3508 -0.5576 -0.2179
15577TIP3   OH268145   5.127   2.649  12.345  0.1412  0.5602  0.1550
15577TIP3    H168146   5.186   2.597  12.290  1.1688  1.8499  0.0067
15577TIP3    H268147   5.171   2.733  12.355 -1.1151  1.1372  1.0634
15578TIP3   OH268148   0.344   4.554  14.941 -0.0953 -0.2211 -0.1547
15578TIP3    H168149   0.341   4.593  14.853  0.4346  1.2721  0.4584
15578TIP3    H268150   0.365   4.627  14.999  1.1784 -1.4798  1.0488
15579TIP3   OH268151   4.190   5.859   0.087  0.4109 -1.1064  0.3688
15579TIP3    H168152   4.249   5.793   0.124  0.1505 -1.2748  0.4888
15579TIP3    H268153   4.248   5.924   0.047  0.6494 -1.6764 -0.2105
15580TIP3   OH268154   0.211   3.308   3.585 -0.0401  0.2790  0.3821
15580TIP3    H168155   0.223   3.264   3.501 -1.1867 -0.9096  0.8074
15580TIP3    H268156   0.116   3.313   3.596  0.0795 -0.2719  1.9343
15581TIP3   OH268157   2.091   1.823   3.073 -0.3615  0.4794 -0.5533
15581TIP3    H168158   2.006   1.781   3.063 -0.4854  0.9031 -1.3218
15581TIP3    H268159   2.155   1.753   3.056 -0.5227 -0.0956  1.0222
15582TIP3   OH268160   0.235   3.644  12.981 -0.2559 -0.4458  0.3128
15582TIP3    H168161   0.211   3.677  13.068 -1.3781  0.9735 -0.4920
15582TIP3    H268162   0.152   3.614  12.944  0.1268 -0.5256 -0.4865
15583TIP3   OH268163   1.603   0.389   1.739 -0.0544  0.7444  0.1283
15583TIP3    H168164   1.640   0.370   1.653 -1.3951  1.6529 -0.6813
15583TIP3    H268165   1.509   0.396   1.724 -0.5705 -0.9813  2.0197
15584TIP3   OH268166   2.649   2.788  14.969  0.2509  0.4460 -0.2006
15584TIP3    H168167   2.565   2.809  15.009  0.6106  0.9197  0.3177
15584TIP3    H268168   2.710   2.851  15.007  1.4190 -1.5925  1.5095
15585TIP3   OH268169   5.382   5.385   3.634 -0.6876 -0.4980  0.2627
15585TIP3    H168170   5.471   5.390   3.599 -0.8106  1.8483  0.1470
15585TIP3    H268171   5.326   5.405   3.559 -1.3154 -1.6628  0.4037
15586TIP3   OH268172   4.558   4.714   4.448 -0.0677  0.7830 -0.1701
15586TIP3    H168173   4.556   4.691   4.541  0.1789  1.5102  0.0189
15586TIP3    H268174   4.644   4.754   4.435  1.4302 -2.4690 -1.4860
15587TIP3   OH268175   3.629   4.862  13.071 -0.1098  0.2459 -0.4113
15587TIP3    H168176   3.655   4.772  13.052 -0.2651  0.5546 -2.3093
15587TIP3    H268177   3.700   4.916  13.037  0.9204  0.8541  2.4198
15588TIP3   OH268178   6.108   4.045  11.816 -0.6334 -0.5765 -0.6675
15588TIP3    H168179   6.119   3.979  11.748  1.0542 -1.0629  0.0245
15588TIP3    H268180   6.188   4.096  11.813 -0.9822  0.0530  0.2613
15589TIP3   OH268181   4.197   3.912  15.223  0.1133 -0.1322  0.3327
15589TIP3    H168182   4.229   3.823  15.208  2.2014  0.7776 -1.0995
15589TIP3    H268183   4.274   3.968  15.211 -1.2980  1.9385  0.3512
15590TIP3   OH268184   4.483   4.842  12.790  0.6126 -0.1496 -0.0635
15590TIP3    H168185   4.426   4.878  12.858  0.3341 -1.7254  0.5826
15590TIP3    H268186   4.536   4.917  12.761 -1.2092  1.1805 -0.1155
15591TIP3   OH268187   1.978   1.291  14.320 -0.4174 -0.1422  0.4001
15591TIP3    H168188   2.049   1.246  14.275  0.0807  1.4957 -0.5479
15591TIP3    H268189   1.997   1.384  14.307 -3.2422  0.3699 -0.7915
15592TIP3   OH268190   0.641   2.491   6.795 -0.5488 -0.0144 -0.4373
15592TIP3    H168191   0.598   2.560   6.846 -0.9517 -0.5353 -0.0698
15592TIP3    H268192   0.726   2.479   6.837 -0.3315  0.4961 -0.7145
15593TIP3   OH268193   5.420   5.892  12.221  0.8372 -0.0557  0.1200
15593TIP3    H168194   5.469   5.967  12.187  1.1914 -0.6282 -0.6648
15593TIP3    H268195   5.473   5.816  12.198 -0.0394 -0.6359 -0.0558
15594TIP3   OH268196   3.267   1.955  13.708 -0.4451 -0.0658 -0.0221
15594TIP3    H168197   3.179   1.923  13.726 -0.7144  1.1605  1.0114
15594TIP3    H268198   3.316   1.934  13.788 -0.2915  0.9044  0.1438
15595TIP3   OH268199   0.138   1.629  13.996  0.1814  0.3795  0.3087
15595TIP3    H168200   0.044   1.641  14.007  0.0071 -1.4208  1.1874
15595TIP3    H268201   0.175   1.640  14.083  0.8944  1.7154 -0.1401
15596TIP3   OH268202   6.368   1.881  10.672  0.1504  0.0939 -0.0189
15596TIP3    H168203   6.348   1.792  10.643 -2.0465  0.0942  1.3305
15596TIP3    H268204   6.443   1.871  10.731 -0.6144 -1.0109  0.8048
15597TIP3   OH268205   2.940   1.472   5.693 -0.1976 -0.0598 -0.3143
15597TIP3    H168206   2.929   1.377   5.701  0.9939 -0.2789 -1.0307
15597TIP3    H268207   2.877   1.498   5.626  1.6272 -0.8920 -2.4988
15598TIP3   OH268208   3.931   2.555  10.994  0.4103 -0.5174 -0.5834
15598TIP3    H168209   3.840   2.547  10.966 -0.6335 -1.4014  2.6569
15598TIP3    H268210   3.932   2.629  11.054  2.0259 -0.0675 -1.0975
15599TIP3   OH268211   3.070   0.039  15.998 -0.2332  0.0423 -0.3603
15599TIP3    H168212   3.047  -0.053  15.988 -0.7082  0.0852  0.2184
15599TIP3    H268213   3.138   0.055  15.933 -0.6641 -0.5334 -0.9589
15600TIP3   OH268214   4.059   5.292  17.266  0.4004  0.8855 -0.4645
15600TIP3    H168215   4.146   5.260  17.242  1.1899  0.3704  2.6136
15600TIP3    H268216   4.050   5.374  17.218  2.9458  1.3436 -0.3311
15601TIP3   OH268217   2.873   5.523   0.343 -0.0777 -0.9517 -0.3977
15601TIP3    H168218   2.946   5.465   0.365  1.0069  0.5356  0.1037
15601TIP3    H268219   2.897   5.561   0.259  0.0354 -0.0057  0.0488
15602TIP3   OH268220   1.251   4.854   6.725  0.2986 -0.4500  0.3488
15602TIP3    H168221   1.226   4.783   6.666  0.3100 -0.1416 -0.0343
15602TIP3    H268222   1.197   4.928   6.698 -0.6487 -0.6643  1.5810
15603TIP3   OH268223   1.006   6.733   3.630  1.1151  0.1559  0.6221
15603TIP3    H168224   0.998   6.638   3.643  2.5809 -0.2015 -0.7528
15603TIP3    H268225   1.097   6.753   3.656  1.7112  0.6649 -1.6763
15604TIP3   OH268226   0.794   2.929  12.644  0.2545  0.2445 -0.3634
15604TIP3    H168227   0.854   2.901  12.713  0.5346  2.0974  0.2193
15604TIP3    H268228   0.842   2.913  12.562  1.3036  1.0665  0.0591
15605TIP3   OH268229   6.014   3.092   6.427 -0.1759 -0.3197  0.7189
15605TIP3    H168230   6.042   3.184   6.422  0.7745 -0.5477  1.3552
15605TIP3    H268231   6.018   3.061   6.337  1.0295 -0.1426  0.6882
15606TIP3   OH268232   1.017   2.014  11.557 -0.1109 -0.0275  0.2446
15606TIP3    H168233   1.082   2.083  11.541 -0.3530 -0.0454 -0.8990
15606TIP3    H268234   0.954   2.024  11.485 -0.8323 -0.6425  0.7829
15607TIP3   OH268235   1.713   3.330  15.670  0.5995  0.1730 -0.0288
15607TIP3    H168236   1.635   3.379  15.647  0.1907  0.3970  1.7539
15607TIP3    H268237   1.684   3.266  15.735  2.0307  0.8443  1.3404
15608TIP3   OH268238   5.946   4.819  13.058 -0.1549 -0.1429  0.5425
15608TIP3    H168239   5.878   4.756  13.036  0.1953 -0.3757  0.1214
15608TIP3    H268240   6.019   4.798  13.000  0.3516 -0.0210  1.1137
15609TIP3   OH268241   4.982   3.637   0.616  0.2911 -0.1239 -0.0821
15609TIP3    H168242   5.069   3.625   0.578  0.5729 -1.4088  0.9041
15609TIP3    H268243   4.923   3.636   0.540  0.9599 -1.2577 -0.6248
15610TIP3   OH268244   1.367   4.769  16.309 -0.2933  0.1265  0.2523
15610TIP3    H168245   1.444   4.775  16.365  0.0695  0.5453 -0.2802
15610TIP3    H268246   1.390   4.819  16.231 -1.6559  1.5184  0.7001
15611TIP3   OH268247   4.092   2.217  12.103  0.6304 -0.6926  0.4088
15611TIP3    H168248   4.140   2.165  12.038  1.2552 -0.1558  0.4345
15611TIP3    H268249   4.064   2.295  12.054  1.0701 -0.3043  0.7804
15612TIP3   OH268250   1.714   2.135  15.333 -0.1504 -0.2083  0.4336
15612TIP3    H168251   1.706   2.230  15.340  1.1095  0.0606 -1.2564
15612TIP3    H268252   1.657   2.101  15.403 -2.4305  1.7162 -0.3518
15613TIP3   OH268253   6.659   5.181   4.593 -0.2048 -0.0319  0.1205
15613TIP3    H168254   6.572   5.155   4.624 -1.2600  0.3369 -2.2952
15613TIP3    H268255   6.673   5.268   4.631 -0.5106 -0.4187  1.1581
15614TIP3   OH268256   1.626   3.815  16.826  0.5979  0.1106  0.0519
15614TIP3    H168257   1.615   3.732  16.780 -0.3451 -0.0651  0.5601
15614TIP3    H268258   1.653   3.877  16.758  1.8356 -0.7128 -0.2301
15615TIP3   OH268259   1.930   0.907  14.716  0.1602 -0.6036  0.9097
15615TIP3    H168260   1.902   0.849  14.645 -0.1159 -0.0387  0.5473
15615TIP3    H268261   1.921   0.995  14.680  1.0659 -0.3451  1.2697
15616TIP3   OH268262   0.956   6.206  15.887  0.1446  0.0131  0.2191
15616TIP3    H168263   1.047   6.235  15.886  0.2341 -0.2764 -0.0746
15616TIP3    H268264   0.960   6.116  15.920 -0.1790  0.4817  1.5950
15617TIP3   OH268265   3.652   1.721   3.732 -0.0203 -0.3508 -0.3611
15617TIP3    H168266   3.575   1.776   3.748 -0.8407 -1.7759  0.9650
15617TIP3    H268267   3.633   1.640   3.779  0.9471 -1.9436 -2.5509
15618TIP3   OH268268   0.701   1.863  14.207  0.3520  0.2765  0.0865
15618TIP3    H168269   0.663   1.884  14.121 -0.2575 -2.2396 -0.3531
15618TIP3    H268270   0.627   1.869  14.267 -0.1404 -1.6902 -0.2630
15619TIP3   OH268271   4.796   3.739   3.130 -0.2938  0.1247  0.5901
15619TIP3    H168272   4.834   3.826   3.141 -1.9519  0.6816  2.7315
15619TIP3    H268273   4.867   3.679   3.150  0.6245  0.9801  0.0288
15620TIP3   OH268274   5.905   0.258  16.220  0.0390  0.5280 -0.4662
15620TIP3    H168275   5.907   0.216  16.134  0.3450 -1.3106  0.3965
15620TIP3    H268276   5.877   0.190  16.280  1.6240  1.2234  1.1836
15621TIP3   OH268277   1.711   2.736   2.754 -0.0395 -0.3423  0.2847
15621TIP3    H168278   1.735   2.766   2.666  0.7471 -0.0092  0.6029
15621TIP3    H268279   1.650   2.802   2.786  0.7619  0.2976  0.5207
15622TIP3   OH268280   0.999   0.445  13.952 -0.1318  0.1514 -0.1733
15622TIP3    H168281   1.045   0.423  13.871  0.1783 -0.1721  0.0873
15622TIP3    H268282   1.068   0.475  14.011 -0.4127  0.7848 -0.1666
15623TIP3   OH268283   0.522   6.526   0.361 -0.5909 -0.4958 -0.1989
15623TIP3    H168284   0.553   6.489   0.278 -0.5509 -0.0467 -0.3842
15623TIP3    H268285   0.537   6.620   0.353 -3.0562 -0.0592 -0.8020
15624TIP3   OH268286   2.475   0.361   3.405  0.3208  0.2026  0.0221
15624TIP3    H168287   2.426   0.298   3.457 -0.4027  1.6079  1.1060
15624TIP3    H268288   2.559   0.317   3.388 -1.5703 -2.7114 -2.8460
15625TIP3   OH268289   5.863   2.086  14.641  0.2731 -0.1422 -0.3458
15625TIP3    H168290   5.919   2.081  14.719 -0.0608 -0.7590 -0.1365
15625TIP3    H268291   5.919   2.057  14.569 -0.2892 -2.7247  0.1501
15626TIP3   OH268292   0.899   2.319   0.533  0.5715  0.3914 -0.8419
15626TIP3    H168293   0.829   2.287   0.588  0.0788 -2.8576 -3.0632
15626TIP3    H268294   0.937   2.391   0.582 -0.4966 -1.4805  3.1780
15627TIP3   OH268295   1.000   3.723   4.385 -0.0647 -0.1889  0.2909
15627TIP3    H168296   1.052   3.776   4.324  1.0516 -1.9889 -0.4167
15627TIP3    H268297   0.941   3.674   4.328 -1.3006  0.4917  0.9594
15628TIP3   OH268298   0.208   2.990  15.019  0.0815 -0.2879 -0.1305
15628TIP3    H168299   0.218   3.046  14.942  0.7117  1.8958  1.4576
15628TIP3    H268300   0.124   2.946  15.006 -1.6741  2.8634 -0.3862
15629TIP3   OH268301   5.190   3.643  15.806  0.4472  0.3286  0.0057
15629TIP3    H168302   5.271   3.671  15.848  0.9794 -0.9663 -0.1447
15629TIP3    H268303   5.142   3.596  15.874 -0.5271  1.6552  0.3025
15630TIP3   OH268304   0.078   1.222   3.694  0.6237  0.2191  0.5809
15630TIP3    H168305   0.004   1.171   3.662 -0.0781  1.2366  0.5297
15630TIP3    H268306   0.088   1.293   3.631 -0.7997  2.2783  2.5127
15631TIP3   OH268307   3.917   1.006  11.536  0.0572  0.0598 -0.1425
15631TIP3    H168308   3.908   1.010  11.632  1.5177  0.1247  0.0139
15631TIP3    H268309   3.994   1.058  11.517  0.7735 -1.3080 -1.1817
15632TIP3   OH268310   4.584   0.197   5.970 -0.2471 -0.9806 -0.0422
15632TIP3    H168311   4.570   0.210   5.876  0.0907 -0.2986 -0.0024
15632TIP3    H268312   4.665   0.244   5.989 -0.6251 -0.6128  0.7078
15633TIP3   OH268313   6.350   3.813   6.688 -0.0512 -0.1884 -0.0879
15633TIP3    H168314   6.342   3.907   6.673 -0.5749 -0.3005 -0.5390
15633TIP3    H268315   6.270   3.776   6.653 -0.7571 -0.6164  1.8269
15634TIP3   OH268316   2.074   3.664   2.552 -0.0426 -0.2235 -0.1497
15634TIP3    H168317   2.105   3.583   2.591 -0.7205 -1.0768 -1.3171
15634TIP3    H268318   1.978   3.654   2.550 -0.1912  0.9341  0.3774
15635TIP3   OH268319   2.903   3.293   0.299 -0.2304  0.1687  0.2572
15635TIP3    H168320   2.818   3.317   0.337  0.5307  2.2071  0.8219
15635TIP3    H268321   2.947   3.243   0.368 -0.5898 -0.0613  0.3239
15636TIP3   OH268322   6.582   0.031  12.906  0.5088  0.1183  0.5466
15636TIP3    H168323   6.638   0.089  12.957 -1.0440  0.8387  1.5266
15636TIP3    H268324   6.541   0.087  12.841 -0.7298  0.0960  1.2678
15637TIP3   OH268325   6.231   2.993   3.482 -0.3192 -0.3193 -0.4394
15637TIP3    H168326   6.305   3.006   3.542 -0.9085 -0.0651  0.2417
15637TIP3    H268327   6.153   3.012   3.535 -0.8282  0.5319 -1.4613
15638TIP3   OH268328   1.134   6.099  12.914 -0.0312 -0.0286  0.4260
15638TIP3    H168329   1.114   6.168  12.851  1.8188 -2.4266 -3.1111
15638TIP3    H268330   1.070   6.030  12.895  0.2305 -0.6099  1.5743
15639TIP3   OH268331   2.170   0.745  15.607  0.0888  0.2071  0.4233
15639TIP3    H168332   2.132   0.830  15.630 -1.0508  0.4098 -1.8929
15639TIP3    H268333   2.234   0.766  15.538 -1.5131 -0.9215 -1.4925
15640TIP3   OH268334   0.147   5.984  12.549  0.0697  0.0129  0.6089
15640TIP3    H168335   0.182   6.072  12.555  1.0847 -0.4484  1.8409
15640TIP3    H268336   0.125   5.960  12.639  0.2377 -1.1526  0.3625
15641TIP3   OH268337   3.074   4.477   0.927  0.2973 -0.0620  0.1535
15641TIP3    H168338   3.073   4.421   0.850  1.0308  0.2147 -0.0623
15641TIP3    H268339   2.990   4.522   0.925 -0.0331 -0.6748 -0.0228
15642TIP3   OH268340   5.645   0.675  13.192 -0.1122  0.2158  0.0641
15642TIP3    H168341   5.622   0.745  13.131 -1.0121  0.5604  0.7830
15642TIP3    H268342   5.706   0.620  13.143 -1.7199 -0.1958 -1.5836
15643TIP3   OH268343   4.324   1.688  17.305  0.1839  0.4645  0.1287
15643TIP3    H168344   4.399   1.726  17.260 -0.7264  1.8354 -0.2939
15643TIP3    H268345   4.357   1.665  17.392  0.8218  2.1205  0.3508
15644TIP3   OH268346   6.272   4.550  13.914 -0.4758 -0.1614  0.3291
15644TIP3    H168347   6.202   4.525  13.853 -1.2407  0.7226  0.8241
15644TIP3    H268348   6.329   4.606  13.861 -1.4214  1.0400  0.5259
15645TIP3   OH268349   3.662   2.928  13.018 -0.1133  0.4421  0.3187
15645TIP3    H168350   3.710   3.010  13.008 -0.5875  0.5781 -1.1769
15645TIP3    H268351   3.668   2.886  12.932 -3.3253  0.8830 -0.2619
15646TIP3   OH268352   3.079   6.044   2.232  0.0989 -0.5806 -0.0608
15646TIP3    H168353   3.030   6.110   2.282  0.6135  0.1421 -0.4844
15646TIP3    H268354   3.072   5.965   2.284  1.0621  0.2720  1.4375
15647TIP3   OH268355   6.361   3.088   0.955  0.5253 -0.4764  0.6128
15647TIP3    H168356   6.435   3.148   0.948  0.9226 -1.1517 -1.7240
15647TIP3    H268357   6.304   3.129   1.020  1.7601  1.3454  0.6292
15648TIP3   OH268358   2.951   2.103   2.477 -0.3842  0.7011 -0.4686
15648TIP3    H168359   2.883   2.070   2.535 -1.3462  1.9100 -0.8719
15648TIP3    H268360   2.920   2.082   2.389  1.0811 -1.1534 -0.6323
15649TIP3   OH268361   5.396   0.284   3.678  0.6822  0.0383 -0.3865
15649TIP3    H168362   5.357   0.339   3.746  0.3708  0.1280 -0.6396
15649TIP3    H268363   5.475   0.249   3.719 -0.3828 -1.2823  0.6189
15650TIP3   OH268364   3.018   1.671  14.840 -0.0273 -0.1657 -0.4200
15650TIP3    H168365   3.038   1.649  14.750 -1.5955 -0.1192 -0.8077
15650TIP3    H268366   3.075   1.745  14.860  0.5562 -0.3770 -1.2697
15651TIP3   OH268367   5.190   4.074  14.295 -0.0602  0.3349 -0.3846
15651TIP3    H168368   5.242   4.123  14.360 -0.3523 -0.0314  0.1331
15651TIP3    H268369   5.245   4.073  14.217  0.0339  1.3289 -0.3477
15652TIP3   OH268370   1.667   4.367  12.438 -0.0047 -0.7777 -0.0852
15652TIP3    H168371   1.576   4.368  12.408 -0.7300 -0.6229  1.9433
15652TIP3    H268372   1.687   4.458  12.457  0.3878 -0.8739 -0.0352
15653TIP3   OH268373   4.632   1.666   1.721 -0.0207 -0.2315 -0.1913
15653TIP3    H168374   4.686   1.588   1.736  0.3655 -0.0920 -0.8000
15653TIP3    H268375   4.589   1.681   1.804  2.0415  0.5377  0.8098
15654TIP3   OH268376   1.561   4.102   6.083 -0.0830  0.3423  0.8484
15654TIP3    H168377   1.647   4.120   6.045  0.1611  0.9667  1.6684
15654TIP3    H268378   1.522   4.188   6.096 -1.4521  0.0437 -0.8444
15655TIP3   OH268379   4.483   4.853   0.660  0.1260 -0.0598  0.7634
15655TIP3    H168380   4.482   4.929   0.718 -0.0025  0.5265  0.0097
15655TIP3    H268381   4.493   4.890   0.573 -0.0317 -0.9098  0.3773
15656TIP3   OH268382   0.380   4.660   2.608  0.1743  0.6436 -0.2829
15656TIP3    H168383   0.438   4.719   2.559  0.3886 -0.3587 -1.2716
15656TIP3    H268384   0.308   4.717   2.638  0.4070  1.4223 -1.1470
15657TIP3   OH268385   4.135   1.791  14.047  0.3557  0.3115  0.7800
15657TIP3    H168386   4.194   1.758  14.115  1.8347 -0.2706 -0.7055
15657TIP3    H268387   4.161   1.744  13.968 -1.9837  0.2149 -0.0089
15658TIP3   OH268388   1.587   0.309  10.260 -0.2610  0.6795 -0.3661
15658TIP3    H168389   1.563   0.389  10.214  2.2794  0.6274 -1.9875
15658TIP3    H268390   1.650   0.338  10.326 -0.6196  0.2021  0.1952
15659TIP3   OH268391   0.814   5.756  16.217 -0.1915  0.2428 -0.5041
15659TIP3    H168392   0.783   5.687  16.276  1.7849 -0.7123 -0.4972
15659TIP3    H268393   0.734   5.802  16.191 -1.4138 -1.0290  0.7486
15660TIP3   OH268394   0.649   3.815  15.592 -0.3559  0.2357 -0.0584
15660TIP3    H168395   0.712   3.835  15.523 -0.8305  1.4113 -0.1708
15660TIP3    H268396   0.572   3.868  15.571 -0.6584  0.3088  1.1404
15661TIP3   OH268397   4.144   1.330   1.589 -0.5704  0.3167  0.1393
15661TIP3    H168398   4.064   1.331   1.537  0.0425 -0.9786 -0.9006
15661TIP3    H268399   4.213   1.351   1.526 -0.0164  0.8139  0.8945
15662TIP3   OH268400   6.488   3.519  12.998  0.0192 -0.5541 -0.2382
15662TIP3    H168401   6.474   3.450  13.063  0.5059 -0.7652 -0.3572
15662TIP3    H268402   6.511   3.596  13.050 -3.7824  0.4758  0.1769
15663TIP3   OH268403   5.032   0.911   0.121  0.0368  0.2184  0.2780
15663TIP3    H168404   4.942   0.914   0.088  0.0984  1.5647  0.1802
15663TIP3    H268405   5.041   0.990   0.175  0.9216 -0.3104  0.9374
15664TIP3   OH268406   5.140   6.525   4.279 -0.2534 -0.4382 -0.4077
15664TIP3    H168407   5.203   6.454   4.292 -0.3361 -0.8119 -1.8337
15664TIP3    H268408   5.177   6.599   4.326  0.6394 -0.9911 -0.2150
15665TIP3   OH268409   2.085   6.745   4.548  0.1700 -0.0520 -0.1003
15665TIP3    H168410   2.097   6.739   4.453 -3.2697  3.3592 -1.0248
15665TIP3    H268411   2.006   6.694   4.565 -0.6021  1.2582  0.4208
15666TIP3   OH268412   1.322   5.816  13.435  0.3590 -0.1588  0.3018
15666TIP3    H168413   1.404   5.833  13.481  1.5279 -2.8160 -0.6451
15666TIP3    H268414   1.262   5.882  13.469  2.5857  1.2552  1.7492
15667TIP3   OH268415   5.578   5.943  13.875  0.0465 -0.0934 -0.9376
15667TIP3    H168416   5.504   5.888  13.898 -0.2264  0.7595  0.3265
15667TIP3    H268417   5.654   5.885  13.884 -0.3219 -0.5400 -0.6517
15668TIP3   OH268418   2.135   1.096  12.026  0.3697 -0.1328  0.4732
15668TIP3    H168419   2.112   1.172  12.081  1.7672  0.7780 -0.1399
15668TIP3    H268420   2.058   1.039  12.030 -0.1255  0.5910  2.2001
15669TIP3   OH268421   6.189   1.376   6.449 -0.1442 -0.0831  0.2961
15669TIP3    H168422   6.094   1.392   6.454 -0.1117  0.0662  0.4738
15669TIP3    H268423   6.214   1.353   6.539  0.1238  0.6777  0.4318
15670TIP3   OH268424   5.135   4.829   1.741 -0.0169  0.4491 -0.6117
15670TIP3    H168425   5.142   4.888   1.666 -0.5840 -0.1017 -1.1161
15670TIP3    H268426   5.148   4.885   1.818  1.8863  0.8150 -1.1377
15671TIP3   OH268427   0.482   2.452   4.656  0.4604  0.1331 -0.0158
15671TIP3    H168428   0.448   2.516   4.718  0.0368 -0.6549  0.5940
15671TIP3    H268429   0.405   2.428   4.603  0.4068 -0.4835  0.3239
15672TIP3   OH268430   5.021   0.818  10.432  0.3139 -0.4780  0.2683
15672TIP3    H168431   5.003   0.860  10.348 -0.9537 -1.4786  0.0099
15672TIP3    H268432   4.957   0.855  10.492  1.3829  0.4247  0.8949
15673TIP3   OH268433   1.388   2.683  12.975 -0.3086  0.0820  0.3470
15673TIP3    H168434   1.480   2.692  13.000 -0.7101 -0.0020  1.9510
15673TIP3    H268435   1.377   2.589  12.960 -0.0038  0.1642 -0.4693
15674TIP3   OH268436   2.925   2.351  16.137 -0.1688 -0.0709 -0.2776
15674TIP3    H168437   3.007   2.356  16.088 -0.2314  1.5041 -0.2747
15674TIP3    H268438   2.859   2.388  16.078 -0.9550 -1.5038 -0.3611
15675TIP3   OH268439   3.256   2.574   3.906 -0.0565  0.4564  0.1789
15675TIP3    H168440   3.325   2.575   3.839 -0.7613  0.3916 -0.5628
15675TIP3    H268441   3.294   2.525   3.979  0.4984 -0.0179 -0.4184
15676TIP3   OH268442   0.385   4.193   3.616  0.1276 -0.5590 -0.2310
15676TIP3    H168443   0.413   4.111   3.656 -0.1651 -0.7644 -0.4499
15676TIP3    H268444   0.293   4.180   3.595  0.1853 -0.3223 -0.6446
15677TIP3   OH268445   2.441   4.848  14.936 -0.3798  0.0174  0.2428
15677TIP3    H168446   2.465   4.791  14.864 -2.1846 -1.8814  1.0446
15677TIP3    H268447   2.522   4.859  14.986  0.3368 -0.5908 -0.7561
15678TIP3   OH268448   2.860   4.679   5.278  0.0698  0.3640  0.2608
15678TIP3    H168449   2.925   4.747   5.293  0.8727 -0.5596  1.1685
15678TIP3    H268450   2.911   4.603   5.248 -0.6557 -0.1794  0.3538
15679TIP3   OH268451   3.226   3.599   5.032  0.3105  0.3297 -0.5644
15679TIP3    H168452   3.247   3.661   4.962  1.1569  0.0242 -0.5965
15679TIP3    H268453   3.205   3.654   5.108  0.7180  0.6642 -0.6864
15680TIP3   OH268454   0.627   3.005   1.023  0.4774  0.6194  0.5782
15680TIP3    H168455   0.664   2.965   0.944 -1.0819 -0.6694  0.4552
15680TIP3    H268456   0.546   3.045   0.994 -0.4160 -0.3805  1.6049
15681TIP3   OH268457   0.619   4.683   1.291 -0.1918  0.1517  0.2774
15681TIP3    H168458   0.556   4.737   1.339 -1.5082 -0.8159 -0.2664
15681TIP3    H268459   0.635   4.730   1.210 -2.9765 -1.1275 -1.1629
15682TIP3   OH268460   2.459   2.131   3.194 -0.3308  0.0019  0.4821
15682TIP3    H168461   2.489   2.197   3.257 -2.5233  1.8655 -0.2635
15682TIP3    H268462   2.452   2.178   3.111  1.7238 -2.2061 -1.0522
15683TIP3   OH268463   2.361   0.211  13.285  0.2705  0.4660  0.4576
15683TIP3    H168464   2.435   0.183  13.233 -1.4310  0.4627 -2.1276
15683TIP3    H268465   2.319   0.130  13.314 -1.1433  0.3308 -1.7954
15684TIP3   OH268466   1.441   3.295   2.649  0.0803 -0.1554  0.1961
15684TIP3    H168467   1.519   3.250   2.614  0.6891  1.3296 -0.4641
15684TIP3    H268468   1.420   3.248   2.729 -1.0717 -3.4279 -1.8482
15685TIP3   OH268469   6.560   5.719  14.074 -0.2871 -0.1575 -0.0522
15685TIP3    H168470   6.619   5.754  14.140 -1.2137 -0.7160  1.1038
15685TIP3    H268471   6.584   5.765  13.994  1.4617 -0.1231  0.4550
15686TIP3   OH268472   5.968   1.928   3.070 -0.5435 -0.1577 -0.0486
15686TIP3    H168473   5.996   1.837   3.084  0.2200 -0.1583 -1.4881
15686TIP3    H268474   5.901   1.942   3.138 -0.8415 -1.8546  0.0658
15687TIP3   OH268475   0.153   6.085   1.031 -0.6159 -0.0293 -0.3765
15687TIP3    H168476   0.128   6.173   1.060 -1.9651 -0.5773  0.2065
15687TIP3    H268477   0.120   6.027   1.099  1.1557 -0.9531 -0.2357
15688TIP3   OH268478   2.406   3.296   1.848 -0.1289 -0.2840  0.2456
15688TIP3    H168479   2.478   3.340   1.893 -0.2623  0.0965  0.0838
15688TIP3    H268480   2.447   3.256   1.771  0.1316 -1.0793  0.7812
15689TIP3   OH268481   3.521   1.641   1.782  0.4400  0.1077  0.4447
15689TIP3    H168482   3.575   1.569   1.813 -0.0608  0.4994  2.3396
15689TIP3    H268483   3.580   1.693   1.727  0.7788 -1.7454 -1.0354
15690TIP3   OH268484   0.794   4.962  13.592  0.2968  0.2942 -0.3333
15690TIP3    H168485   0.718   4.904  13.587  0.5384  0.0602 -1.7449
15690TIP3    H268486   0.832   4.946  13.679  0.5801 -1.9528 -0.8220
15691TIP3   OH268487   3.450   1.285  12.812 -0.1563  0.0231  1.1324
15691TIP3    H168488   3.382   1.352  12.804 -1.6274 -1.6195 -2.4047
15691TIP3    H268489   3.454   1.244  12.725  1.9766 -3.2349  2.5470
15692TIP3   OH268490   2.280   0.564  11.752  0.1559 -0.2089  0.0464
15692TIP3    H168491   2.278   0.636  11.816  0.2347  0.4868 -0.7276
15692TIP3    H268492   2.192   0.562  11.715 -0.0027 -0.8663  0.4338
15693TIP3   OH268493   2.957   4.077   3.031 -0.3368 -0.0494 -0.0792
15693TIP3    H168494   2.869   4.078   2.992  0.1751  1.5558 -1.3135
15693TIP3    H268495   2.995   4.161   3.006  3.0264 -2.1184 -3.0786
15694TIP3   OH268496   5.387   2.278   3.652  0.6016 -0.7998  0.1402
15694TIP3    H168497   5.473   2.241   3.669  1.0787  0.6568  1.1759
15694TIP3    H268498   5.400   2.373   3.660 -1.1102 -0.5546  0.4613
15695TIP3   OH268499   0.152   1.391   4.789 -0.5838 -0.0668  0.6527
15695TIP3    H168500   0.083   1.404   4.724  1.5218  0.9161 -1.5654
15695TIP3    H268501   0.148   1.470   4.844 -0.0554  0.9618 -0.7046
15696TIP3   OH268502   4.027   3.942  13.925 -0.4508 -0.4957 -0.2714
15696TIP3    H168503   4.057   4.033  13.920  1.2778 -0.8584  1.9333
15696TIP3    H268504   4.106   3.892  13.942 -1.6172 -2.2006  0.3903
15697TIP3   OH268505   5.266   0.534  15.017  0.2148  0.8889  0.1366
15697TIP3    H168506   5.245   0.611  14.963 -0.7223  0.2458 -0.4493
15697TIP3    H268507   5.242   0.560  15.106  0.7011  1.5673  0.0783
15698TIP3   OH268508   5.459   1.714   4.425 -0.0640 -0.1751 -0.2135
15698TIP3    H168509   5.529   1.686   4.366  0.2637  1.4578 -0.6716
15698TIP3    H268510   5.501   1.721   4.510  0.6566  1.8019 -0.6799
15699TIP3   OH268511   4.402   1.390   6.296 -0.5231 -0.1180 -0.0746
15699TIP3    H168512   4.334   1.335   6.336 -1.3005 -0.6686 -2.0352
15699TIP3    H268513   4.453   1.329   6.242 -0.9955  0.9287 -1.7803
15700TIP3   OH268514   2.098   4.397  11.533 -0.7506 -0.3022 -1.1767
15700TIP3    H168515   2.131   4.461  11.471 -2.7715  0.6799 -1.3234
15700TIP3    H268516   2.124   4.430  11.618 -0.2536 -0.2337 -1.3535
15701TIP3   OH268517   3.243   4.290  11.648 -0.8471 -0.2558 -0.2096
15701TIP3    H168518   3.243   4.288  11.743 -0.7651 -0.4064 -0.2125
15701TIP3    H268519   3.155   4.321  11.624 -1.0900 -0.8457 -0.0982
15702TIP3   OH268520   4.162   4.433  14.780  0.1518 -0.0341 -0.0360
15702TIP3    H168521   4.179   4.504  14.717  0.7681  2.2192  2.4964
15702TIP3    H268522   4.084   4.390  14.746  0.5811  0.9205 -2.4485
15703TIP3   OH268523   6.602   1.626  13.948 -0.3036  0.2013 -0.1256
15703TIP3    H168524   6.523   1.639  13.895 -1.7790 -1.4214  1.5424
15703TIP3    H268525   6.631   1.715  13.970 -1.5994  0.8313 -0.8383
15704TIP3   OH268526   5.374   3.772  12.972 -0.7923 -0.7633  0.4035
15704TIP3    H168527   5.313   3.706  13.003 -0.4666 -1.4648 -0.4190
15704TIP3    H268528   5.429   3.727  12.909 -1.3828  0.5872 -1.1477
15705TIP3   OH268529   5.975   3.733  14.345 -0.4825 -0.1772  0.3112
15705TIP3    H168530   5.885   3.747  14.314 -0.5053 -0.7382  0.1070
15705TIP3    H268531   5.967   3.664  14.411 -0.4056  0.8442  1.4409
15706TIP3   OH268532   0.873   4.794  10.744 -0.2728 -0.0227  0.0654
15706TIP3    H168533   0.900   4.865  10.803 -1.1351  1.7896 -1.6093
15706TIP3    H268534   0.866   4.717  10.801  2.1091  0.8609  1.6907
15707TIP3   OH268535   6.188   5.725   1.993 -0.0263 -0.5906 -0.1912
15707TIP3    H168536   6.120   5.679   2.042 -0.4820 -0.1219 -0.3746
15707TIP3    H268537   6.222   5.661   1.931 -0.0161 -0.9446  0.1780
15708TIP3   OH268538   1.999   5.694   4.131  0.0971 -0.0321  0.0087
15708TIP3    H168539   2.002   5.722   4.039  0.3776  2.0633  0.6134
15708TIP3    H268540   2.088   5.708   4.163 -0.4576  1.1283  1.1022
15709TIP3   OH268541   3.775   4.041  16.190 -0.1621  0.1176  0.2282
15709TIP3    H168542   3.838   4.059  16.120 -0.3656 -0.2125 -0.0413
15709TIP3    H268543   3.777   3.946  16.200  2.0031  0.2882  2.6350
15710TIP3   OH268544   4.190   1.485  15.708  0.7917 -0.9316 -0.2300
15710TIP3    H168545   4.225   1.397  15.726 -0.9709 -2.2060 -2.4941
15710TIP3    H268546   4.222   1.506  15.620  0.5300  0.3670 -0.0364
15711TIP3   OH268547   0.976   3.094   6.354 -0.4822 -0.4746 -0.2477
15711TIP3    H168548   1.013   3.169   6.307 -0.8459 -0.3001 -0.2574
15711TIP3    H268549   0.916   3.133   6.417  0.7781 -0.6291  1.1020
15712TIP3   OH268550   1.129   4.745  13.659 -0.1977  0.1469  0.4007
15712TIP3    H168551   1.150   4.833  13.628 -1.1817  0.2811  0.0763
15712TIP3    H268552   1.070   4.709  13.592 -0.3932 -0.4770  0.8953
15713TIP3   OH268553   2.725   1.039   4.514  0.7797 -0.3336 -0.3480
15713TIP3    H168554   2.727   0.980   4.439  0.9490  0.6767 -1.1568
15713TIP3    H268555   2.653   1.099   4.495  1.6078  0.6856 -0.2973
15714TIP3   OH268556   5.060   1.189  13.961  0.3577 -0.2386 -0.1608
15714TIP3    H168557   5.135   1.231  13.918 -1.1287  1.4237 -1.2694
15714TIP3    H268558   4.995   1.179  13.892 -0.9404 -0.4236  1.0368
15715TIP3   OH268559   4.997   4.492  11.662 -0.9659 -0.2325 -0.3662
15715TIP3    H168560   5.067   4.435  11.630  1.6309  1.9130  0.9832
15715TIP3    H268561   4.979   4.552  11.590  1.9769  2.0186  0.5176
15716TIP3   OH268562   1.748   1.766   5.364  0.6751  0.4222  0.2006
15716TIP3    H168563   1.823   1.723   5.405  0.7835 -1.3290 -1.6432
15716TIP3    H268564   1.672   1.716   5.395  0.4074  1.1909  0.8193
15717TIP3   OH268565   5.840   6.661   6.247  0.2341  0.0723 -0.2229
15717TIP3    H168566   5.825   6.748   6.285 -0.7049 -0.2975  0.2977
15717TIP3    H268567   5.827   6.601   6.320  2.6079 -0.4417 -0.1471
15718TIP3   OH268568   1.744   3.226  16.690  0.0063 -0.6078 -0.0276
15718TIP3    H168569   1.691   3.166  16.639  2.1538 -1.5102 -1.3561
15718TIP3    H268570   1.829   3.228  16.645  0.6371  1.9760  1.0324
15719TIP3   OH268571   3.810   2.368   3.707  0.0413 -0.4194 -0.2449
15719TIP3    H168572   3.800   2.451   3.662  0.5004  0.1941  0.7426
15719TIP3    H268573   3.866   2.316   3.649 -2.7002 -1.2478 -2.3605
15720TIP3   OH268574   6.376   3.066  14.055  0.1254 -0.0711 -0.2753
15720TIP3    H168575   6.461   3.109  14.060 -1.7729  4.2309 -0.9907
15720TIP3    H268576   6.334   3.087  14.139 -0.8261 -0.7645 -0.5621
15721TIP3   OH268577   5.241   3.536  13.043  0.4516 -0.2652 -0.5942
15721TIP3    H168578   5.157   3.518  13.085 -0.9884  0.9043 -2.7815
15721TIP3    H268579   5.304   3.488  13.096 -1.5074 -0.8363  1.4069
15722TIP3   OH268580   3.298   5.777  11.782 -0.3599  0.2167  0.2682
15722TIP3    H168581   3.314   5.684  11.767 -0.0376  0.1744  0.8181
15722TIP3    H268582   3.245   5.805  11.708  0.0921 -0.2529 -0.2430
15723TIP3   OH268583   4.883   1.465  14.320  0.5267  0.0085 -0.0030
15723TIP3    H168584   4.963   1.498  14.280 -0.3605  1.6919 -0.4710
15723TIP3    H268585   4.833   1.427  14.248  0.5554 -0.3392  0.1575
15724TIP3   OH268586   0.417   2.454   3.811  0.2479  0.6987 -0.0786
15724TIP3    H168587   0.500   2.454   3.858 -0.8160 -0.7129  1.9526
15724TIP3    H268588   0.351   2.464   3.879 -1.3308  0.0565 -1.4329
15725TIP3   OH268589   4.109   2.511   0.782  0.1276 -0.5000  0.0971
15725TIP3    H168590   4.132   2.467   0.863 -1.0972 -0.7187  0.3426
15725TIP3    H268591   4.100   2.604   0.806 -1.2715 -0.7083  0.4631
15726TIP3   OH268592   2.174   0.946   0.472 -0.2435  0.1193  0.4461
15726TIP3    H168593   2.212   0.863   0.499 -0.4916 -0.7479 -1.7251
15726TIP3    H268594   2.198   0.956   0.380 -2.0035  1.4128  0.0546
15727TIP3   OH268595   3.922   2.922   2.570 -0.2000  0.0928 -0.5521
15727TIP3    H168596   3.954   2.859   2.506  0.8018  0.4022 -0.3766
15727TIP3    H268597   3.913   3.004   2.520 -0.2174  0.1320 -0.4852
15728TIP3   OH268598   6.016   0.512   1.121  0.3184  0.6960  0.3431
15728TIP3    H168599   5.961   0.537   1.195 -0.7698 -0.4000 -0.0523
15728TIP3    H268600   6.050   0.595   1.087 -1.8099  1.5373  0.0808
15729TIP3   OH268601   0.092   6.171  14.013 -0.2992 -0.3589  0.7675
15729TIP3    H168602   0.024   6.187  13.948  0.7795 -0.3146 -0.3687
15729TIP3    H268603   0.109   6.256  14.052  1.1581  0.2183 -1.0211
15730TIP3   OH268604   5.726   4.199  16.735  0.1128  0.2973 -0.1095
15730TIP3    H168605   5.762   4.163  16.654 -0.2693 -0.0063 -0.1514
15730TIP3    H268606   5.715   4.122  16.791  2.5355  0.7426  1.1134
15731TIP3   OH268607   3.035   0.489  12.023 -0.5464  0.7611 -0.4578
15731TIP3    H168608   3.128   0.510  12.012 -0.3843  0.6093  0.5354
15731TIP3    H268609   3.002   0.558  12.080 -0.3042 -0.8443  1.7820
15732TIP3   OH268610   4.472   2.209   6.107  0.3519 -0.0447  0.8804
15732TIP3    H168611   4.479   2.148   6.181  1.6651 -1.2592 -0.1677
15732TIP3    H268612   4.380   2.204   6.080  0.7401 -3.0005 -0.2585
15733TIP3   OH268613   6.123   1.105  15.905 -0.7350  0.1275  0.0065
15733TIP3    H168614   6.037   1.146  15.914 -0.4937  0.3946  1.2991
15733TIP3    H268615   6.164   1.118  15.990 -0.2717 -1.9403  0.1465
15734TIP3   OH268616   1.357   1.595  10.873  0.4031  0.3308  0.2306
15734TIP3    H168617   1.437   1.638  10.905  0.8738 -1.3955  1.4885
15734TIP3    H268618   1.293   1.609  10.943  0.4885 -0.7752  0.5376
15735TIP3   OH268619   0.421   1.474  16.041 -1.0303  0.0418  0.6228
15735TIP3    H168620   0.327   1.485  16.054 -0.9445  1.0785  0.4184
15735TIP3    H268621   0.430   1.388  16.001 -2.1281  0.9686 -1.7604
15736TIP3   OH268622   6.234   2.683  14.169 -0.2081  0.8964 -0.4287
15736TIP3    H168623   6.303   2.676  14.103 -1.0715 -0.6310 -1.2339
15736TIP3    H268624   6.206   2.593  14.185 -1.4920  1.4085  0.4373
15737TIP3   OH268625   5.297   4.031  15.353  0.4987  0.0105  0.1133
15737TIP3    H168626   5.263   3.996  15.271  2.1479  1.2471 -1.1770
15737TIP3    H268627   5.372   3.974  15.373  1.7889  1.3439 -0.7661
15738TIP3   OH268628   2.035   2.144   3.981  0.5267 -0.4502 -0.2905
15738TIP3    H168629   2.074   2.208   4.041 -0.1042 -1.1308  0.8684
15738TIP3    H268630   2.099   2.073   3.977  0.4753 -0.4963 -0.2851
15739TIP3   OH268631   3.384   2.226  13.654  0.2107 -0.9229 -0.5277
15739TIP3    H168632   3.321   2.156  13.636  0.8159 -1.6800  0.2381
15739TIP3    H268633   3.404   2.218  13.747  0.6337 -0.0024 -0.5197
15740TIP3   OH268634   5.040   3.522   5.028  0.4627 -0.1567 -0.7774
15740TIP3    H168635   5.089   3.468   4.967  0.9908  1.0849 -1.4728
15740TIP3    H268636   5.051   3.612   4.997  0.3592  0.4695  0.8627
15741TIP3   OH268637   5.495   0.055   2.711 -0.1735 -0.0608 -0.4518
15741TIP3    H168638   5.552   0.132   2.715 -1.2469  0.7327  0.4721
15741TIP3    H268639   5.412   0.089   2.676 -0.2823 -1.0526 -1.1659
15742TIP3   OH268640   2.775   0.984  11.120 -0.1878  0.1139  0.5787
15742TIP3    H168641   2.856   1.019  11.158  0.1395 -0.0513  0.0453
15742TIP3    H268642   2.709   1.051  11.138  0.2884  0.7146  0.1237
15743TIP3   OH268643   3.818   1.883   0.546  0.4952  0.0917 -0.2294
15743TIP3    H168644   3.735   1.866   0.500  0.9986  0.3323 -1.2536
15743TIP3    H268645   3.878   1.910   0.477  1.4560 -0.1623  0.4943
15744TIP3   OH268646   1.047   4.308   1.906 -0.0071  0.2579 -0.5986
15744TIP3    H168647   0.991   4.380   1.879 -2.9640 -0.7669  2.1930
15744TIP3    H268648   1.075   4.331   1.995  1.5756 -0.6874 -0.8095
15745TIP3   OH268649   4.670   0.609  16.423 -0.3928  0.4341  0.1638
15745TIP3    H168650   4.697   0.671  16.355  0.4508  0.4950  0.5486
15745TIP3    H268651   4.659   0.526  16.376 -0.8741  0.7138 -0.2316
15746TIP3   OH268652   5.361   0.936   4.286  0.1184  0.1548 -0.4464
15746TIP3    H168653   5.300   0.997   4.245 -0.1242  0.3418  0.1814
15746TIP3    H268654   5.316   0.852   4.284  0.3536  0.0346 -1.0927
15747TIP3   OH268655   3.863   0.060   3.231  0.3022  0.0761  0.4976
15747TIP3    H168656   3.885   0.115   3.305  0.7137 -0.9405  1.1548
15747TIP3    H268657   3.814  -0.013   3.269  2.7497 -1.8428  0.2266
15748TIP3   OH268658   4.705   4.258  12.104 -0.6223 -0.0908 -0.0299
15748TIP3    H168659   4.749   4.339  12.130 -0.0339 -0.7521  1.0788
15748TIP3    H268660   4.701   4.206  12.184  0.0064 -1.6163 -0.9422
15749TIP3   OH268661   5.443   4.622  12.693  0.1937 -0.1404 -0.2078
15749TIP3    H168662   5.487   4.615  12.609 -0.5239  0.2105 -0.6284
15749TIP3    H268663   5.468   4.708  12.727  0.8159 -0.4550  0.1350
15750TIP3   OH268664   6.358   1.373  17.015  0.4351 -0.1347  0.3662
15750TIP3    H168665   6.407   1.367  16.933  0.6830  3.2285  0.1331
15750TIP3    H268666   6.278   1.325  16.998  0.7959 -0.1398 -1.6167
15751TIP3   OH268667   5.904   3.103  13.124  0.6699 -0.0083 -0.0516
15751TIP3    H168668   5.874   3.037  13.187 -1.0904  1.5603  0.8320
15751TIP3    H268669   5.980   3.143  13.166  0.0532  0.4050  0.6964
15752TIP3   OH268670   2.415   4.029   4.241 -0.0936 -0.0694 -0.0882
15752TIP3    H168671   2.475   3.987   4.180 -1.5067 -1.7367 -0.4281
15752TIP3    H268672   2.469   4.051   4.317  1.0930 -0.8059 -0.6870
15753TIP3   OH268673   0.864   0.485   6.116 -0.6260  0.4547 -0.5576
15753TIP3    H168674   0.878   0.500   6.210  3.0335 -0.6518 -0.7466
15753TIP3    H268675   0.874   0.391   6.105 -1.2864  0.5263 -2.0299
15754TIP3   OH268676   6.012   3.639   3.231  0.0158  0.3495 -0.3132
15754TIP3    H168677   5.940   3.596   3.276 -0.0169 -2.8156 -2.9775
15754TIP3    H268678   5.977   3.660   3.144  1.3591  1.8546 -0.5335
15755TIP3   OH268679   5.520   1.645  14.994 -0.3337 -0.9595  0.3792
15755TIP3    H168680   5.498   1.682  14.908  1.2879 -0.8207 -0.0150
15755TIP3    H268681   5.499   1.715  15.056  2.1555  0.5306 -0.3040
15756TIP3   OH268682   5.763   4.114   4.221  0.1940  0.6479  0.2153
15756TIP3    H168683   5.810   4.065   4.290  0.6319 -2.1451 -1.8902
15756TIP3    H268684   5.833   4.156   4.171  0.1422  0.0365 -0.3791
15757TIP3   OH268685   6.594   5.971  14.757 -0.3522  0.0591  0.3844
15757TIP3    H168686   6.616   5.889  14.713 -1.1316 -0.4832  0.9909
15757TIP3    H268687   6.595   6.036  14.687 -2.5290 -0.9503 -0.6898
15758TIP3   OH268688   0.224   2.838  10.880  0.8114  0.0330  0.4361
15758TIP3    H168689   0.167   2.914  10.896  4.0614  2.5423  1.0103
15758TIP3    H268690   0.261   2.854  10.793  0.9074 -1.3976  0.1897
15759TIP3   OH268691   3.495   5.489   2.936 -0.2614 -0.3208 -0.3459
15759TIP3    H168692   3.555   5.555   2.900 -1.0742  0.1553 -0.8628
15759TIP3    H268693   3.542   5.452   3.010  1.2423 -0.9473 -1.5716
15760TIP3   OH268694   4.670   6.014   4.625 -0.5084 -0.1000  0.3437
15760TIP3    H168695   4.624   6.081   4.676  0.7749  0.2301  1.0910
15760TIP3    H268696   4.602   5.978   4.568 -1.2460  1.8224 -0.0803
15761TIP3   OH268697   3.953   3.537  14.319 -0.3564 -0.3225  0.2789
15761TIP3    H168698   4.028   3.535  14.260 -1.5815 -3.3758 -1.3662
15761TIP3    H268699   3.991   3.556  14.405  1.7800  1.8203 -1.0053
15762TIP3   OH268700   5.614   4.282  14.679 -0.9234 -0.2997  0.0591
15762TIP3    H168701   5.699   4.269  14.638 -1.9218  0.4428 -2.4489
15762TIP3    H268702   5.629   4.267  14.772  1.6944 -1.2386 -0.4398
15763TIP3   OH268703   2.597   3.683  11.969 -0.0540  0.2912 -0.2352
15763TIP3    H168704   2.673   3.629  11.945  0.5613  1.1927 -0.3713
15763TIP3    H268705   2.568   3.648  12.053 -0.3257 -0.9259 -0.8217
15764TIP3   OH268706   6.356   3.150  15.983 -0.2024 -0.4237 -0.1401
15764TIP3    H168707   6.363   3.091  15.908 -2.2701  0.0238 -0.7574
15764TIP3    H268708   6.414   3.112  16.049  1.0993 -1.2514 -1.6840
15765TIP3   OH268709   5.248   2.735   5.002  0.0592 -0.0166  0.0191
15765TIP3    H168710   5.286   2.660   5.047 -0.0850 -0.2052 -0.1694
15765TIP3    H268711   5.262   2.717   4.909 -2.6441 -1.3149 -0.2417
15766TIP3   OH268712   2.698   1.396   5.986  0.0649  0.1673 -0.2107
15766TIP3    H168713   2.644   1.410   5.908  2.0181  1.7159 -1.3773
15766TIP3    H268714   2.680   1.472   6.041  0.3950  0.2430 -0.2055
15767TIP3   OH268715   1.401   2.448   0.896  0.4431 -0.2202 -0.9964
15767TIP3    H168716   1.310   2.476   0.889  0.3939  0.3918  1.3342
15767TIP3    H268717   1.441   2.509   0.957  2.6999  0.0692 -2.5914
15768TIP3   OH268718   1.319   3.324   5.609  0.6893 -0.0209 -0.2747
15768TIP3    H168719   1.269   3.243   5.598 -0.7421  0.4770  1.9189
15768TIP3    H268720   1.257   3.386   5.648  2.3434  1.4441  0.1946
15769TIP3   OH268721   2.316   5.963  16.876  0.6686  0.5734  0.2596
15769TIP3    H168722   2.295   5.879  16.917  0.0783  0.1263 -0.9009
15769TIP3    H268723   2.367   5.940  16.798 -0.3226  1.1927 -0.6090
15770TIP3   OH268724   1.864   0.041   5.673 -0.4753 -0.2122  0.0567
15770TIP3    H168725   1.936   0.035   5.735 -2.4297 -0.6555  2.4325
15770TIP3    H268726   1.849   0.135   5.662  0.4441 -0.1193 -0.4778
15771TIP3   OH268727   1.005   6.638  11.691  0.1451  0.5357  0.0754
15771TIP3    H168728   1.051   6.696  11.751 -0.6537  0.3065  0.9318
15771TIP3    H268729   0.912   6.659  11.702 -0.0052  0.8162 -1.4315
15772TIP3   OH268730   3.453   1.863   6.034 -0.4705 -0.1388  0.2178
15772TIP3    H168731   3.448   1.943   6.086  1.0291  0.0929  0.0496
15772TIP3    H268732   3.443   1.792   6.097 -0.9695  0.1660  0.4842
15773TIP3   OH268733   2.167   6.107  16.041  0.3357  0.7322  0.0700
15773TIP3    H168734   2.151   6.151  16.124 -0.2700  2.6227 -1.0011
15773TIP3    H268735   2.254   6.138  16.014 -0.3767  1.8614 -1.0148
15774TIP3   OH268736   0.866   6.313  10.467 -0.0975 -0.1071  0.2262
15774TIP3    H168737   0.794   6.375  10.465 -0.0611 -0.0840 -0.8631
15774TIP3    H268738   0.864   6.277  10.556 -1.4799 -0.1445  0.2020
15775TIP3   OH268739   2.655   3.179   4.552 -0.1142 -0.1620  0.2231
15775TIP3    H168740   2.750   3.185   4.541 -0.2384  3.2242  0.0954
15775TIP3    H268741   2.644   3.111   4.618  2.4672  0.0329  0.9901
15776TIP3   OH268742   3.334   2.956  14.567 -0.0181 -0.0709 -0.2070
15776TIP3    H168743   3.288   2.958  14.482 -0.1993 -0.4666 -0.1190
15776TIP3    H268744   3.349   3.048  14.588 -0.0241  0.0316 -0.6436
15777TIP3   OH268745   0.250   4.688   4.670 -0.4778  0.2279 -0.4309
15777TIP3    H168746   0.161   4.688   4.635 -0.2478  0.6962 -1.0271
15777TIP3    H268747   0.301   4.739   4.607  0.3271 -0.4725 -0.3608
15778TIP3   OH268748   1.881   2.182  16.648 -0.3838 -0.4366 -0.2157
15778TIP3    H168749   1.810   2.198  16.711  1.5042 -0.1433  1.9669
15778TIP3    H268750   1.909   2.093  16.667  0.1682 -0.3700 -0.7068
15779TIP3   OH268751   6.560   2.009  12.846 -0.0013 -0.3162  0.0047
15779TIP3    H168752   6.626   2.020  12.779  0.8238 -0.9854  0.6880
15779TIP3    H268753   6.528   2.098  12.864  1.0038  0.0630 -0.0443
15780TIP3   OH268754   5.609   1.420   5.902  0.2621 -0.0733 -0.6815
15780TIP3    H168755   5.531   1.476   5.900  1.5691  1.8423 -2.0026
15780TIP3    H268756   5.629   1.410   5.994  0.3578  2.3162 -0.3652
15781TIP3   OH268757   3.597   6.289   5.896  0.5255 -1.1083  0.4567
15781TIP3    H168758   3.535   6.343   5.945 -0.8494 -1.6811 -0.5868
15781TIP3    H268759   3.654   6.251   5.963  1.5016  1.4939  1.2436
15782TIP3   OH268760   3.207   4.161   4.079  0.1217 -0.0489 -0.7370
15782TIP3    H168761   3.269   4.196   4.015  0.6066 -1.1575 -0.8890
15782TIP3    H268762   3.257   4.156   4.160 -0.1250  0.1672 -0.5707
15783TIP3   OH268763   5.475   3.413   3.845 -0.2197 -0.4584 -0.5704
15783TIP3    H168764   5.455   3.496   3.888 -2.9468 -0.0722 -2.3454
15783TIP3    H268765   5.417   3.350   3.889 -0.9673 -0.6111 -1.7321
15784TIP3   OH268766   0.115   2.921   1.453  0.2015  0.2638 -0.4233
15784TIP3    H168767   0.179   2.854   1.428 -1.2110 -0.8670 -1.1240
15784TIP3    H268768   0.055   2.877   1.513  0.6745  1.6159  1.1282
15785TIP3   OH268769   3.867   5.786  12.237  0.4072  0.0653  0.3353
15785TIP3    H168770   3.920   5.792  12.317  1.4411  0.4809 -0.3623
15785TIP3    H268771   3.864   5.692  12.218 -0.4566 -0.1181  1.2337
15786TIP3   OH268772   3.898   5.283  15.468 -0.5352  0.9002  0.2356
15786TIP3    H168773   3.983   5.243  15.450 -0.8956 -0.6421  1.7668
15786TIP3    H268774   3.910   5.327  15.552 -1.6279 -0.6054  1.2180
15787TIP3   OH268775   0.920   1.336   1.242  0.2397 -0.1386  0.2683
15787TIP3    H168776   0.926   1.300   1.154  1.0158  0.1799  0.1868
15787TIP3    H268777   0.972   1.416   1.239 -0.5606  0.4063  0.7457
15788TIP3   OH268778   4.252   2.322   2.062  0.4369  0.1875 -0.0981
15788TIP3    H168779   4.199   2.396   2.091 -0.2471 -0.6852  0.9785
15788TIP3    H268780   4.316   2.360   2.002 -0.3813  1.5182 -0.1625
15789TIP3   OH268781   4.810   3.732  16.883  0.2861 -0.2133 -0.4735
15789TIP3    H168782   4.874   3.768  16.822 -0.0204  0.3208 -0.4798
15789TIP3    H268783   4.744   3.801  16.893  0.5717 -0.1067  0.8260
15790TIP3   OH268784   1.824   1.586  11.213 -0.0326  0.6429  0.6220
15790TIP3    H168785   1.735   1.551  11.214  0.6156 -1.1290  0.5256
15790TIP3    H268786   1.878   1.513  11.184  1.6167  1.2899  1.9001
15791TIP3   OH268787   5.786   1.449  15.883  0.3260  0.7230 -0.1724
15791TIP3    H168788   5.694   1.450  15.855  0.4175  3.4201 -0.6087
15791TIP3    H268789   5.835   1.430  15.803  0.2604  2.2559 -0.6090
15792TIP3   OH268790   4.920   5.887   6.100 -0.0536 -0.2176  0.3995
15792TIP3    H168791   4.972   5.901   6.021 -0.2459 -0.1280  0.2877
15792TIP3    H268792   4.982   5.850   6.163 -0.1754 -1.4792 -0.1855
15793TIP3   OH268793   1.589   1.254   2.199  0.4242  0.3787  0.4739
15793TIP3    H168794   1.580   1.163   2.174 -1.0301  0.7127 -0.2595
15793TIP3    H268795   1.654   1.290   2.138  0.2093  0.1020  0.0850
15794TIP3   OH268796   0.664   4.884  12.994 -0.4012  0.2538  0.4212
15794TIP3    H168797   0.628   4.798  13.015 -0.0930 -0.3831 -1.4498
15794TIP3    H268798   0.759   4.871  12.999 -0.3488  0.3809 -0.1759
15795TIP3   OH268799   5.223   0.949   6.671 -0.2222  0.0783  0.1011
15795TIP3    H168800   5.227   0.913   6.760  1.8382 -0.4504 -0.1495
15795TIP3    H268801   5.315   0.961   6.646 -0.7768  1.0615 -1.6317
15796TIP3   OH268802   2.007   3.844   4.534 -0.2172  0.0596  0.1003
15796TIP3    H168803   2.093   3.853   4.492  0.2604  1.0206  1.2291
15796TIP3    H268804   1.957   3.920   4.502 -0.3267  0.0127  0.1599
15797TIP3   OH268805   0.712   0.592   5.263 -0.1141 -0.2950  0.0460
15797TIP3    H168806   0.700   0.681   5.230  1.3440  0.1684  0.6770
15797TIP3    H268807   0.624   0.563   5.287 -0.5845  1.0430  0.0297
15798TIP3   OH268808   6.379   5.244  11.661 -0.3033  0.0296 -0.2360
15798TIP3    H168809   6.284   5.235  11.675 -0.7321  0.5854 -2.4104
15798TIP3    H268810   6.398   5.182  11.592  0.4762  1.5153 -1.4005
15799TIP3   OH268811   0.489   4.604  16.316 -0.2621  0.5835  0.0667
15799TIP3    H168812   0.474   4.605  16.411 -0.9186  0.0015 -0.0182
15799TIP3    H268813   0.404   4.582  16.279  0.4448 -1.3530 -0.5309
15800TIP3   OH268814   6.079   2.749   4.378  0.6987  1.0288 -0.3059
15800TIP3    H168815   6.014   2.762   4.309  0.9907 -1.2032 -1.0960
15800TIP3    H268816   6.161   2.781   4.340  0.5717  1.2288 -0.4117
15801TIP3   OH268817   0.090   4.903   6.213  0.0006 -0.4350 -0.7045
15801TIP3    H168818   0.150   4.914   6.287 -0.7215 -2.4179  0.2463
15801TIP3    H268819   0.038   4.983   6.212 -0.3501 -0.5861  1.3249
15802TIP3   OH268820   5.372   4.017   5.138  0.2305 -0.2159  0.0158
15802TIP3    H168821   5.349   4.011   5.046  0.9076 -0.0317 -0.1746
15802TIP3    H268822   5.436   3.948   5.152  0.5955  0.1499  0.1934
15803TIP3   OH268823   1.390   5.949   3.908 -0.6793 -0.1892 -0.2008
15803TIP3    H168824   1.341   5.897   3.972 -0.7248  0.9822  0.7460
15803TIP3    H268825   1.341   6.031   3.901 -0.2901 -0.0280 -1.2314
15804TIP3   OH268826   4.905   0.891   1.724  0.4764 -0.2055  0.6568
15804TIP3    H168827   4.900   0.841   1.642 -1.2411  1.4404 -0.3119
15804TIP3    H268828   4.899   0.824   1.793 -3.1500 -1.3721 -0.5730
15805TIP3   OH268829   6.212   1.165  16.785  0.1530 -0.2834  0.1949
15805TIP3    H168830   6.135   1.197  16.739 -0.3244  0.5895  1.5276
15805TIP3    H268831   6.191   1.075  16.809 -0.0674 -0.3519 -0.2486
15806TIP3   OH268832   4.887   3.836  16.215  0.1801  0.6836  0.7415
15806TIP3    H168833   4.967   3.889  16.215  0.1081  0.8363 -1.0201
15806TIP3    H268834   4.917   3.747  16.232  0.6044  0.8808  1.0596
15807TIP3   OH268835   1.565   4.159   2.908  0.0106 -0.0592 -0.1925
15807TIP3    H168836   1.525   4.124   2.828  1.0728  0.8905 -1.1810
15807TIP3    H268837   1.507   4.230   2.934 -1.2599 -1.4172  0.8934
15808TIP3   OH268838   4.191   3.825  11.686  0.8677 -0.5304  0.5698
15808TIP3    H168839   4.249   3.750  11.674 -0.7236 -2.0316  1.6250
15808TIP3    H268840   4.181   3.832  11.781  0.6029  0.7350  0.4646
15809TIP3   OH268841   6.354   6.191   1.342  0.5287 -0.5845  0.2200
15809TIP3    H168842   6.337   6.128   1.273  1.5902 -1.3822  0.6607
15809TIP3    H268843   6.273   6.193   1.393  1.4069 -3.9497  2.0164
15810TIP3   OH268844   6.299   2.865   4.240  0.7749  0.3394  0.1055
15810TIP3    H168845   6.347   2.844   4.160  0.2801 -0.6859  0.0678
15810TIP3    H268846   6.367   2.895   4.301  1.1758  0.9738 -0.6320
15811TIP3   OH268847   2.121   4.787   1.427  0.4767  0.3284 -0.4323
15811TIP3    H168848   2.088   4.751   1.509 -0.5820  1.2187 -0.4461
15811TIP3    H268849   2.214   4.764   1.427  0.3754 -0.1702  0.7450
15812TIP3   OH268850   1.441   2.160  13.896 -0.2829 -0.1910 -0.0697
15812TIP3    H168851   1.400   2.090  13.845 -1.6015  0.5043  0.0026
15812TIP3    H268852   1.396   2.240  13.869  1.3009  0.6822 -0.2604
15813TIP3   OH268853   4.507   1.394   2.750 -0.1165  0.6645 -0.2608
15813TIP3    H168854   4.586   1.341   2.742 -0.0035  0.9807 -1.4434
15813TIP3    H268855   4.435   1.331   2.736 -0.1751  0.1145  2.1328
15814TIP3   OH268856   4.309   4.134   4.462  0.3216  0.1813 -0.2196
15814TIP3    H168857   4.370   4.071   4.425 -0.4022 -0.6395 -0.0416
15814TIP3    H268858   4.335   4.218   4.423  1.5725 -0.1368 -0.1107
15815TIP3   OH268859   0.755   6.481   3.292  0.0071 -0.2628 -0.4359
15815TIP3    H168860   0.680   6.479   3.232 -0.1440  2.1893 -0.4276
15815TIP3    H268861   0.722   6.525   3.370  1.1177 -0.3949  0.1337
15816TIP3   OH268862   6.515   3.017  16.214  0.2294  0.3235  0.1844
15816TIP3    H168863   6.505   2.965  16.295  0.2508 -0.4605 -0.3083
15816TIP3    H268864   6.602   2.995  16.182  0.3442  0.8811  0.1093
15817TIP3   OH268865   2.050   3.616  16.179  0.2460  0.4571 -0.2191
15817TIP3    H168866   2.077   3.682  16.114  3.2463 -0.0845  0.3210
15817TIP3    H268867   2.086   3.534  16.146 -1.8438 -0.6304  0.0598
15818TIP3   OH268868   2.333   4.282   5.204  0.1013 -0.5125  0.1179
15818TIP3    H168869   2.290   4.250   5.124 -0.4413  0.3104  0.0596
15818TIP3    H268870   2.408   4.223   5.217 -0.0562 -0.9218 -0.7532
15819TIP3   OH268871   5.817   4.828   5.050  0.2580 -0.1925  0.0830
15819TIP3    H168872   5.742   4.777   5.019  0.2224  0.2320 -0.5431
15819TIP3    H268873   5.778   4.890   5.112 -0.0986  0.7481 -1.0376
15820TIP3   OH268874   4.710   4.415  12.399  0.3944 -0.8104  0.2906
15820TIP3    H168875   4.788   4.434  12.346  0.3478  0.8421  0.7629
15820TIP3    H268876   4.743   4.407  12.488  0.0370 -0.0749  0.4966
15821TIP3   OH268877   2.517   2.050  10.827  0.1306  0.0182 -0.4159
15821TIP3    H168878   2.473   2.073  10.745  1.2882  3.1120 -0.3159
15821TIP3    H268879   2.460   2.086  10.896 -0.1094 -1.2712  0.0874
15822TIP3   OH268880   4.063   2.781   5.249 -0.3228 -0.3770 -0.3112
15822TIP3    H168881   4.011   2.743   5.319  1.7598 -0.3915  1.3577
15822TIP3    H268882   4.040   2.874   5.249 -0.4721 -0.4123  0.2901
15823TIP3   OH268883   0.926   3.980   1.290 -0.7699  0.0704  0.4132
15823TIP3    H168884   0.928   3.905   1.349 -1.3376 -0.6078 -0.4037
15823TIP3    H268885   0.958   3.946   1.206 -0.8415  0.7911  0.0861
15824TIP3   OH268886   1.959   6.400  12.185  0.0120 -0.0095  0.3680
15824TIP3    H168887   1.988   6.371  12.098 -1.3086 -0.3933  0.0365
15824TIP3    H268888   1.871   6.365  12.194 -0.6053  1.6414  1.0784
15825TIP3   OH268889   6.201   5.478   5.766  0.1594 -0.1595  0.3879
15825TIP3    H168890   6.281   5.530   5.774  0.7437 -0.9211 -0.3269
15825TIP3    H268891   6.160   5.485   5.852  0.2535  1.4065  0.3405
15826TIP3   OH268892   5.971   5.533   1.787  0.0404 -0.0235 -0.4309
15826TIP3    H168893   5.949   5.480   1.864 -0.1461 -0.4450 -0.7642
15826TIP3    H268894   5.977   5.469   1.716 -2.0269  0.5792 -1.2213
15827TIP3   OH268895   3.021   0.347  17.108  0.2478  0.2790 -0.2997
15827TIP3    H168896   3.031   0.253  17.122 -0.6969  0.3389  0.8882
15827TIP3    H268897   3.103   0.385  17.140 -0.3486  0.0561  1.6277
15828TIP3   OH268898   2.009   5.297   6.017 -0.6334  0.4219  0.7364
15828TIP3    H168899   1.914   5.295   6.005 -0.7113  2.3950  0.7328
15828TIP3    H268900   2.041   5.223   5.965 -2.0713  0.5656 -0.4283
15829TIP3   OH268901   0.607   1.266  17.044 -0.3649  0.6362 -0.7991
15829TIP3    H168902   0.683   1.249  16.988  2.0738  0.4283  2.3108
15829TIP3    H268903   0.579   1.354  17.020  1.1500  0.8950 -1.7736
15830TIP3   OH268904   2.691   0.483   6.003  0.1748  0.3620 -0.3611
15830TIP3    H168905   2.694   0.391   6.028 -1.7557  0.0987 -0.9392
15830TIP3    H268906   2.644   0.526   6.074  1.4027  1.0067  0.0945
15831TIP3   OH268907   0.381   4.873   4.523  0.3944  0.0021  0.1388
15831TIP3    H168908   0.448   4.938   4.544 -0.2997  1.0879 -0.8798
15831TIP3    H268909   0.299   4.921   4.528 -0.1959 -0.9646 -0.0154
15832TIP3   OH268910   5.130   1.353  16.009  0.2400 -0.0737 -0.0771
15832TIP3    H168911   5.225   1.359  16.021 -0.0489  0.0646  2.8769
15832TIP3    H268912   5.114   1.262  15.986  1.0440 -0.1875 -0.2124
15833TIP3   OH268913   5.414   4.374   5.662  0.0587 -0.2967  0.3786
15833TIP3    H168914   5.400   4.406   5.751 -1.5182  3.9762 -1.1529
15833TIP3    H268915   5.334   4.326   5.641  0.4904 -1.4361  1.2439
15834TIP3   OH268916   3.650   4.377   1.188 -0.1227  0.5380  0.1073
15834TIP3    H168917   3.609   4.290   1.185 -0.2587  0.6003  0.1775
15834TIP3    H268918   3.610   4.425   1.116 -0.0211  0.5305  0.0461
15835TIP3   OH268919   6.697   1.713  12.145  0.2790 -0.5093 -0.4201
15835TIP3    H168920   6.725   1.628  12.178 -2.4054 -0.8360  1.2474
15835TIP3    H268921   6.709   1.707  12.050  1.9845 -1.9725 -0.1575
15836TIP3   OH268922   5.850   6.484   1.824 -0.1751  0.0440 -0.1174
15836TIP3    H168923   5.906   6.407   1.828  1.7400  1.2217 -1.8525
15836TIP3    H268924   5.835   6.497   1.730  0.7149  2.5019  0.0100
15837TIP3   OH268925   2.658   3.249  11.469 -0.5397 -0.0394  0.2810
15837TIP3    H168926   2.643   3.235  11.376  0.1694  1.8086 -0.1488
15837TIP3    H268927   2.580   3.212  11.511 -1.8041  0.8159 -1.1967
15838TIP3   OH268928   2.531   0.984   2.182  0.4177  0.2426 -0.2466
15838TIP3    H168929   2.601   1.048   2.197 -1.3225  2.4421 -1.0766
15838TIP3    H268930   2.497   0.966   2.269  1.4739 -0.2554  0.0845
15839TIP3   OH268931   1.252   1.539  11.207  0.2659  0.2033 -0.3795
15839TIP3    H168932   1.197   1.570  11.135 -1.2757 -2.5327 -0.5326
15839TIP3    H268933   1.234   1.600  11.279  0.1015  1.6611 -1.6048
15840TIP3   OH268934   4.817   6.419  12.195 -0.2840 -0.3398 -0.0885
15840TIP3    H168935   4.885   6.421  12.262  1.0803 -1.3774 -1.3541
15840TIP3    H268936   4.735   6.425  12.243  0.6325 -0.9811  1.6531
15841TIP3   OH268937   4.940   1.224   1.129  0.4010 -0.1299 -0.4459
15841TIP3    H168938   4.965   1.264   1.046 -0.6114  0.9791 -0.2510
15841TIP3    H268939   4.849   1.199   1.117  0.9865 -2.4410 -0.5446
15842TIP3   OH268940   4.554   0.791  12.095 -0.7052 -0.0465  0.2798
15842TIP3    H168941   4.577   0.861  12.034  2.5491 -0.8358  0.3965
15842TIP3    H268942   4.487   0.829  12.152  1.3722  3.2943  0.7551
15843TIP3   OH268943   0.006   3.100   2.905  0.6344  0.3748  0.7202
15843TIP3    H168944   0.089   3.057   2.884  0.6121  0.5508  0.2765
15843TIP3    H268945   0.005   3.178   2.851 -0.2685 -0.1259 -0.0207
15844TIP3   OH268946   3.687   3.625  16.655 -0.0080 -0.4357 -0.0672
15844TIP3    H168947   3.630   3.669  16.592  2.6583 -0.4218 -2.7151
15844TIP3    H268948   3.725   3.696  16.707 -1.0901 -0.3088  0.5720
15845TIP3   OH268949   2.416   2.517  15.784 -0.1975  0.5059 -0.2640
15845TIP3    H168950   2.487   2.580  15.775 -1.1720  1.7520  0.5039
15845TIP3    H268951   2.454   2.445  15.835  0.7809  0.6818 -0.7161
15846TIP3   OH268952   2.566   2.914  12.526 -0.8031  0.1026 -0.3792
15846TIP3    H168953   2.497   2.888  12.586 -0.0413  0.5217  0.7002
15846TIP3    H268954   2.647   2.909  12.577 -0.0518 -0.1466 -1.5463
15847TIP3   OH268955   6.215   6.431   6.854  0.4522  0.1055  0.4032
15847TIP3    H168956   6.194   6.504   6.796 -0.4291  0.5943  1.3091
15847TIP3    H268957   6.304   6.449   6.884 -0.1746  1.4458  1.5371
15848TIP3   OH268958   0.189   0.875  12.922  0.6181  0.0772 -0.1203
15848TIP3    H168959   0.214   0.896  13.012  0.8168 -0.3731 -0.0706
15848TIP3    H268960   0.134   0.949  12.895 -0.5206 -0.3933  0.8139
15849TIP3   OH268961   3.370   0.638  16.284  0.3422  0.1113 -0.6232
15849TIP3    H168962   3.325   0.565  16.241 -1.8019 -0.0534  1.7130
15849TIP3    H268963   3.307   0.709  16.284  0.8556  0.5916  0.8685
15850TIP3   OH268964   5.785   1.037  14.552 -0.0599 -0.4669 -0.0271
15850TIP3    H168965   5.723   0.990  14.607  0.4076 -0.3475  0.6269
15850TIP3    H268966   5.814   0.973  14.487  1.0506 -1.3113  1.2336
15851TIP3   OH268967   1.831   4.939   2.642  0.2781  0.2721  0.2664
15851TIP3    H168968   1.885   4.886   2.583  1.2039 -1.0323  2.1840
15851TIP3    H268969   1.893   4.987   2.696 -0.5138  0.5620  0.9445
15852TIP3   OH268970   5.344   0.215   5.993  0.2680 -0.0439  0.1255
15852TIP3    H168971   5.391   0.133   5.976 -1.0185 -0.8756  0.4006
15852TIP3    H268972   5.362   0.269   5.916 -1.0224 -1.6303 -1.3927
15853TIP3   OH268973   4.825   2.690   0.455 -0.2875  0.0680  0.1943
15853TIP3    H168974   4.903   2.713   0.404 -1.4711  0.0565 -1.6871
15853TIP3    H268975   4.798   2.773   0.496 -0.7776  0.6779 -1.2917
15854TIP3   OH268976   0.635   1.217   0.980  0.0100  0.1528  0.1925
15854TIP3    H168977   0.560   1.259   1.021 -1.1012 -0.1804 -1.3736
15854TIP3    H268978   0.607   1.127   0.967  0.4535  0.1577 -0.8944
15855TIP3   OH268979   4.186   4.933   1.620 -0.0805 -0.5305 -0.0723
15855TIP3    H168980   4.181   5.029   1.619  1.9299 -0.3780  0.4410
15855TIP3    H268981   4.156   4.909   1.708 -0.4125 -0.3484 -0.1349
15856TIP3   OH268982   5.235   3.692   4.253 -0.1078 -0.0964  0.3293
15856TIP3    H168983   5.146   3.655   4.255  0.7245 -2.2537 -0.1033
15856TIP3    H268984   5.268   3.681   4.342  0.2045 -0.5490  0.1584
15857TIP3   OH268985   6.211   5.220  15.717 -0.1959  0.8097  0.1058
15857TIP3    H168986   6.235   5.203  15.626 -0.0399  1.9232 -0.0732
15857TIP3    H268987   6.285   5.187  15.768 -0.5460 -0.3620 -0.1194
15858TIP3   OH268988   4.087   5.325   6.075 -0.2970 -0.7788 -0.2288
15858TIP3    H168989   4.106   5.236   6.105 -2.0982 -2.2361 -2.9997
15858TIP3    H268990   4.004   5.347   6.117 -1.0942 -1.4423 -1.4158
15859TIP3   OH268991   5.351   6.002   6.163 -0.4382 -0.2579  0.0952
15859TIP3    H168992   5.340   5.914   6.127  1.6628 -0.5864  0.1333
15859TIP3    H268993   5.442   6.006   6.191 -0.4408  1.9654  0.0300
15860TIP3   OH268994   4.799   3.312   4.963 -0.2012  0.3522 -0.8217
15860TIP3    H168995   4.796   3.226   4.922 -0.6530  0.4761 -1.0539
15860TIP3    H268996   4.868   3.359   4.915  0.3425 -0.0193 -0.4092
15861TIP3   OH268997   0.583   0.001  11.503  0.4152  0.1718  0.3546
15861TIP3    H168998   0.650   0.034  11.443  0.1153 -1.3099 -0.8508
15861TIP3    H268999   0.516   0.069  11.505  0.1911  0.0423 -1.4168
15862TIP3   OH269000   6.143   5.229   4.040  0.3094  0.5581 -0.3189
15862TIP3    H169001   6.052   5.202   4.054  1.0893 -1.5131  1.3088
15862TIP3    H269002   6.153   5.307   4.095 -0.4546  0.8244 -0.5323
15863TIP3   OH269003   2.552   5.262  17.331 -0.0597  0.6268  0.0378
15863TIP3    H169004   2.505   5.331  17.283 -0.2875  0.0540 -0.5796
15863TIP3    H269005   2.598   5.308  17.401  0.5480  1.5314 -0.9313
15864TIP3   OH269006   2.909   3.794  13.297  0.2108 -0.0930 -0.2418
15864TIP3    H169007   2.842   3.791  13.228  0.4268 -0.1130 -0.4491
15864TIP3    H269008   2.966   3.720  13.279 -0.8701 -1.3217  1.1356
15865TIP3   OH269009   5.333   3.408   0.805 -0.3384  0.1841  0.0890
15865TIP3    H169010   5.295   3.405   0.718  0.7308 -1.6952 -0.3683
15865TIP3    H269011   5.428   3.407   0.791 -0.1357 -1.3146  1.2437
15866TIP3   OH269012   0.698   0.815   3.862  0.2755  0.0144  0.2417
15866TIP3    H169013   0.776   0.810   3.806  0.6583  0.1178  0.7628
15866TIP3    H269014   0.626   0.829   3.801  0.6558 -0.1667 -0.2534
15867TIP3   OH269015   4.538   4.122   3.583 -0.9436 -0.0021  0.0733
15867TIP3    H169016   4.444   4.141   3.591 -1.1197 -1.1864  1.2646
15867TIP3    H269017   4.578   4.168   3.657 -0.4271  1.3230 -1.0078
15868TIP3   OH269018   1.791   5.155  14.306 -0.3609 -0.0613 -0.8376
15868TIP3    H169019   1.824   5.169  14.217  0.4718 -1.9616 -0.8815
15868TIP3    H269020   1.732   5.228  14.322  1.3795  1.6859 -2.0077
15869TIP3   OH269021   0.509   6.362  15.343  0.0518  0.1796  0.0024
15869TIP3    H169022   0.485   6.437  15.288  0.3506  1.1064  1.1114
15869TIP3    H269023   0.604   6.368  15.353  0.1484 -0.6492 -0.3045
15870TIP3   OH269024   2.522   4.937  11.985 -0.3445  0.6090 -0.1270
15870TIP3    H169025   2.483   4.920  12.071  1.2824  0.8079  0.6992
15870TIP3    H269026   2.579   5.013  11.999 -0.8810  1.3328 -1.6646
15871TIP3   OH269027   2.891   1.156  13.287 -1.1153  0.2864  0.1231
15871TIP3    H169028   2.959   1.089  13.274 -2.0265 -0.6100 -0.1518
15871TIP3    H269029   2.938   1.231  13.323  0.3755  0.4031 -1.8990
15872TIP3   OH269030   1.190   5.417   5.560  0.0819  0.0784 -0.1052
15872TIP3    H169031   1.176   5.402   5.466  1.9208 -1.0102 -0.2514
15872TIP3    H269032   1.196   5.512   5.568 -1.8515  0.3022 -0.7851
15873TIP3   OH269033   5.819   4.823   0.656 -0.0026 -0.0788 -0.0294
15873TIP3    H169034   5.747   4.835   0.594 -0.2419  0.8175  0.3938
15873TIP3    H269035   5.789   4.755   0.715 -1.4997  1.7838  1.4908
15874TIP3   OH269036   3.387   4.257   0.063  0.6980  0.2308 -0.3602
15874TIP3    H169037   3.469   4.208   0.066  1.4249  1.0754 -3.2287
15874TIP3    H269038   3.406   4.333   0.008 -1.7826  0.9406 -0.3781
15875TIP3   OH269039   4.440   1.107   4.448  0.1918  0.0456  0.4726
15875TIP3    H169040   4.469   1.085   4.360 -0.4559 -1.2243  0.5586
15875TIP3    H269041   4.348   1.081   4.451  0.0783  0.4811  1.3893
15876TIP3   OH269042   1.324   0.477  15.587 -0.1044 -0.2299 -0.3790
15876TIP3    H169043   1.342   0.386  15.609 -0.5424 -0.3230 -0.3872
15876TIP3    H269044   1.285   0.474  15.499  2.0027  0.1705 -1.4100
15877TIP3   OH269045   4.815   5.779   5.751  0.2604 -0.0665 -0.7007
15877TIP3    H169046   4.815   5.731   5.833 -0.4771 -0.2637 -0.8119
15877TIP3    H269047   4.908   5.790   5.730  0.4442 -0.6438 -0.2155
15878TIP3   OH269048   1.683   2.443   0.234 -0.1296 -0.2606  0.1505
15878TIP3    H169049   1.735   2.512   0.192 -0.2181 -1.0102 -1.2539
15878TIP3    H269050   1.747   2.376   0.259 -0.2514 -0.6025 -0.4169
15879TIP3   OH269051   2.936   0.816  11.955 -0.3118  0.1712  0.3987
15879TIP3    H169052   2.853   0.850  11.923 -0.1654  1.2927  1.1291
15879TIP3    H269053   2.914   0.767  12.035 -0.4501 -0.9737 -0.3208
15880TIP3   OH269054   5.856   2.958  10.553 -0.1712 -0.4177  0.5515
15880TIP3    H169055   5.925   2.928  10.494  1.2305  1.1990  1.2634
15880TIP3    H269056   5.840   2.884  10.611  0.9612 -0.8318  0.3586
15881TIP3   OH269057   2.493   1.471   4.174  0.0587 -0.2554  0.2891
15881TIP3    H169058   2.434   1.438   4.241  1.0438  0.5942  1.6280
15881TIP3    H269059   2.480   1.566   4.174 -0.7948 -0.3371 -1.6002
15882TIP3   OH269060   3.164   4.516  11.107  0.1066 -0.1645  0.2312
15882TIP3    H169061   3.158   4.441  11.049  0.1933 -0.2442  0.3261
15882TIP3    H269062   3.230   4.492  11.172 -0.8861 -0.5777  1.1074
15883TIP3   OH269063   2.191   5.051  11.777  0.4686 -0.2330  0.1850
15883TIP3    H169064   2.283   5.030  11.761  0.2321 -1.6287  0.5139
15883TIP3    H269065   2.186   5.071  11.870  0.5773  0.6610  0.0019
15884TIP3   OH269066   3.988   3.767  16.488 -0.6875  0.5380 -0.1178
15884TIP3    H169067   3.935   3.796  16.563 -1.8053  0.6035 -0.9147
15884TIP3    H269068   3.965   3.827  16.417  0.0749  0.2393 -0.6381
15885TIP3   OH269069   6.316   2.872  11.024 -0.1177 -0.5009 -0.4301
15885TIP3    H169070   6.295   2.784  10.993  0.3160  0.1454 -2.8008
15885TIP3    H269071   6.392   2.898  10.972 -0.9728  1.6992 -0.7079
15886TIP3   OH269072   5.568   5.259  14.298  0.6546  0.3628 -0.2301
15886TIP3    H169073   5.610   5.174  14.301 -0.4521 -0.1771  1.3772
15886TIP3    H269074   5.477   5.241  14.274 -0.0129  0.8422  1.6942
15887TIP3   OH269075   2.651   0.888   5.003  0.2046 -0.5359 -0.3502
15887TIP3    H169076   2.736   0.853   4.977 -0.5957 -2.4125 -0.6574
15887TIP3    H269077   2.644   0.869   5.096  0.5076  0.5153 -0.1024
15888TIP3   OH269078   2.537   1.438  11.874 -0.8185  0.6247 -0.0147
15888TIP3    H169079   2.549   1.383  11.796 -0.4046  1.2699 -0.4120
15888TIP3    H269080   2.444   1.431  11.895 -0.5928 -1.1881  0.6612
15889TIP3   OH269081   3.947   5.403  14.627  0.0528 -0.4120 -0.0945
15889TIP3    H169082   3.926   5.310  14.638  0.1651 -0.5078 -0.6632
15889TIP3    H269083   3.972   5.411  14.535 -2.5952  0.6854 -0.8008
15890TIP3   OH269084   0.116   0.125  16.049 -0.6981 -0.2835 -0.2697
15890TIP3    H169085   0.100   0.183  16.123  0.5092  1.3891 -1.2572
15890TIP3    H269086   0.087   0.175  15.973 -1.6149 -1.8394 -1.0112
15891TIP3   OH269087   0.680   1.515   3.101  0.3935 -0.0841  0.2108
15891TIP3    H169088   0.751   1.545   3.044 -0.8851 -0.4382 -1.6566
15891TIP3    H269089   0.640   1.595   3.135  0.7205  0.1491  0.0423
15892TIP3   OH269090   0.897   4.897  13.357  0.0751  0.4716  0.7890
15892TIP3    H169091   0.853   4.913  13.440  0.2601  0.4016  0.9013
15892TIP3    H269092   0.990   4.901  13.377  0.1230  0.9859  0.4806
15893TIP3   OH269093   0.456   2.979  13.649  0.2780 -0.1812 -0.1112
15893TIP3    H169094   0.489   2.927  13.576  1.5410  1.1253 -0.5226
15893TIP3    H269095   0.459   2.919  13.724 -1.1140 -1.5682 -1.0867
15894TIP3   OH269096   3.111   5.724  17.030 -0.1768  0.3067  0.0254
15894TIP3    H169097   3.191   5.674  17.045 -0.1080  0.5429  0.4514
15894TIP3    H269098   3.142   5.814  17.017 -0.4611  0.6287  1.4623
15895TIP3   OH269099   0.389   1.086   3.840 -0.0575  0.3740  0.0608
15895TIP3    H169100   0.324   1.048   3.900 -0.6148  1.2961  0.0690
15895TIP3    H269101   0.467   1.099   3.894 -0.0524 -0.2105  0.1973
15896TIP3   OH269102   2.811   2.088  16.468 -0.5118 -0.2030 -0.3320
15896TIP3    H169103   2.754   2.031  16.416  2.2407 -1.8565 -1.7853
15896TIP3    H269104   2.786   2.177  16.440 -1.6461 -0.8856 -1.6773
15897TIP3   OH269105   5.679   1.411  11.264  0.2193  0.1857  0.3606
15897TIP3    H169106   5.656   1.457  11.344  1.9303  1.8462 -0.0417
15897TIP3    H269107   5.686   1.479  11.197 -1.9224 -1.2246 -1.4722
15898TIP3   OH269108   2.445   2.780  16.493  0.3163  0.4518  0.7597
15898TIP3    H169109   2.354   2.784  16.521  0.0496 -1.0062  0.2017
15898TIP3    H269110   2.462   2.866  16.455 -0.8290  0.7343  0.8391
15899TIP3   OH269111   4.666   3.692  12.282 -0.2730 -0.0836 -0.1043
15899TIP3    H169112   4.606   3.765  12.292  2.0244  2.1867 -1.5524
15899TIP3    H269113   4.722   3.696  12.360  0.3662  0.2695 -0.5659
15900TIP3   OH269114   2.023   6.275  16.831  0.7637  0.2963  0.7926
15900TIP3    H169115   2.000   6.368  16.833  0.5514  0.2520  0.4049
15900TIP3    H269116   2.039   6.253  16.923  1.9943  1.0041  0.7789
15901TIP3   OH269117   0.733   2.239  12.241  0.8872 -1.2188  0.1046
15901TIP3    H169118   0.671   2.191  12.186  0.0650 -0.6113  0.4755
15901TIP3    H269119   0.763   2.312  12.187 -0.4736 -0.1980  0.6581
15902TIP3   OH269120   6.587   6.660   4.780 -0.2337 -0.7044 -0.1968
15902TIP3    H169121   6.616   6.600   4.712 -0.0300 -1.6081  0.6695
15902TIP3    H269122   6.550   6.603   4.848 -0.6940  0.1972  0.3247
15903TIP3   OH269123   5.102   2.939   2.623 -0.1285 -0.2427  0.1095
15903TIP3    H169124   5.160   2.940   2.547 -0.1844  0.2952  0.0717
15903TIP3    H269125   5.083   2.847   2.637  1.4279 -0.5282  0.6344
15904TIP3   OH269126   2.447   6.402  16.169 -0.3110  0.2820 -0.1767
15904TIP3    H169127   2.468   6.481  16.220 -0.7001 -0.5268  1.3134
15904TIP3    H269128   2.389   6.352  16.226 -2.6209  0.3191 -2.3158
15905TIP3   OH269129   3.771   3.251   6.040  0.0334  0.5857  0.2412
15905TIP3    H169130   3.708   3.263   5.970 -0.7371  0.7155  0.9409
15905TIP3    H269131   3.735   3.301   6.113  0.0312 -0.7811  1.2084
15906TIP3   OH269132   2.822   4.970   6.202 -0.0992 -0.3382  0.8785
15906TIP3    H169133   2.913   4.971   6.230  0.1226  1.5977  0.2489
15906TIP3    H269134   2.808   4.882   6.167  1.6025 -0.5815  0.7298
15907TIP3   OH269135   4.653   5.214  14.870 -0.0844 -0.0440 -0.4240
15907TIP3    H169136   4.714   5.159  14.820  0.5148  1.3397 -1.2726
15907TIP3    H269137   4.607   5.266  14.804 -1.0391  0.0852  0.3190
15908TIP3   OH269138   6.506   1.368  15.943  0.0554  0.2932 -0.6474
15908TIP3    H169139   6.580   1.354  16.003 -1.3839  0.8452  1.3770
15908TIP3    H269140   6.547   1.400  15.862  2.0848 -0.2239  0.1064
15909TIP3   OH269141   2.688   4.743   2.017  0.6610  0.1498 -0.2447
15909TIP3    H169142   2.651   4.758   1.930 -0.8309 -0.1054  0.3140
15909TIP3    H269143   2.612   4.721   2.072  1.2852  2.2384  1.5818
15910TIP3   OH269144   3.873   4.361   0.359  0.1383  0.6906 -0.2453
15910TIP3    H169145   3.802   4.327   0.413  0.0473  0.0037 -0.7848
15910TIP3    H269146   3.830   4.422   0.299 -0.2739 -0.8284 -1.5731
15911TIP3   OH269147   6.452   3.609  16.933  0.7100  0.3849 -0.0086
15911TIP3    H169148   6.524   3.602  16.870  2.1127  2.1421  1.2782
15911TIP3    H269149   6.468   3.692  16.978 -0.9755 -0.1706  1.7483
15912TIP3   OH269150   0.082   2.602  13.642 -0.3526 -0.3706  0.4149
15912TIP3    H169151   0.166   2.648  13.646 -1.4546  1.9753 -0.9450
15912TIP3    H269152   0.091   2.544  13.566 -0.2233  0.5060 -0.2587
15913TIP3   OH269153   2.391   3.283   5.950 -0.6050  0.1457 -0.2729
15913TIP3    H169154   2.372   3.273   6.043 -1.1230  1.4216 -0.2198
15913TIP3    H269155   2.397   3.193   5.917  2.2355 -0.4168  1.4645
15914TIP3   OH269156   6.089   5.190   3.465 -1.0124 -0.4067 -0.6013
15914TIP3    H169157   6.179   5.202   3.495 -0.2871 -0.4500 -2.6171
15914TIP3    H269158   6.036   5.201   3.544  0.4656  3.2067  0.0805
15915TIP3   OH269159   4.699   5.335  11.571  0.5233 -0.0875 -0.0436
15915TIP3    H169160   4.692   5.384  11.652  2.5117 -0.2411  0.2674
15915TIP3    H269161   4.752   5.390  11.514  0.4394 -0.6549 -0.6879
15916TIP3   OH269162   0.546   2.914   2.229 -0.1731 -0.0054  0.7551
15916TIP3    H169163   0.485   2.954   2.167 -0.2812  0.5335  1.2088
15916TIP3    H269164   0.572   2.832   2.186  1.7887  1.5514 -1.2614
15917TIP3   OH269165   2.467   6.305  13.453  0.4194 -0.1590 -0.3133
15917TIP3    H169166   2.440   6.216  13.476  1.3578 -1.0847 -2.5657
15917TIP3    H269167   2.521   6.295  13.375  0.0454  2.4535 -1.0031
15918TIP3   OH269168   0.915   0.061  12.204 -0.3071  0.4202  0.8260
15918TIP3    H169169   0.989   0.042  12.146  1.6106  1.4565  2.7678
15918TIP3    H269170   0.916   0.156  12.215 -0.9854  0.3121  2.0465
15919TIP3   OH269171   3.985   6.235   0.617 -0.1055  0.6631  0.0753
15919TIP3    H169172   3.957   6.178   0.545 -0.4345 -0.8800  1.3738
15919TIP3    H269173   4.026   6.310   0.573  3.4722 -2.0283 -1.7703
15920TIP3   OH269174   0.797   5.197   0.367  0.7376 -0.1563 -0.1312
15920TIP3    H169175   0.706   5.168   0.373  0.9112 -0.6982 -0.1110
15920TIP3    H269176   0.797   5.259   0.294 -0.0872  1.5526  1.2335
15921TIP3   OH269177   0.417   3.244  13.715 -0.2786 -0.1954  0.2551
15921TIP3    H169178   0.459   3.161  13.691 -1.3861 -0.7545  0.1787
15921TIP3    H269179   0.452   3.264  13.802  0.5954 -0.3300 -0.0610
15922TIP3   OH269180   2.187   5.460  11.231  0.4579  0.9878 -0.3327
15922TIP3    H169181   2.281   5.445  11.218  0.6067  1.3860  0.2664
15922TIP3    H269182   2.148   5.436  11.147  0.6763 -2.6664  0.4515
15923TIP3   OH269183   0.550   1.027   4.669  0.2537 -0.0590  0.1507
15923TIP3    H169184   0.499   0.946   4.675  0.6694 -0.4925 -1.6164
15923TIP3    H269185   0.493   1.088   4.621  0.9423 -0.1850 -0.8537
15924TIP3   OH269186   3.841   4.127  14.339  0.2799  0.1511 -0.1732
15924TIP3    H169187   3.867   4.083  14.258  2.3934 -0.2848  0.6729
15924TIP3    H269188   3.906   4.196  14.351  1.0537 -0.8407  1.9430
15925TIP3   OH269189   5.273   6.258   1.886 -0.0054  0.1730  0.4107
15925TIP3    H169190   5.293   6.326   1.951  0.1727  0.4578  0.0666
15925TIP3    H269191   5.329   6.184   1.910 -0.3609  0.0677  0.9189
15926TIP3   OH269192   4.384   2.720  16.022  0.3318 -0.3130 -0.1345
15926TIP3    H169193   4.295   2.754  16.014  0.7463  1.7446  2.5009
15926TIP3    H269194   4.374   2.625  16.026 -1.8299 -0.0923  0.7696
15927TIP3   OH269195   3.433   6.047  14.198 -0.1836  0.2498 -0.3331
15927TIP3    H169196   3.501   6.102  14.159 -0.0371  1.0569  0.9595
15927TIP3    H269197   3.441   6.064  14.292  0.2464 -2.4530  0.2018
15928TIP3   OH269198   3.747   4.519   0.133 -0.3826 -0.5019  0.4874
15928TIP3    H169199   3.733   4.470   0.052 -1.3844  0.3368  0.1282
15928TIP3    H269200   3.808   4.588   0.108  2.0181 -2.2127  1.2802
15929TIP3   OH269201   5.191   3.322   3.633 -0.4889  0.2334 -0.1593
15929TIP3    H169202   5.184   3.330   3.728  1.9816 -0.6018  0.1814
15929TIP3    H269203   5.194   3.413   3.601 -3.1801  0.5584  0.2846
15930TIP3   OH269204   3.020   6.372  13.326 -0.2618 -0.1839 -0.4389
15930TIP3    H169205   2.926   6.357  13.319 -0.5443  1.6372 -1.0918
15930TIP3    H269206   3.057   6.285  13.339 -2.0017 -0.9745 -0.4989
15931TIP3   OH269207   4.640   2.537  12.713 -0.8328 -0.1328  0.4730
15931TIP3    H169208   4.726   2.504  12.686 -0.2528 -0.4137  2.4991
15931TIP3    H269209   4.579   2.497  12.651  0.4424 -0.1906 -0.8130
15932TIP3   OH269210   5.290   1.476   0.741  0.1086  0.1082 -0.0240
15932TIP3    H169211   5.262   1.466   0.832 -3.1438 -2.3587 -1.1029
15932TIP3    H269212   5.368   1.421   0.733 -0.3086 -0.6644  1.0325
15933TIP3   OH269213   3.515   1.489   4.888  0.1486  0.3855 -0.4533
15933TIP3    H169214   3.443   1.546   4.861 -0.0754 -0.2943 -1.3576
15933TIP3    H269215   3.488   1.454   4.972 -0.7735 -0.1641 -0.9636
15934TIP3   OH269216   2.395   3.057  13.884  0.2647 -0.1331 -0.1239
15934TIP3    H169217   2.335   3.047  13.810 -0.1464  0.5185  0.1169
15934TIP3    H269218   2.340   3.081  13.958  0.9180  1.8375 -0.1959
15935TIP3   OH269219   5.870   0.802   2.041 -0.5324 -0.3577  0.0757
15935TIP3    H169220   5.837   0.809   1.952  0.7759  1.8778 -0.3180
15935TIP3    H269221   5.839   0.881   2.085  2.5626  0.9450  0.1809
15936TIP3   OH269222   4.602   4.165   0.802  0.1370  0.0894 -0.1658
15936TIP3    H169223   4.588   4.258   0.787 -0.1187 -0.1691 -1.6597
15936TIP3    H269224   4.551   4.121   0.734  2.3590 -1.0670 -1.2085
15937TIP3   OH269225   1.108   3.800  12.814  0.7026 -0.2795 -0.4654
15937TIP3    H169226   1.070   3.736  12.874 -0.9897  0.6734 -0.4727
15937TIP3    H269227   1.199   3.810  12.845  0.4910 -1.3732  0.6041
15938TIP3   OH269228   2.911   2.135  12.704  1.0745 -0.1332  0.0668
15938TIP3    H169229   2.915   2.063  12.767  0.6186 -0.7138 -0.5603
15938TIP3    H269230   2.927   2.213  12.757  0.9549 -0.6286  0.8579
15939TIP3   OH269231   0.542   2.863  15.348 -0.0698  0.3736 -0.1437
15939TIP3    H169232   0.532   2.944  15.397 -1.8439 -0.2883  0.6791
15939TIP3    H269233   0.492   2.877  15.267  0.9190  0.6308 -0.7284
15940TIP3   OH269234   3.220   1.386   5.464 -0.0589  0.3294  0.7429
15940TIP3    H169235   3.177   1.305   5.437 -0.6632  0.3040  1.7368
15940TIP3    H269236   3.227   1.437   5.383 -0.5962 -0.2891  0.2925
15941TIP3   OH269237   1.120   1.496   0.520  0.3495 -0.4855 -0.4579
15941TIP3    H169238   1.137   1.531   0.608  0.4675  0.1763 -0.7361
15941TIP3    H269239   1.115   1.401   0.532  0.5080 -0.4093  0.2392
15942TIP3   OH269240   4.450   0.772   6.431 -0.0740  0.1975 -0.2739
15942TIP3    H169241   4.414   0.813   6.509 -2.2986  0.9517 -1.5874
15942TIP3    H269242   4.418   0.681   6.435  0.5341 -0.0045  0.0983
15943TIP3   OH269243   4.530   5.910  13.180 -0.0087  0.5054 -0.5198
15943TIP3    H169244   4.482   5.993  13.177  0.5472  0.8770  0.3995
15943TIP3    H269245   4.508   5.872  13.265 -1.2060 -0.8995 -1.4022
15944TIP3   OH269246   2.878   1.348  15.590  0.1346 -0.2726 -0.1447
15944TIP3    H169247   2.817   1.280  15.620  1.0762 -0.9653  0.2540
15944TIP3    H269248   2.964   1.308  15.599  0.9163  1.6915  2.0660
15945TIP3   OH269249   2.358   5.220  14.752 -0.9452  0.1756  0.2342
15945TIP3    H169250   2.322   5.265  14.675 -0.3047  0.0821 -0.1310
15945TIP3    H269251   2.432   5.171  14.717  1.1560  2.3341  1.3481
15946TIP3   OH269252   4.962   6.344  13.959  0.6001 -1.0131  0.0241
15946TIP3    H169253   4.902   6.346  13.884  0.5203 -0.9274  0.0892
15946TIP3    H269254   4.935   6.419  14.013  1.0852 -0.6719 -0.1923
15947TIP3   OH269255   3.869   5.128  14.971  0.2085 -0.6914 -0.0348
15947TIP3    H169256   3.939   5.071  15.001 -0.8114 -1.4918  0.9177
15947TIP3    H269257   3.890   5.146  14.879  2.5759  0.5321  0.6557
15948TIP3   OH269258   3.507   2.961  15.328  0.1881  0.4802 -0.5292
15948TIP3    H169259   3.534   2.876  15.363 -1.6585  0.7572  1.8640
15948TIP3    H269260   3.439   2.941  15.264 -2.1155  0.1072  1.8656
15949TIP3   OH269261   1.779   0.338   3.270  0.1213  0.8664 -0.4241
15949TIP3    H169262   1.865   0.298   3.257  0.1228  1.4133 -2.5131
15949TIP3    H269263   1.717   0.271   3.244 -0.1289  0.4861  1.0457
15950TIP3   OH269264   3.534   5.322   2.359  0.0328 -0.3901 -0.3383
15950TIP3    H169265   3.529   5.285   2.271 -1.5222 -0.9482 -0.0521
15950TIP3    H269266   3.469   5.393   2.359  0.0071 -0.4038  0.3566
15951TIP3   OH269267   1.075   5.747   0.675  0.0526  0.5250 -0.0106
15951TIP3    H169268   1.119   5.740   0.590 -0.5908  0.7761 -0.3760
15951TIP3    H269269   1.059   5.657   0.701  0.4824  0.4405 -0.0332
15952TIP3   OH269270   5.450   6.581   3.061  0.8241 -0.2067  0.0600
15952TIP3    H169271   5.384   6.569   2.993  1.8239 -0.0934 -0.9655
15952TIP3    H269272   5.443   6.503   3.116 -0.8108  0.2702  0.5663
15953TIP3   OH269273   4.066   4.350  16.290  0.2312 -0.6777  0.0385
15953TIP3    H169274   3.978   4.328  16.320 -0.6365  1.4558 -0.7120
15953TIP3    H269275   4.099   4.270  16.250 -0.9785 -1.7973  1.1782
15954TIP3   OH269276   5.894   4.483   0.672 -0.4965  0.2811  0.1195
15954TIP3    H169277   5.826   4.419   0.693  0.6596 -0.8423  0.5545
15954TIP3    H269278   5.945   4.492   0.753 -0.6785  1.8339  0.0964
15955TIP3   OH269279   3.211   5.986  11.928  0.7224 -0.1383 -0.4311
15955TIP3    H169280   3.250   5.934  11.858  0.2689 -0.5846 -0.3571
15955TIP3    H269281   3.173   5.922  11.988 -2.0684  0.2497 -1.5859
15956TIP3   OH269282   3.602   2.890   5.084  0.8414 -0.3650 -0.3212
15956TIP3    H169283   3.639   2.924   5.165 -1.2947 -1.5740  1.2624
15956TIP3    H269284   3.523   2.843   5.111 -0.1253 -0.5687 -3.1501
15957TIP3   OH269285   3.040   0.021   1.954 -0.4068  0.8898  0.0015
15957TIP3    H169286   3.023  -0.072   1.944 -1.2358  1.0787 -0.3376
15957TIP3    H269287   3.132   0.031   1.929 -0.3007  0.1657  0.0779
15958TIP3   OH269288   2.962   5.652  16.438 -0.2171 -0.3685 -0.0350
15958TIP3    H169289   2.959   5.561  16.470  1.6881 -0.5929 -0.3904
15958TIP3    H269290   2.927   5.704  16.510  1.2107 -1.1532  1.2917
15959TIP3   OH269291   6.694   0.171  14.881 -0.5383 -0.4838 -0.1114
15959TIP3    H169292   6.780   0.137  14.859  1.0358  1.6576  2.1532
15959TIP3    H269293   6.711   0.239  14.946 -4.0125 -0.5521  1.1058
15960TIP3   OH269294   2.117   2.829  13.468 -0.2786  0.1528 -0.1871
15960TIP3    H169295   2.049   2.894  13.449 -0.2302  0.3201  0.2161
15960TIP3    H269296   2.068   2.746  13.475 -0.6375  0.4816  1.4880
15961TIP3   OH269297   0.804   2.535  12.336  0.3312 -0.8750 -0.1641
15961TIP3    H169298   0.759   2.619  12.349  0.8012 -0.6921  0.3802
15961TIP3    H269299   0.849   2.520  12.419  2.6286 -0.2032 -1.1795
15962TIP3   OH269300   0.220   0.206  13.938  0.3080  0.3729 -0.2867
15962TIP3    H169301   0.197   0.116  13.912  1.3409  0.1153 -0.3352
15962TIP3    H269302   0.314   0.204  13.949  0.3145  1.4212 -0.1105
15963TIP3   OH269303   1.920   2.892   3.232 -0.3430 -0.2379  0.7781
15963TIP3    H169304   1.916   2.946   3.311 -1.1156 -0.9950  1.2632
15963TIP3    H269305   1.981   2.822   3.254  0.4695  0.2714  0.2302
15964TIP3   OH269306   0.504   0.367   5.684  0.1828  0.2301  0.4207
15964TIP3    H169307   0.568   0.395   5.749  0.3253  0.9488 -0.0202
15964TIP3    H269308   0.452   0.445   5.665 -0.5327 -0.2300  0.4356
15965TIP3   OH269309   4.660   0.411   6.527 -0.1199 -0.2766 -0.2315
15965TIP3    H169310   4.589   0.469   6.503 -0.5088 -1.1996 -1.4149
15965TIP3    H269311   4.726   0.468   6.567 -1.6716  0.5391  1.3081
15966TIP3   OH269312   2.234   3.244  14.378 -0.4760 -0.2515  0.8171
15966TIP3    H169313   2.159   3.294  14.408  0.5597  2.4891 -0.7889
15966TIP3    H269314   2.310   3.297  14.401  0.7734 -1.4633 -0.2462
15967TIP3   OH269315   4.559   0.839  11.740  0.1674 -0.1011 -0.1955
15967TIP3    H169316   4.481   0.795  11.773 -0.1741  0.8770  0.3607
15967TIP3    H269317   4.535   0.868  11.652  0.6015 -1.5073 -0.8034
15968TIP3   OH269318   5.911   1.888  17.093 -0.1838  0.8799  0.2914
15968TIP3    H169319   5.918   1.934  17.010  1.6294  1.3400  0.6541
15968TIP3    H269320   5.854   1.944  17.147 -0.8934  0.8686 -0.4283
15969TIP3   OH269321   6.583   2.389   4.384 -0.0196  0.3813  0.2245
15969TIP3    H169322   6.663   2.346   4.415 -0.4720 -1.0260 -0.4642
15969TIP3    H269323   6.591   2.479   4.415  1.0656 -0.1349  1.5515
15970TIP3   OH269324   5.710   6.157   2.886 -0.1931 -0.3466 -0.0362
15970TIP3    H169325   5.683   6.235   2.933 -0.3899 -1.3824  1.6575
15970TIP3    H269326   5.779   6.119   2.941  0.5133 -0.9026 -1.2747
15971TIP3   OH269327   3.413   1.681  11.497  0.3394 -0.1327  0.1162
15971TIP3    H169328   3.456   1.674  11.582 -0.1492 -3.1157  0.2236
15971TIP3    H269329   3.484   1.688  11.434  1.0994 -3.5541  0.4034
15972TIP3   OH269330   3.418   1.063  16.499 -0.8593  0.5205 -0.1713
15972TIP3    H169331   3.489   1.127  16.492  0.8531 -1.2060  0.6045
15972TIP3    H269332   3.405   1.031  16.410 -2.3516  2.4906 -0.7343
15973TIP3   OH269333   4.372   5.565   3.392 -0.6402 -0.0782 -0.0512
15973TIP3    H169334   4.457   5.522   3.407 -0.9788 -0.3851  1.1107
15973TIP3    H269335   4.331   5.566   3.479  0.2233  4.5095  0.5303
15974TIP3   OH269336   1.932   5.769   1.958 -0.1027 -0.1538  0.5029
15974TIP3    H169337   1.947   5.795   2.048 -0.3013  1.4213  0.1078
15974TIP3    H269338   1.853   5.716   1.961 -0.0687 -0.1677  1.2559
15975TIP3   OH269339   5.278   6.490   1.061  0.1385  0.3389  0.2696
15975TIP3    H169340   5.313   6.458   1.144  0.0589 -0.8942 -0.1510
15975TIP3    H269341   5.251   6.580   1.079  0.6206  0.2687  1.4279
15976TIP3   OH269342   3.780   6.131   5.636  0.9940 -0.5738 -0.3527
15976TIP3    H169343   3.716   6.073   5.678  1.2416 -0.8804 -0.3964
15976TIP3    H269344   3.768   6.115   5.542  0.9582 -0.4431 -0.3702
15977TIP3   OH269345   5.055   4.480  17.319 -0.8616 -0.7504 -0.0564
15977TIP3    H169346   5.118   4.452  17.252 -2.3093  1.0020 -2.2984
15977TIP3    H269347   5.096   4.557  17.359 -0.8948 -0.5259 -0.4458
15978TIP3   OH269348   2.155   3.948   2.349  0.3339  0.2039 -0.0691
15978TIP3    H169349   2.127   3.857   2.343  0.3694  0.0973  1.2622
15978TIP3    H269350   2.251   3.944   2.346  0.3284  0.2332 -0.3427
15979TIP3   OH269351   0.639   3.803   4.411 -0.3142  0.2192 -0.3595
15979TIP3    H169352   0.578   3.876   4.402 -0.1795  0.1268 -2.3319
15979TIP3    H269353   0.715   3.842   4.454 -1.3573  0.5391  1.3011
15980TIP3   OH269354   3.053   5.569   4.994  0.6043  0.0496 -0.0412
15980TIP3    H169355   2.981   5.508   5.012 -0.5742  1.0125 -1.2584
15980TIP3    H269356   3.132   5.517   5.007 -0.2360 -0.7960  2.3117
15981TIP3   OH269357   0.157   5.181  15.343 -0.2652  0.1953 -1.1918
15981TIP3    H169358   0.068   5.158  15.366  0.1247  0.9695  1.3623
15981TIP3    H269359   0.211   5.109  15.376  0.1315  0.0983 -2.0216
15982TIP3   OH269360   5.218   3.032  16.629 -0.6186  0.6826 -0.1545
15982TIP3    H169361   5.148   3.019  16.693 -0.0246 -0.6242  0.2681
15982TIP3    H269362   5.275   3.098  16.669 -1.0450  0.9835 -0.0341
15983TIP3   OH269363   3.809   2.798  17.049 -0.3584 -0.2906  0.2602
15983TIP3    H169364   3.904   2.813  17.042  0.0585 -1.9242  1.7777
15983TIP3    H269365   3.770   2.875  17.008  1.6354  1.2465  1.0493
15984TIP3   OH269366   5.625   3.558  11.627 -0.0451  0.2672  0.0086
15984TIP3    H169367   5.710   3.564  11.670 -1.3294 -1.9532  3.2317
15984TIP3    H269368   5.640   3.503  11.550  1.6019  0.8707 -0.1293
15985TIP3   OH269369   0.654   5.911   0.347 -0.2594  0.3437  0.3630
15985TIP3    H169370   0.571   5.889   0.388 -0.2431 -0.7539 -0.1270
15985TIP3    H269371   0.659   5.851   0.272  0.9504  0.4116  0.3711
15986TIP3   OH269372   0.487   0.766   5.902  0.1227 -0.6488  0.4916
15986TIP3    H169373   0.428   0.719   5.960  0.3089 -1.1262  0.2987
15986TIP3    H269374   0.568   0.715   5.903  0.4581 -0.1214  0.5811
15987TIP3   OH269375   5.275   2.406  13.083 -0.3232 -0.4981  0.8081
15987TIP3    H169376   5.215   2.459  13.134  0.2858  0.1439  0.8732
15987TIP3    H269377   5.257   2.316  13.111 -1.7588 -0.3897  0.2679
15988TIP3   OH269378   1.447   4.750  14.332 -0.3095  0.2500 -0.1232
15988TIP3    H169379   1.520   4.688  14.319 -2.0273 -1.1727 -5.2554
15988TIP3    H269380   1.490   4.834  14.346  2.2481 -1.0060  0.2522
15989TIP3   OH269381   0.830   3.919   5.995  0.2008 -0.2953 -0.2924
15989TIP3    H169382   0.913   3.939   6.039 -0.0549 -1.3063  0.6869
15989TIP3    H269383   0.770   3.987   6.025  0.3865 -0.1936 -0.1453
15990TIP3   OH269384   3.912   5.504  12.191 -0.1893  0.5613  0.4630
15990TIP3    H169385   3.968   5.450  12.246 -0.6952  0.3128  0.7457
15990TIP3    H269386   3.835   5.450  12.175  0.4952  0.1122 -1.5771
15991TIP3   OH269387   1.265   0.063  16.084 -0.5658  0.0795  0.5544
15991TIP3    H169388   1.181   0.083  16.043 -0.1745  0.3096 -0.1435
15991TIP3    H269389   1.248   0.075  16.178 -1.0005  1.3408  0.3453
15992TIP3   OH269390   0.787   2.670  16.576  0.8025 -0.5243  0.3179
15992TIP3    H169391   0.758   2.652  16.665  1.2070 -1.3636  0.2927
15992TIP3    H269392   0.875   2.631  16.572  0.4318 -1.2741 -0.7094
15993TIP3   OH269393   0.553   3.783   2.898 -0.2775 -0.3382  0.1358
15993TIP3    H169394   0.555   3.859   2.841 -2.1733  0.6009  1.2254
15993TIP3    H269395   0.490   3.724   2.857 -1.1641  0.0657  0.8759
15994TIP3   OH269396   4.899   2.188  15.405  0.3849 -0.5628  0.2981
15994TIP3    H169397   4.818   2.238  15.404 -0.5388 -2.0118  0.5837
15994TIP3    H269398   4.934   2.201  15.494 -0.7157 -1.7126  0.9382
15995TIP3   OH269399   0.349   4.224   4.664  0.2011  0.5432  0.3587
15995TIP3    H169400   0.265   4.268   4.675  0.0437  0.5854 -0.8580
15995TIP3    H269401   0.327   4.131   4.664  0.0346  0.5715 -0.7394
15996TIP3   OH269402   1.640   6.732   4.461  0.4594 -0.3453 -0.2233
15996TIP3    H169403   1.629   6.790   4.385 -0.0773 -2.0849 -1.5439
15996TIP3    H269404   1.570   6.756   4.521  0.3953  0.5181 -0.6361
15997TIP3   OH269405   2.809   5.291   0.685  0.4685  0.3770  0.0836
15997TIP3    H169406   2.753   5.330   0.618 -0.1768  0.0795  0.4480
15997TIP3    H269407   2.854   5.366   0.725  0.5234  0.5932 -0.3719
15998TIP3   OH269408   2.407   5.476   4.084 -0.3715 -0.4046  0.5203
15998TIP3    H169409   2.411   5.382   4.070  0.5172 -0.0527 -2.2044
15998TIP3    H269410   2.468   5.493   4.155  0.6841 -1.7271 -0.0299
15999TIP3   OH269411   5.594   3.470   5.150  0.3139  0.6681  0.2324
15999TIP3    H169412   5.631   3.552   5.118 -0.9406  1.0372 -0.3030
15999TIP3    H269413   5.596   3.411   5.075 -1.0662  1.0042 -0.0956
16000TIP3   OH269414   4.407   3.687   3.644 -0.7161 -0.1645  0.4168
16000TIP3    H169415   4.454   3.741   3.707  0.8191 -0.3084 -0.5468
16000TIP3    H269416   4.370   3.749   3.581 -2.7977  0.0299  1.7294
16001TIP3   OH269417   6.533   0.065  13.254  0.5044 -0.0674  0.3331
16001TIP3    H169418   6.555   0.077  13.161 -1.5007  0.3750 -0.1387
16001TIP3    H269419   6.439   0.048  13.254  0.3491  0.5235  2.3303
16002TIP3   OH269420   2.244   6.246  10.851 -0.1773  0.7121 -0.3675
16002TIP3    H169421   2.187   6.243  10.774 -1.3101  0.6227  0.4421
16002TIP3    H269422   2.312   6.182  10.833 -1.1605 -0.2638 -0.7537
16003TIP3   OH269423   1.931   5.794  16.614  0.1279  0.0796  0.1550
16003TIP3    H169424   1.960   5.825  16.699  0.3133  1.5306 -0.4025
16003TIP3    H269425   1.857   5.736  16.633  0.9574 -0.6263  1.3489
16004TIP3   OH269426   1.641   6.110   0.197  0.4538  0.1705 -0.2225
16004TIP3    H169427   1.734   6.126   0.216 -0.0934  1.5076  1.6060
16004TIP3    H269428   1.601   6.197   0.198 -1.0939 -0.5118  0.7100
16005TIP3   OH269429   2.792   1.279   1.731 -0.0541 -0.1548 -0.2194
16005TIP3    H169430   2.740   1.357   1.752 -2.8106 -1.6160 -1.0544
16005TIP3    H269431   2.850   1.307   1.661  1.6601  1.9884  1.8580
16006TIP3   OH269432   2.617   1.101   2.893 -0.4136 -0.5337  0.5364
16006TIP3    H169433   2.558   1.056   2.833 -0.9850 -0.1501  0.7960
16006TIP3    H269434   2.608   1.194   2.869 -0.3217 -0.4227  0.9228
16007TIP3   OH269435   4.265   2.766   2.862 -0.1740  0.0367 -0.2689
16007TIP3    H169436   4.176   2.757   2.828 -1.4032  1.8826  2.1090
16007TIP3    H269437   4.316   2.699   2.815 -2.5701 -0.4880 -2.3642
16008TIP3   OH269438   4.509   0.963  15.940  0.1185 -0.0685 -0.0448
16008TIP3    H169439   4.593   0.929  15.910  0.1595  0.3089 -0.3537
16008TIP3    H269440   4.511   1.056  15.920 -0.7252 -0.2105 -0.8893
16009TIP3   OH269441   3.983   5.278   5.826 -0.1565  0.2935 -0.0680
16009TIP3    H169442   4.032   5.309   5.902  0.4044  0.3042 -0.4315
16009TIP3    H269443   4.050   5.253   5.762 -0.5767 -1.5433  0.1556
16010TIP3   OH269444   2.259   2.956   3.280 -0.3023  0.0581  0.3091
16010TIP3    H169445   2.350   2.926   3.280  0.7214  2.6315 -2.3129
16010TIP3    H269446   2.223   2.927   3.196 -1.4180  0.3530  0.6603
16011TIP3   OH269447   6.718   2.564   5.205 -0.2146  0.2259  1.0227
16011TIP3    H169448   6.683   2.648   5.232  0.0903  0.3174  1.1377
16011TIP3    H269449   6.660   2.535   5.133  1.0663  1.6444 -0.6735
16012TIP3   OH269450   1.793   6.418  13.199  0.1479 -0.2724 -0.6484
16012TIP3    H169451   1.736   6.412  13.276 -0.0779  0.5881 -0.7321
16012TIP3    H269452   1.770   6.341  13.147  0.0256 -0.6556 -0.0442
16013TIP3   OH269453   4.201   4.436  13.338  0.0690 -0.2883  0.2567
16013TIP3    H169454   4.191   4.395  13.251 -3.0323  1.7649 -0.5361
16013TIP3    H269455   4.289   4.472  13.338 -0.5744  1.7674 -3.1588
16014TIP3   OH269456   4.065   0.569   0.658 -0.2314  0.1894  0.0129
16014TIP3    H169457   4.100   0.658   0.661 -1.1864  0.5611  0.3875
16014TIP3    H269458   3.975   0.579   0.629 -1.7138 -0.1856  3.8982
16015TIP3   OH269459   6.010   4.577  12.524  0.2849 -0.5983 -0.7557
16015TIP3    H169460   6.015   4.656  12.471  0.4261 -0.6376 -0.8022
16015TIP3    H269461   5.928   4.585  12.573 -0.0103 -0.7213 -1.2239
16016TIP3   OH269462   0.300   4.244  13.167 -0.5563 -0.4007  0.1923
16016TIP3    H169463   0.227   4.260  13.227  0.1903  0.6069  0.8544
16016TIP3    H269464   0.377   4.278  13.212  0.2388 -0.8439 -0.7776
16017TIP3   OH269465   4.865   2.589   0.837 -0.2413  0.3198  0.0231
16017TIP3    H169466   4.855   2.518   0.774  0.6816  0.4221 -0.2447
16017TIP3    H269467   4.858   2.546   0.922 -0.5171  0.0398 -0.1364
16018TIP3   OH269468   1.392   0.037   4.644  0.8801  0.1310  0.2716
16018TIP3    H169469   1.333  -0.002   4.579  0.2881  1.5661 -0.0896
16018TIP3    H269470   1.395   0.130   4.621  1.4681  0.4898  1.6981
16019TIP3   OH269471   3.317   1.277  14.820 -0.0535  0.1091 -0.0356
16019TIP3    H169472   3.305   1.318  14.906 -2.0077 -0.6839  0.1253
16019TIP3    H269473   3.252   1.206  14.818  0.4163 -0.3214 -1.9108
16020TIP3   OH269474   0.076   2.218  15.875 -0.4222  0.3095 -0.0548
16020TIP3    H169475   0.101   2.185  15.789 -2.7828 -0.5704 -0.4914
16020TIP3    H269476   0.158   2.245  15.916  0.9838 -1.0640 -1.8240
16021TIP3   OH269477   0.383   0.980   4.292 -0.1826  0.5569 -0.2902
16021TIP3    H169478   0.422   1.065   4.312 -1.4789  0.9706  0.6101
16021TIP3    H269479   0.458   0.923   4.276  0.7019  1.9629 -1.4117
16022TIP3   OH269480   4.779   4.826  11.138 -0.2641 -0.5958  0.4343
16022TIP3    H169481   4.870   4.835  11.109 -0.1719  2.8405  1.3450
16022TIP3    H269482   4.786   4.818  11.233 -0.9027 -0.4517  0.4937
16023TIP3   OH269483   3.060   6.709  14.330 -0.0673 -0.5952  0.1564
16023TIP3    H169484   3.086   6.739  14.417  0.7798 -3.4467  0.9834
16023TIP3    H269485   3.128   6.744  14.272  0.2399  0.0046  0.8531
16024TIP3   OH269486   6.268   0.396  12.918  0.3002  0.2696  0.2795
16024TIP3    H169487   6.329   0.415  12.989 -0.7416  2.0970  0.7765
16024TIP3    H269488   6.184   0.383  12.963  0.2254 -1.8836 -0.4025
16025TIP3   OH269489   5.537   1.818  13.978 -0.4426 -0.6529 -0.3266
16025TIP3    H169490   5.496   1.734  13.998 -0.3986 -0.0025  3.1913
16025TIP3    H269491   5.488   1.851  13.903 -0.5223 -3.6876 -1.7693
16026TIP3   OH269492   0.071   1.775   5.600  0.3283  0.3782  0.3999
16026TIP3    H169493   0.105   1.711   5.537 -0.5920  1.0272 -0.7864
16026TIP3    H269494  -0.015   1.798   5.566 -0.7152 -0.1189  2.5396
16027TIP3   OH269495   5.429   3.715  14.493  0.1622  0.4098  0.2681
16027TIP3    H169496   5.455   3.807  14.487 -1.1964  0.9359  1.6832
16027TIP3    H269497   5.512   3.667  14.501  0.9695  1.3206 -1.8882
16028TIP3   OH269498   0.322   4.067   5.441 -0.3509 -1.1836 -0.4737
16028TIP3    H169499   0.415   4.043   5.445 -0.3841 -1.1742  1.0330
16028TIP3    H269500   0.293   4.035   5.356  0.9332 -1.5831 -0.7880
16029TIP3   OH269501   1.997   3.105  11.527  0.8662 -0.2243  0.3509
16029TIP3    H169502   2.068   3.043  11.544  0.0830 -0.7459  1.9497
16029TIP3    H269503   1.917   3.055  11.546  0.1200  0.6833 -0.3278
16030TIP3   OH269504   6.389   0.427  14.537 -0.3239 -0.5081  0.1637
16030TIP3    H169505   6.398   0.487  14.463 -2.4968 -1.4999 -0.9952
16030TIP3    H269506   6.321   0.466  14.591 -0.4882 -1.0343  0.3405
16031TIP3   OH269507   5.088   5.194   4.990  0.2102  0.0565 -0.6109
16031TIP3    H169508   5.094   5.116   4.934 -1.4809 -0.2175 -0.4452
16031TIP3    H269509   5.178   5.207   5.021  0.5445 -1.8495 -0.6228
16032TIP3   OH269510   4.315   5.580  12.108 -0.1175 -0.6289 -0.5567
16032TIP3    H169511   4.386   5.644  12.108  0.5658 -1.3866 -0.7824
16032TIP3    H269512   4.326   5.531  12.027 -0.5504 -1.1377 -0.3097
16033TIP3   OH269513   0.500   6.107  15.223 -0.0166  0.4617  0.4113
16033TIP3    H169514   0.527   6.181  15.278  0.7474  1.1564 -0.8696
16033TIP3    H269515   0.425   6.140  15.173  0.0349  0.2188  0.1716
16034TIP3   OH269516   2.445   3.908  14.543  0.1022 -0.0879  0.2743
16034TIP3    H169517   2.469   3.975  14.478 -0.0013  0.7046  1.0295
16034TIP3    H269518   2.354   3.928  14.565 -0.0225 -0.6695  0.2858
16035TIP3   OH269519   2.042   3.552   0.989 -0.2221  0.7709 -0.5869
16035TIP3    H169520   2.074   3.485   1.049  0.6758 -0.7613 -2.6149
16035TIP3    H269521   1.947   3.544   0.992 -0.1451 -0.1755 -0.2886
16036TIP3   OH269522   4.791   2.349  17.052 -0.2893  0.4422 -0.0048
16036TIP3    H169523   4.830   2.279  16.999 -0.2496  0.7990 -0.4542
16036TIP3    H269524   4.853   2.422  17.045 -0.3615  0.5439  0.4085
16037TIP3   OH269525   4.631   4.185   6.797  0.1218  0.1045  0.3894
16037TIP3    H169526   4.723   4.159   6.806  0.0884 -0.1460  0.0437
16037TIP3    H269527   4.590   4.112   6.750 -0.2576  0.2084  0.5589
16038TIP3   OH269528   1.130   0.171  11.485  0.3720  0.5408 -0.6294
16038TIP3    H169529   1.193   0.178  11.414  2.0105 -0.3059  0.6489
16038TIP3    H269530   1.117   0.261  11.516  0.3578  0.8013 -1.3781
16039TIP3   OH269531   2.608   0.153  12.748 -0.2163  0.6497 -0.6200
16039TIP3    H169532   2.571   0.204  12.820 -0.4037 -1.6624  1.0510
16039TIP3    H269533   2.540   0.089  12.727  0.4661  0.2894 -1.7982
16040TIP3   OH269534   5.926   5.581  15.553 -0.6799  0.1041 -0.2006
16040TIP3    H169535   5.926   5.569  15.648 -2.0367  0.8306 -0.0782
16040TIP3    H269536   5.908   5.674  15.540  2.1899  0.6317 -1.1780
16041TIP3   OH269537   6.694   0.559   5.646  0.3003 -0.0461 -0.4283
16041TIP3    H169538   6.731   0.603   5.569 -1.6762  3.2829  0.3335
16041TIP3    H269539   6.612   0.520   5.614 -1.3982  2.7760  0.1385
16042TIP3   OH269540   2.347   0.333  11.585  0.2262  0.2527 -0.2263
16042TIP3    H169541   2.332   0.413  11.635  1.6674  0.8638 -0.7253
16042TIP3    H269542   2.433   0.345  11.545 -0.3481 -0.7365 -1.8621
16043TIP3   OH269543   2.819   5.492  14.719  0.0199 -0.1223 -0.0624
16043TIP3    H169544   2.799   5.542  14.640 -0.6254  0.9947  0.7941
16043TIP3    H269545   2.806   5.553  14.791  0.5369 -1.1405  0.9310
16044TIP3   OH269546   2.933   1.109   4.672 -0.3680 -0.0868 -0.3839
16044TIP3    H169547   2.859   1.065   4.631 -0.3528 -1.4031  0.9041
16044TIP3    H269548   3.006   1.047   4.663 -0.1285  0.0036  0.7178
16045TIP3   OH269549   0.665   4.016  12.970 -0.6133 -0.1840 -0.3300
16045TIP3    H169550   0.671   4.102  13.012 -0.6242 -0.2416 -0.2100
16045TIP3    H269551   0.609   3.964  13.028  1.2565 -1.0056  0.8332
16046TIP3   OH269552   4.785   6.113   5.221  0.4744  0.1588  0.4153
16046TIP3    H169553   4.740   6.198   5.224  1.9330  1.1023 -1.7821
16046TIP3    H269554   4.816   6.099   5.310 -0.2323  1.6803  0.9363
16047TIP3   OH269555   3.365   3.116   1.751  0.4651  0.1415  0.6869
16047TIP3    H169556   3.301   3.181   1.721  1.4665  0.0285 -1.9319
16047TIP3    H269557   3.311   3.049   1.794 -0.8441  1.4768  1.2076
16048TIP3   OH269558   5.694   5.845   3.241 -0.2125  0.0796  0.4217
16048TIP3    H169559   5.629   5.876   3.178 -0.1773 -0.0728  0.3097
16048TIP3    H269560   5.732   5.768   3.200  0.0701  0.1920  0.4685
16049TIP3   OH269561   3.672   3.895   3.307 -0.0817  0.6913  0.2732
16049TIP3    H169562   3.609   3.900   3.379 -0.5316  0.6517 -0.1140
16049TIP3    H269563   3.647   3.967   3.249 -1.1961 -0.6805 -1.0237
16050TIP3   OH269564   0.782   0.092   1.201 -0.2250 -0.6060  0.0346
16050TIP3    H169565   0.877   0.102   1.197 -0.3509  0.8258  0.2295
16050TIP3    H269566   0.751   0.128   1.118 -0.5880 -1.4095 -0.1908
16051TIP3   OH269567   4.434   0.622  10.423  0.5000 -0.1842 -0.0569
16051TIP3    H169568   4.354   0.597  10.377  0.5435  0.3595 -0.4357
16051TIP3    H269569   4.438   0.562  10.497  0.1775 -0.7566 -0.4930
16052TIP3   OH269570   1.244   2.696   0.771 -0.4820  0.1784 -0.4519
16052TIP3    H169571   1.210   2.750   0.700  0.3969  0.9918 -0.2732
16052TIP3    H269572   1.328   2.737   0.794 -1.2796  0.6456  1.8510
16053TIP3   OH269573   0.279   4.049  12.295 -0.8229 -0.6299 -0.1144
16053TIP3    H169574   0.288   4.138  12.327 -2.6897  0.3437 -2.0677
16053TIP3    H269575   0.369   4.018  12.283 -0.1312  0.4497  1.8510
16054TIP3   OH269576   6.555   6.564  13.357  0.4357 -0.5053  1.1344
16054TIP3    H169577   6.474   6.514  13.350  0.8752 -1.1315  0.2412
16054TIP3    H269578   6.529   6.654  13.334  0.1783 -0.9132 -0.3229
16055TIP3   OH269579   3.167   6.622  11.992 -0.6977  0.3153 -0.6581
16055TIP3    H169580   3.111   6.666  12.056 -0.2253  0.8644 -0.6187
16055TIP3    H269581   3.246   6.675  11.989 -1.0444  0.7915 -2.3365
16056TIP3   OH269582   0.541   4.837  17.330  0.2211  0.2991 -0.1100
16056TIP3    H169583   0.550   4.931  17.312  1.8040  0.9356  3.0936
16056TIP3    H269584   0.563   4.829  17.423 -0.1258 -3.2477 -0.1988
16057TIP3   OH269585   2.972   0.868  16.099 -0.4211 -0.2851  0.4457
16057TIP3    H169586   3.011   0.943  16.055 -0.6028 -0.8129 -0.6283
16057TIP3    H269587   3.041   0.836  16.157 -0.6730  1.3133  1.7038
16058TIP3   OH269588   5.026   3.363   5.633 -0.2592  0.6483  0.4028
16058TIP3    H169589   4.971   3.428   5.591 -2.6439 -1.6683 -0.3281
16058TIP3    H269590   5.051   3.303   5.562 -0.5343 -0.8067  1.4836
16059TIP3   OH269591   0.002   1.371   0.050 -1.2255  0.2908 -0.3041
16059TIP3    H169592   0.021   1.446   0.106  2.4283  1.4663 -2.8257
16059TIP3    H269593  -0.079   1.395   0.004 -1.4880  1.5037  0.7383
16060TIP3   OH269594   0.513   4.835   2.457  0.0199 -0.2834  0.1954
16060TIP3    H169595   0.482   4.911   2.407  2.3521  0.9872  0.5632
16060TIP3    H269596   0.578   4.794   2.401  0.0885 -0.9618  0.7528
16061TIP3   OH269597   2.855   2.096  11.997 -0.2587  0.9395 -0.3435
16061TIP3    H169598   2.877   2.182  12.031  0.6065 -0.1092  1.9413
16061TIP3    H269599   2.888   2.035  12.063 -1.7296 -1.1142 -1.3974
16062TIP3   OH269600   5.371   4.264   1.042 -0.2378  0.0519 -0.6850
16062TIP3    H169601   5.456   4.226   1.063  0.4104  1.6567 -0.2680
16062TIP3    H269602   5.319   4.251   1.121  0.9578  2.6298  0.6367
16063TIP3   OH269603   6.411   1.964  13.655 -0.2447  0.0533  0.8465
16063TIP3    H169604   6.363   1.893  13.697  1.7244 -1.9712 -0.1053
16063TIP3    H269605   6.432   2.025  13.725 -1.7498 -0.4220  1.7431
16064TIP3   OH269606   3.623   0.860   3.201 -0.2377 -0.4625 -0.4263
16064TIP3    H169607   3.562   0.830   3.133 -1.9042  0.0834  0.7711
16064TIP3    H269608   3.709   0.853   3.160 -1.1753 -0.1284 -2.6044
16065TIP3   OH269609   5.968   4.480  10.994  0.6472 -0.1212  0.1747
16065TIP3    H169610   6.034   4.431  10.945  2.2935  1.8854  0.2646
16065TIP3    H269611   5.936   4.546  10.932 -0.1879 -0.0832  0.6226
16066TIP3   OH269612   5.635   1.550   0.191  0.4833 -0.2908  0.7815
16066TIP3    H169613   5.661   1.525   0.102 -0.2594 -0.5789  0.6364
16066TIP3    H269614   5.717   1.570   0.235  0.8486  0.1685 -0.0640
16067TIP3   OH269615   5.579   6.246   3.395 -0.3610 -0.2278  0.5887
16067TIP3    H169616   5.667   6.210   3.404 -0.3666 -0.4001 -0.0451
16067TIP3    H269617   5.561   6.285   3.481  0.1367 -0.6200  0.8759
16068TIP3   OH269618   0.015   2.781  16.887 -0.2214  0.0794 -0.0771
16068TIP3    H169619   0.051   2.847  16.827 -1.7576  1.2121  0.2029
16068TIP3    H269620   0.061   2.796  16.970 -1.7875  2.0383  0.5075
16069TIP3   OH269621   0.382   1.812   4.700 -0.1608 -0.8160  0.1764
16069TIP3    H169622   0.295   1.850   4.685 -0.2899 -2.0382 -2.7105
16069TIP3    H269623   0.386   1.736   4.642  2.9611 -0.6086 -0.0716
16070TIP3   OH269624   0.892   6.287  12.909 -0.0288 -0.0867  0.5168
16070TIP3    H169625   0.950   6.334  12.969 -0.7266  0.8131  0.5072
16070TIP3    H269626   0.850   6.220  12.962  1.3426 -1.0523  0.4261
16071TIP3   OH269627   0.386   5.063  14.660  0.3065 -0.0094 -0.0978
16071TIP3    H169628   0.380   5.141  14.714 -0.4546  0.2874 -0.6001
16071TIP3    H269629   0.438   5.090  14.584 -0.3103  0.1451 -0.4783
16072TIP3   OH269630   1.475   5.220   3.363  0.1763  0.1968  0.1174
16072TIP3    H169631   1.458   5.149   3.425 -0.4002 -1.4440 -1.7957
16072TIP3    H269632   1.570   5.231   3.364  0.2958 -0.7861  0.2702
16073TIP3   OH269633   4.867   1.135   2.205  0.4083 -0.0458 -0.2221
16073TIP3    H169634   4.836   1.078   2.135 -0.2071 -0.5272  0.4353
16073TIP3    H269635   4.958   1.154   2.181  0.4842 -0.9348 -0.6834
16074TIP3   OH269636   4.770   0.499  12.649 -0.6520  0.0951  0.0116
16074TIP3    H169637   4.690   0.482  12.699  0.6878  1.2809  2.6985
16074TIP3    H269638   4.820   0.418  12.657 -1.3641 -0.5272 -1.3961
16075TIP3   OH269639   2.378   4.380  13.621  0.5931 -0.3040 -0.2246
16075TIP3    H169640   2.403   4.472  13.611  0.8566 -0.4538 -1.0259
16075TIP3    H269641   2.461   4.332  13.617  0.2813 -0.7361 -2.0167
16076TIP3   OH269642   2.305   3.125   5.197  0.0006  0.1303  0.0010
16076TIP3    H169643   2.227   3.086   5.236 -0.5848  1.9752  0.7635
16076TIP3    H269644   2.294   3.112   5.103 -2.6115  2.6238 -0.1839
16077TIP3   OH269645   1.031   2.818   2.509 -0.3430  0.1589 -0.1192
16077TIP3    H169646   1.023   2.866   2.426  1.4605 -0.5282 -0.7327
16077TIP3    H269647   0.983   2.737   2.494  0.1167 -0.0386 -0.5812
16078TIP3   OH269648   1.304   2.909  14.684  0.0999 -0.0325 -0.4619
16078TIP3    H169649   1.312   2.818  14.655 -0.1276 -0.2878  0.2376
16078TIP3    H269650   1.229   2.943  14.635 -1.7364 -1.1424  1.4096
16079TIP3   OH269651   2.514   4.955  12.983  0.0109 -1.0411  0.3856
16079TIP3    H169652   2.488   4.958  12.891  2.8159 -0.2117 -0.4806
16079TIP3    H269653   2.574   4.881  12.989  1.1913 -0.0854  1.0926
16080TIP3   OH269654   1.440   5.021   0.815 -0.4339  0.0578 -0.1039
16080TIP3    H169655   1.520   5.019   0.868 -0.9951 -1.5465  0.7598
16080TIP3    H269656   1.429   4.930   0.785 -0.1928  0.8815 -2.9735
16081TIP3   OH269657   5.547   5.346  14.905 -0.0160 -0.0558 -0.2235
16081TIP3    H169658   5.559   5.417  14.969  1.3933 -0.5270  0.0775
16081TIP3    H269659   5.457   5.315  14.920  0.1051  0.2055  1.1653
16082TIP3   OH269660   6.667   6.384   6.293 -0.7030  0.3028 -0.4893
16082TIP3    H169661   6.737   6.418   6.238  0.4295  0.2882  0.8753
16082TIP3    H269662   6.708   6.313   6.343 -2.0349 -0.5592 -0.5746
16083TIP3   OH269663   1.072   6.093  13.468 -0.2093  0.3800  0.0643
16083TIP3    H169664   1.082   6.049  13.552  0.6048  0.1849 -0.1345
16083TIP3    H269665   1.001   6.044  13.425 -0.0930 -0.0144  0.3118
16084TIP3   OH269666   4.797   0.161   4.839 -0.0067  0.4008 -0.1780
16084TIP3    H169667   4.856   0.236   4.837 -0.8487  1.0829 -0.2505
16084TIP3    H269668   4.829   0.107   4.911 -0.1464  1.4742  0.7174
16085TIP3   OH269669   0.877   1.595  14.658 -0.1912 -0.3238  0.3768
16085TIP3    H169670   0.959   1.552  14.684  0.2626  0.2971 -0.0007
16085TIP3    H269671   0.826   1.525  14.617  1.0023 -0.3145 -1.2738
16086TIP3   OH269672   6.674   5.548  16.032 -0.5483  0.2031 -0.7453
16086TIP3    H169673   6.686   5.563  16.125  0.9195 -2.2630 -0.4383
16086TIP3    H269674   6.737   5.607  15.990 -0.3257  0.4144 -0.1238
16087TIP3   OH269675   6.525   4.715   4.062 -0.3949 -0.4190  0.1797
16087TIP3    H169676   6.589   4.742   4.127 -0.1794  0.7362 -0.4858
16087TIP3    H269677   6.440   4.741   4.098 -0.4457 -1.3398  0.7569
16088TIP3   OH269678   6.382   4.696  13.416 -0.2460  0.3079  0.3687
16088TIP3    H169679   6.308   4.728  13.467  0.9384  3.2898  0.3806
16088TIP3    H269680   6.353   4.703  13.325 -0.0263  1.4752  0.3719
16089TIP3   OH269681   6.433   6.095  11.805 -0.2799 -0.6208 -0.2621
16089TIP3    H169682   6.500   6.144  11.757 -0.1903 -1.4599 -1.0099
16089TIP3    H269683   6.351   6.117  11.761 -0.3199 -0.6439 -0.1993
16090TIP3   OH269684   5.185   3.616   2.348 -0.0335 -0.1874 -0.3808
16090TIP3    H169685   5.141   3.593   2.430  0.4306  0.0047 -0.0752
16090TIP3    H269686   5.213   3.531   2.311  0.7436 -0.2065  0.2211
16091TIP3   OH269687   2.539   4.763   3.803  0.1088 -0.0068 -0.2408
16091TIP3    H169688   2.475   4.691   3.797 -1.2311  0.8247  2.4234
16091TIP3    H269689   2.534   4.791   3.895  1.8003  2.4157 -0.8104
16092TIP3   OH269690   6.221   5.224   5.507 -0.7588 -0.6768  0.3608
16092TIP3    H169691   6.176   5.300   5.543  2.2829  0.8942  1.1923
16092TIP3    H269692   6.189   5.217   5.417 -1.1983  1.5521  0.3025
16093TIP3   OH269693   1.501   4.049   4.627 -0.1847  0.7227  0.0198
16093TIP3    H169694   1.568   4.006   4.680 -0.6377 -0.0946 -0.0650
16093TIP3    H269695   1.519   4.021   4.538 -0.3341  0.9054 -0.0694
16094TIP3   OH269696   3.988   1.688   0.088  0.1117  0.1493 -0.2452
16094TIP3    H169697   4.021   1.685   0.177 -1.3639  1.2809  0.3797
16094TIP3    H269698   3.947   1.602   0.075  0.0631  0.0911  0.2871
16095TIP3   OH269699   5.577   0.926  15.103  0.2737 -0.2384 -0.4939
16095TIP3    H169700   5.515   0.854  15.087 -0.0555 -0.8118  2.7272
16095TIP3    H269701   5.625   0.934  15.021 -2.2779 -1.5256 -2.2772
16096TIP3   OH269702   3.472   4.085  15.270  0.1063  0.2598 -0.0624
16096TIP3    H169703   3.440   4.115  15.185  0.3384  1.1463  0.1571
16096TIP3    H269704   3.561   4.054  15.253  0.0792  0.2490 -0.1828
16097TIP3   OH269705   1.815   0.228   3.940 -0.0426 -0.1663  0.1270
16097TIP3    H169706   1.837   0.315   3.976  0.2839 -0.4012  0.5034
16097TIP3    H269707   1.769   0.247   3.858 -4.3405  0.5170  2.4131
16098TIP3   OH269708   2.951   2.287   1.018 -0.0505 -0.8153 -0.2329
16098TIP3    H169709   3.010   2.358   1.046 -1.4097  2.1117 -3.9145
16098TIP3    H269710   3.003   2.236   0.956 -0.1903 -0.6027 -0.5311
16099TIP3   OH269711   4.435   1.901   4.649 -0.3034 -0.0279  0.1766
16099TIP3    H169712   4.402   1.966   4.587 -0.7025  2.0359  2.3958
16099TIP3    H269713   4.356   1.863   4.689 -0.1022  1.3122  1.9515
16100TIP3   OH269714   4.813   0.039   0.623  0.3455 -0.1125  0.5408
16100TIP3    H169715   4.816  -0.057   0.621  0.6036 -0.0940 -0.1257
16100TIP3    H269716   4.750   0.062   0.555 -0.6899  0.1567  1.5635
16101TIP3   OH269717   6.483   4.149  12.362  0.1959 -0.3365 -0.2981
16101TIP3    H169718   6.579   4.140  12.363  0.6470  3.0447 -1.6357
16101TIP3    H269719   6.460   4.163  12.454  1.5063  2.1578 -0.2675
16102TIP3   OH269720   2.029   2.172   4.822 -0.6337  0.3359 -0.2867
16102TIP3    H169721   1.994   2.256   4.852  1.9687  0.4059  3.1194
16102TIP3    H269722   2.116   2.192   4.789 -0.6354 -0.8364 -1.0742
16103TIP3   OH269723   3.503   4.520   1.385 -0.3093 -0.0864  0.3363
16103TIP3    H169724   3.424   4.481   1.346 -0.4489 -0.9861  1.4655
16103TIP3    H269725   3.575   4.486   1.332 -0.5326 -0.8914  0.5367
16104TIP3   OH269726   2.118   2.855   1.671  0.4595  0.3545 -0.7041
16104TIP3    H169727   2.081   2.929   1.719  2.4472  0.3216  1.0546
16104TIP3    H269728   2.060   2.782   1.692  0.5201  0.6513  0.6261
16105TIP3   OH269729   6.436   2.534   6.087 -0.6660  0.0091 -0.4163
16105TIP3    H169730   6.473   2.454   6.123  0.9202  0.2021 -1.5078
16105TIP3    H269731   6.369   2.561   6.150  2.1645  0.5557  2.5692
16106TIP3   OH269732   5.760   5.055   6.556  0.4555 -0.1426 -0.3510
16106TIP3    H169733   5.816   4.978   6.557  0.6719 -0.1058  3.3152
16106TIP3    H269734   5.672   5.020   6.543  0.6931 -0.8748 -0.0653
16107TIP3   OH269735   4.714   5.132  15.289 -0.0063  0.2861 -0.7949
16107TIP3    H169736   4.703   5.080  15.368 -0.1605 -0.1767 -1.1169
16107TIP3    H269737   4.727   5.221  15.321  1.7673 -0.1513 -0.1588
16108TIP3   OH269738   2.062   6.479   0.252  0.0632  0.2458 -0.2966
16108TIP3    H169739   1.997   6.466   0.321 -1.4836  0.7050 -1.5917
16108TIP3    H269740   2.121   6.545   0.287 -0.2617 -0.0369  0.8443
16109TIP3   OH269741   5.306   6.382   4.528 -0.1620  0.1133 -0.3224
16109TIP3    H169742   5.388   6.406   4.572 -0.0546 -0.7041 -0.0511
16109TIP3    H269743   5.327   6.382   4.435  0.1301 -0.0297 -0.2572
16110TIP3   OH269744   3.053   2.758  17.063 -0.0949 -0.2909 -0.0838
16110TIP3    H169745   3.073   2.849  17.083 -0.7571 -0.2616  0.4720
16110TIP3    H269746   3.021   2.721  17.145  0.8196 -1.2161 -0.1308
16111TIP3   OH269747   4.928   1.999   0.589 -0.6127 -0.5568 -0.3319
16111TIP3    H169748   4.950   2.091   0.574  0.0118 -0.9996 -2.4586
16111TIP3    H269749   4.836   1.992   0.562 -1.1738 -0.2642  1.3804
16112TIP3   OH269750   5.546   5.204  15.594 -0.0436 -0.3965  0.0259
16112TIP3    H169751   5.622   5.256  15.569 -0.2719  0.3915  0.8852
16112TIP3    H269752   5.501   5.186  15.511  0.5117  0.0277 -0.3760
16113TIP3   OH269753   6.086   0.684   5.488  0.1662 -0.3107 -0.0627
16113TIP3    H169754   6.163   0.645   5.446 -0.4571 -0.7655 -0.8018
16113TIP3    H269755   6.121   0.726   5.567  0.9335 -2.0334  0.5796
16114TIP3   OH269756   4.837   0.117   5.480 -0.1563  0.1167 -0.1282
16114TIP3    H169757   4.801   0.162   5.404 -1.2056 -2.2859 -1.1714
16114TIP3    H269758   4.773   0.048   5.499  1.5160 -1.1694  1.1070
16115TIP3   OH269759   5.682   4.885   4.463  0.5123  0.4678 -0.1996
16115TIP3    H169760   5.637   4.857   4.542 -0.9214 -0.0991 -1.1789
16115TIP3    H269761   5.734   4.961   4.490  0.5346 -0.0925  1.3975
16116TIP3   OH269762   2.218   1.419   4.764 -0.3311  0.4322 -0.3900
16116TIP3    H169763   2.136   1.395   4.807  0.3179 -0.1801  0.5531
16116TIP3    H269764   2.200   1.502   4.720 -1.8062 -0.3105 -1.2487
16117TIP3   OH269765   0.594   6.062   3.297 -0.5510  0.3670 -0.2557
16117TIP3    H169766   0.529   6.102   3.354  1.5681  2.9020  0.5656
16117TIP3    H269767   0.630   5.989   3.349 -0.1083  1.3531  0.8648
16118TIP3   OH269768   1.275   5.048   4.803 -0.2450  0.3841 -0.0423
16118TIP3    H169769   1.209   5.117   4.797 -0.1717  0.3519 -1.5429
16118TIP3    H269770   1.234   4.981   4.858  0.0495  1.9688  2.2711
16119TIP3   OH269771   1.574   2.974  16.976  0.5424 -0.7363 -0.3970
16119TIP3    H169772   1.647   3.036  16.970 -0.4102  0.4332 -0.2382
16119TIP3    H269773   1.615   2.888  16.972  1.9476 -0.1023 -0.0973
16120TIP3   OH269774   3.185   0.537   1.762  0.0636 -0.1774 -0.0313
16120TIP3    H169775   3.253   0.474   1.737  1.2340  0.9425  0.2490
16120TIP3    H269776   3.113   0.482   1.794  1.0137 -1.3741  0.1403
16121TIP3   OH269777   6.515   0.519  11.819 -0.6715  0.2946 -0.5124
16121TIP3    H169778   6.422   0.541  11.823 -1.2954 -2.0976  3.1733
16121TIP3    H269779   6.558   0.603  11.803 -3.3734  1.7081 -1.0105
16122TIP3   OH269780   5.223   0.379   3.269 -0.2983  0.0688 -0.0066
16122TIP3    H169781   5.217   0.459   3.322 -0.6933  0.3731 -0.5029
16122TIP3    H269782   5.234   0.309   3.333  0.7445  0.5919  0.4011
16123TIP3   OH269783   2.655   2.571   5.863  0.2866  0.5122 -0.6838
16123TIP3    H169784   2.621   2.658   5.841  0.7171  0.8010 -0.2315
16123TIP3    H269785   2.585   2.510   5.838 -0.6789  1.1036  0.4572
16124TIP3   OH269786   6.027   1.739   4.440  0.0218  0.1758 -0.3523
16124TIP3    H169787   6.051   1.651   4.413 -4.2373 -1.0488 -0.9187
16124TIP3    H269788   6.063   1.748   4.528 -2.9734 -4.0693  1.6648
16125TIP3   OH269789   3.570   1.369  13.688  0.7399  0.4514  0.2992
16125TIP3    H169790   3.536   1.448  13.729 -1.3461 -0.2741  0.0823
16125TIP3    H269791   3.590   1.395  13.598  0.7060  0.8907  0.4183
16126TIP3   OH269792   0.688   1.145   5.467 -0.2613 -0.0871  0.5987
16126TIP3    H169793   0.761   1.200   5.439  0.4554 -1.8364 -1.2440
16126TIP3    H269794   0.714   1.110   5.552 -0.8004  2.4156  1.8856
16127TIP3   OH269795   2.640   3.879  15.992  0.0555 -0.5247 -0.7270
16127TIP3    H169796   2.615   3.970  16.009 -2.3638 -1.2798  0.2239
16127TIP3    H269797   2.623   3.867  15.899 -0.8425 -0.3336 -0.5962
16128TIP3   OH269798   3.230   3.857  17.158  0.2284  0.1499 -0.2817
16128TIP3    H169799   3.169   3.883  17.089  0.1261  1.7218  0.3702
16128TIP3    H269800   3.175   3.812  17.222  0.0177  0.2247 -0.4083
16129TIP3   OH269801   5.692   0.057   0.839  0.5534  0.8961 -0.4469
16129TIP3    H169802   5.729  -0.012   0.893  1.3756 -0.1058 -2.2063
16129TIP3    H269803   5.597   0.044   0.846  0.4120  2.6501  3.0156
16130TIP3   OH269804   1.076   3.214   0.961  0.4995  0.1939  0.5834
16130TIP3    H169805   0.996   3.265   0.952  1.3881  1.6479  0.4624
16130TIP3    H269806   1.060   3.155   1.034  0.5171  2.9514  2.9939
16131TIP3   OH269807   3.160   2.227  12.515 -0.7158  0.1513 -0.2755
16131TIP3    H169808   3.163   2.135  12.541 -0.3581 -0.3570 -2.0096
16131TIP3    H269809   3.078   2.237  12.469 -0.8239  0.7566  0.0336
16132TIP3   OH269810   5.744   4.021   3.026 -0.4800 -0.0644 -0.4549
16132TIP3    H169811   5.661   3.975   3.037 -1.4621  1.8239  0.6944
16132TIP3    H269812   5.792   4.002   3.107 -0.7263  0.5470 -0.1524
16133TIP3   OH269813   0.643   0.665  17.291 -0.2536  0.4212  0.0067
16133TIP3    H169814   0.648   0.587  17.347  0.2606 -0.8398 -1.7050
16133TIP3    H269815   0.734   0.687  17.272 -0.4312  0.2430 -1.0846
16134TIP3   OH269816   0.179   2.837   2.800 -0.8241  0.4119 -0.5085
16134TIP3    H169817   0.096   2.806   2.762 -0.3908 -1.0665 -0.3146
16134TIP3    H269818   0.178   2.802   2.889  1.4470 -2.5888 -1.4878
16135TIP3   OH269819   2.490   0.098   5.159 -0.3126 -0.0483 -0.2346
16135TIP3    H169820   2.476   0.087   5.253 -0.7108 -1.9393 -0.4859
16135TIP3    H269821   2.419   0.049   5.118 -0.5403  1.3159 -1.5400
16136TIP3   OH269822   1.427   2.494   6.592 -0.0398 -0.4411  0.3002
16136TIP3    H169823   1.360   2.427   6.579 -1.2229  0.7654 -0.0630
16136TIP3    H269824   1.378   2.576   6.602  1.3280  0.2828  1.4672
16137TIP3   OH269825   4.623   0.709  13.523  0.1937 -0.2052 -0.3803
16137TIP3    H169826   4.671   0.714  13.441 -1.5540  0.5895 -1.4147
16137TIP3    H269827   4.584   0.622  13.524  1.2253 -0.6680  0.2187
16138TIP3   OH269828   6.164   5.161  11.933 -0.6244  0.1361 -0.4245
16138TIP3    H169829   6.241   5.103  11.933 -0.0479  0.8614  0.6799
16138TIP3    H269830   6.117   5.136  12.013 -1.5095 -0.2429 -1.0520
16139TIP3   OH269831   2.441   5.866   2.400 -0.6417  0.1197 -0.1471
16139TIP3    H169832   2.458   5.925   2.474  0.7127 -0.9702  0.4657
16139TIP3    H269833   2.526   5.824   2.384 -1.5195 -1.5334 -0.6580
16140TIP3   OH269834   0.278   1.973  15.540  0.3360 -0.1268  0.1470
16140TIP3    H169835   0.307   1.882  15.542  0.3078 -0.1609 -0.4913
16140TIP3    H269836   0.216   1.981  15.612 -0.6909 -0.9823 -0.6015
16141TIP3   OH269837   5.586   2.124  16.700  0.3386 -0.1569 -0.0014
16141TIP3    H169838   5.559   2.063  16.768  0.8372  0.4884  0.7835
16141TIP3    H269839   5.523   2.196  16.706 -0.7199 -0.8987 -1.4284
16142TIP3   OH269840   3.643   4.851  14.793 -0.4197 -0.2169 -0.1712
16142TIP3    H169841   3.610   4.762  14.785 -2.9351  0.4277  1.7148
16142TIP3    H269842   3.573   4.906  14.759 -0.0918  1.1466  1.2436
16143TIP3   OH269843   4.655   2.397   0.779 -0.2741  0.5041  0.1714
16143TIP3    H169844   4.641   2.476   0.832 -1.1797 -1.3079  2.8766
16143TIP3    H269845   4.567   2.366   0.759  0.0127 -1.0695  1.2197
16144TIP3   OH269846   1.788   6.245   1.305  0.7425  0.0832 -0.2191
16144TIP3    H169847   1.809   6.193   1.228  0.2371  1.4229 -1.2978
16144TIP3    H269848   1.827   6.197   1.378  0.4774 -1.6726 -1.1829
16145TIP3   OH269849   1.308   2.468  13.389 -0.2934 -0.1814  0.3708
16145TIP3    H169850   1.394   2.464  13.433 -0.2748  0.0517  0.3562
16145TIP3    H269851   1.286   2.561  13.388  0.0523 -0.0990 -0.7785
16146TIP3   OH269852   2.807   5.989  16.435  0.0316 -0.1016 -0.1610
16146TIP3    H169853   2.837   5.968  16.346 -2.3922 -0.8641 -0.8743
16146TIP3    H269854   2.817   6.084  16.442  2.6474 -0.2943 -0.2410
16147TIP3   OH269855   4.036   6.651  13.586 -0.1382  0.1502  0.3869
16147TIP3    H169856   4.036   6.747  13.589  2.2812  0.2666 -0.9179
16147TIP3    H269857   4.127   6.627  13.604 -0.6621 -1.9052  0.4723
16148TIP3   OH269858   0.241   0.915  11.743  0.1941 -0.1198  0.0989
16148TIP3    H169859   0.176   0.870  11.690 -0.2766  0.7296 -0.0700
16148TIP3    H269860   0.193   0.942  11.821 -0.2388  2.3123 -0.9201
16149TIP3   OH269861   2.925   3.369   1.144  0.6575 -0.0159  0.3805
16149TIP3    H169862   3.020   3.364   1.159  0.9129 -1.0021 -1.3007
16149TIP3    H269863   2.917   3.406   1.056 -0.5451  0.1741  0.5573
16150TIP3   OH269864   2.073   2.291   0.655 -0.8526 -0.0417 -0.5038
16150TIP3    H169865   2.144   2.232   0.633 -0.6075 -0.1592  0.5158
16150TIP3    H269866   2.112   2.378   0.654 -0.1646 -0.2449  1.8535
16151TIP3   OH269867   5.782   2.844   1.020  1.0208 -0.7190  0.3757
16151TIP3    H169868   5.820   2.886   0.943  0.3597  0.6162  0.7501
16151TIP3    H269869   5.814   2.896   1.094  0.1721 -0.8641  0.8531
16152TIP3   OH269870   3.752   4.643   2.913  0.3133  0.4085  0.1808
16152TIP3    H169871   3.800   4.715   2.872 -2.0518  2.7769  1.2033
16152TIP3    H269872   3.660   4.665   2.897 -0.5404 -1.6686  1.7942
16153TIP3   OH269873   3.934   5.402  13.311 -0.6685 -0.4610  0.0614
16153TIP3    H169874   4.020   5.403  13.354 -0.5280 -1.9741 -0.1251
16153TIP3    H269875   3.877   5.357  13.373 -0.9990 -0.6532 -0.3777
16154TIP3   OH269876   2.492   0.879   2.699  0.0139 -0.0392  0.4247
16154TIP3    H169877   2.405   0.840   2.710  0.3718 -0.4119  2.2747
16154TIP3    H269878   2.545   0.809   2.661 -0.6182  0.4080 -1.3926
16155TIP3   OH269879   2.932   0.326  14.379 -0.4992 -0.4326  0.6802
16155TIP3    H169880   2.899   0.237  14.364  0.1742 -0.6779  0.6363
16155TIP3    H269881   2.858   0.372  14.419 -1.1850 -0.7343 -0.1882
16156TIP3   OH269882   2.835   5.697   5.375  0.2220  0.1338  0.1619
16156TIP3    H169883   2.824   5.769   5.313  2.8015  0.2929 -0.2188
16156TIP3    H269884   2.900   5.729   5.438  0.1154 -1.2347  1.0125
16157TIP3   OH269885   5.930   0.122  11.983 -0.6387  0.6513  0.0867
16157TIP3    H169886   5.991   0.054  12.010 -1.5889  1.1142  3.9869
16157TIP3    H269887   5.853   0.074  11.951  0.3365  0.0540 -1.4999
16158TIP3   OH269888   2.428   2.290   0.956  0.0351 -0.0086  0.4481
16158TIP3    H169889   2.511   2.321   0.993  0.2129  1.0433 -0.7328
16158TIP3    H269890   2.453   2.240   0.879 -0.4134  0.0125  0.2840
16159TIP3   OH269891   0.088   2.091   0.425 -0.0239 -0.2711 -0.0369
16159TIP3    H169892   0.031   2.163   0.452  0.3172 -0.1740  0.4486
16159TIP3    H269893   0.042   2.049   0.352  0.4994  1.3741 -1.3633
16160TIP3   OH269894   5.603   6.658   0.494  0.1476 -0.1656  0.2009
16160TIP3    H169895   5.524   6.635   0.446  1.6896 -3.1084 -1.2146
16160TIP3    H269896   5.604   6.753   0.495 -2.7086 -0.0343 -0.8505
16161TIP3   OH269897   3.628   5.142  16.180  0.1303 -0.0465 -0.0221
16161TIP3    H169898   3.585   5.212  16.131  0.4613  0.4491  0.3953
16161TIP3    H269899   3.570   5.066  16.168 -0.5510  0.4509  0.0338
16162TIP3   OH269900   5.806   3.032   0.467 -0.0113  0.2539  0.4958
16162TIP3    H169901   5.752   3.066   0.538 -2.2016  0.3815 -1.1475
16162TIP3    H269902   5.866   2.971   0.510 -0.5211  1.1432  2.5800
16163TIP3   OH269903   5.332   0.644   1.698 -0.0711 -0.5638  0.2083
16163TIP3    H169904   5.403   0.618   1.639 -0.9972 -0.9232 -0.7999
16163TIP3    H269905   5.252   0.621   1.650 -0.8699 -0.3109  1.3716
16164TIP3   OH269906   0.174   5.155  15.706 -0.0640  0.5149 -0.5005
16164TIP3    H169907   0.104   5.216  15.685 -0.4096 -0.2990 -1.8239
16164TIP3    H269908   0.252   5.193  15.665 -0.0763  0.5691 -0.4732
16165TIP3   OH269909   4.205   4.742   2.142  0.1690 -0.0046  0.6237
16165TIP3    H169910   4.291   4.776   2.170  0.2281 -1.5551  2.4928
16165TIP3    H269911   4.225   4.663   2.093 -0.1705 -0.2310  0.8448
16166TIP3   OH269912   3.579   4.830   0.600  0.2770 -0.4215  0.4893
16166TIP3    H169913   3.512   4.856   0.537 -0.0545 -1.7490  0.2578
16166TIP3    H269914   3.662   4.840   0.552  0.2293  0.7543  0.6159
16167TIP3   OH269915   6.616   6.218   2.855  0.0000  0.5255 -0.5362
16167TIP3    H169916   6.662   6.181   2.779 -0.1900  0.5547 -0.6646
16167TIP3    H269917   6.631   6.313   2.848 -0.3337  0.5637 -0.7450
16168TIP3   OH269918   5.787   1.089  16.386 -0.0537  0.8113  0.3768
16168TIP3    H169919   5.787   1.122  16.296 -0.5917 -2.0456 -0.7889
16168TIP3    H269920   5.695   1.097  16.414 -0.0301  1.0206  0.3938
16169TIP3   OH269921   4.512   2.618   0.013  0.2718 -0.1460  0.3600
16169TIP3    H169922   4.508   2.709  -0.016  1.8636 -0.3161 -0.5228
16169TIP3    H269923   4.420   2.593   0.026 -0.1722  1.7762  1.3550
16170TIP3   OH269924   0.646   1.430   1.263 -0.4300  0.4933  0.7601
16170TIP3    H169925   0.565   1.378   1.266 -0.3003 -0.4204 -4.0398
16170TIP3    H269926   0.715   1.367   1.242  0.3844  1.9737 -1.3963
16171TIP3   OH269927   6.298   5.316   1.942 -0.4415  0.1066 -0.1749
16171TIP3    H169928   6.360   5.243   1.951 -0.2395  0.2485 -0.3988
16171TIP3    H269929   6.325   5.379   2.009 -0.8738 -0.2060  0.2941
16172TIP3   OH269930   5.209   6.329   3.962  0.0029 -0.2143  0.5273
16172TIP3    H169931   5.268   6.325   4.037  1.2801  1.4792 -0.3283
16172TIP3    H269932   5.266   6.345   3.886 -1.2247 -2.0508 -0.8788
16173TIP3   OH269933   0.358   6.521  13.120  0.3315 -0.2150 -0.8977
16173TIP3    H169934   0.362   6.496  13.028  0.4519  2.2330 -1.6467
16173TIP3    H269935   0.270   6.496  13.148  0.0983 -0.4738 -1.8478
16174TIP3   OH269936   4.895   4.694   1.987 -0.2852 -0.0357 -0.0492
16174TIP3    H169937   4.808   4.691   2.027 -1.0305  0.4897 -1.5519
16174TIP3    H269938   4.878   4.706   1.893  1.3945 -0.7467 -0.4881
16175TIP3   OH269939   0.573   5.041   5.060  0.5069 -0.1781  0.0510
16175TIP3    H169940   0.610   5.088   4.985 -0.8024  0.6310 -0.1358
16175TIP3    H269941   0.489   5.085   5.076  0.4658 -0.7532  1.5884
16176TIP3   OH269942   5.685   0.685   1.857 -0.4580 -0.0881 -0.3996
16176TIP3    H169943   5.637   0.611   1.896 -1.5028 -0.0558 -1.5496
16176TIP3    H269944   5.749   0.644   1.799 -1.0174 -0.1086 -1.0147
16177TIP3   OH269945   3.389   3.453   6.221  0.0447 -0.6504 -0.5801
16177TIP3    H169946   3.417   3.500   6.143 -1.1265  1.5683  0.2496
16177TIP3    H269947   3.297   3.433   6.206  0.2529 -1.7606 -0.4579
16178TIP3   OH269948   1.761   1.892  17.215  0.1084  0.0051  0.1629
16178TIP3    H169949   1.666   1.879  17.208  0.1720 -1.2554  1.2049
16178TIP3    H269950   1.780   1.964  17.156 -1.2597 -0.8275 -1.3598
16179TIP3   OH269951   4.783   2.524  14.599  0.4710  1.1557 -0.8678
16179TIP3    H169952   4.789   2.601  14.655  0.6754  0.3684  0.2298
16179TIP3    H269953   4.866   2.478  14.614 -0.3083 -0.0865 -0.2895
16180TIP3   OH269954   0.851   1.920   1.806  0.7555 -0.4827  0.0657
16180TIP3    H169955   0.826   1.828   1.808 -1.2167 -0.0186 -0.9391
16180TIP3    H269956   0.898   1.931   1.723  0.8223 -0.5372  0.0962
16181TIP3   OH269957   4.823   1.865  14.908 -0.0363 -0.2062 -0.7669
16181TIP3    H169958   4.903   1.911  14.933 -0.0715  0.4005 -1.7137
16181TIP3    H269959   4.852   1.799  14.845  0.1112 -1.9847  1.0640
16182TIP3   OH269960   3.970   3.419   4.032  0.5102  0.0277 -0.5912
16182TIP3    H169961   3.906   3.444   3.966  0.1632 -0.8104 -0.5861
16182TIP3    H269962   4.028   3.495   4.040 -0.3853  0.7320 -0.7099
16183TIP3   OH269963   3.719   5.955   3.622  0.0775  0.0090  0.2563
16183TIP3    H169964   3.719   5.862   3.643  1.6264  0.1670  1.1378
16183TIP3    H269965   3.734   5.999   3.706 -2.7286  1.2125  0.2236
16184TIP3   OH269966   0.817   1.366   0.165  0.0048 -0.1087  0.4061
16184TIP3    H169967   0.851   1.315   0.091  0.2148  0.3215  0.1996
16184TIP3    H269968   0.748   1.311   0.202 -1.2084  0.3239 -1.0813
16185TIP3   OH269969   0.621   6.542  16.678 -0.0736 -0.1536 -0.6509
16185TIP3    H169970   0.662   6.602  16.616  1.3377 -1.2318 -0.8202
16185TIP3    H269971   0.680   6.541  16.753 -1.2739  0.4113  0.3329
16186TIP3   OH269972   2.247   6.454  14.799 -0.4036  0.5315 -0.2717
16186TIP3    H169973   2.169   6.449  14.743 -1.2149 -0.7715  0.9009
16186TIP3    H269974   2.218   6.503  14.876 -0.0194  0.1969  0.0926
16187TIP3   OH269975   4.178   4.603  13.973  0.3900  0.3367 -0.6607
16187TIP3    H169976   4.173   4.678  14.031  0.0198  1.2141 -1.7846
16187TIP3    H269977   4.263   4.612  13.928  0.7860 -0.4651 -0.1180
16188TIP3   OH269978   6.212   0.220   5.245 -0.0893 -0.3894  0.6009
16188TIP3    H169979   6.162   0.143   5.274 -1.3890  0.3460  0.4287
16188TIP3    H269980   6.171   0.245   5.162  1.0703 -0.1820  0.0758
16189TIP3   OH269981   5.925   5.395   0.603 -0.2615 -0.1730 -0.8368
16189TIP3    H169982   5.973   5.391   0.686  0.7338 -0.5419 -1.4150
16189TIP3    H269983   5.899   5.487   0.595 -2.3473 -0.5106  0.9461
16190TIP3   OH269984   5.554   1.345  13.632  0.0181  0.0577  0.1433
16190TIP3    H169985   5.622   1.314  13.573 -0.1927 -0.3697  0.1232
16190TIP3    H269986   5.520   1.424  13.589  0.2581  0.0767 -0.0166
16191TIP3   OH269987   2.719   2.831  15.313 -0.1672 -0.0361 -0.9528
16191TIP3    H169988   2.706   2.751  15.364  0.9454  0.6669  0.4842
16191TIP3    H269989   2.661   2.820  15.237  0.0392 -2.2548 -0.8675
16192TIP3   OH269990   2.079   1.297  12.209  0.6432  0.2960 -0.4398
16192TIP3    H169991   1.985   1.279  12.198  0.8170 -0.1153 -1.3745
16192TIP3    H269992   2.097   1.274  12.300  0.3184 -1.9382 -0.8844
16193TIP3   OH269993   4.964   5.398  11.230 -0.2257  0.0119 -0.7516
16193TIP3    H169994   4.872   5.411  11.253  0.5287  0.6560  2.4125
16193TIP3    H269995   5.003   5.485  11.237  1.0312 -0.6014  0.2413
16194TIP3   OH269996   0.364   1.715   3.636 -0.0249  0.2515 -0.0752
16194TIP3    H169997   0.457   1.723   3.658 -0.7177 -0.1265  3.7615
16194TIP3    H269998   0.357   1.631   3.592  1.3797 -0.0082  0.1504
16195TIP3   OH269999   4.225   4.155   2.854  0.0468  0.0606 -0.0178
16195TIP3    H170000   4.291   4.128   2.790 -1.0210  1.6147 -1.8733
16195TIP3    H270001   4.143   4.116   2.823 -0.0674 -1.7128  2.1686
16196TIP3   OH270002   1.643   5.186   3.647 -0.2038 -0.1800 -0.0331
16196TIP3    H170003   1.634   5.143   3.732  1.2419 -1.6529 -0.5615
16196TIP3    H270004   1.559   5.229   3.632 -1.0218 -1.1866  1.4494
16197TIP3   OH270005   4.863   2.248   2.266 -0.2492 -0.1954  0.0722
16197TIP3    H170006   4.901   2.162   2.285  0.1932 -0.0088  0.0595
16197TIP3    H270007   4.939   2.305   2.257 -0.5126  0.0661 -0.5563
16198TIP3   OH270008   4.139   0.942   4.750  0.0674 -0.3764 -0.3224
16198TIP3    H170009   4.218   0.949   4.803  0.3721  0.0163 -0.8228
16198TIP3    H270010   4.163   0.980   4.666 -0.8606  0.4070 -0.2501
16199TIP3   OH270011   6.030   5.114   4.742  0.3273  0.6998  0.4683
16199TIP3    H170012   6.113   5.096   4.699 -0.8154 -0.2540 -1.4638
16199TIP3    H270013   6.005   5.031   4.783  0.2762  0.9626  0.9841
16200TIP3   OH270014   1.262   6.481   1.640  0.3529  0.3420 -0.0740
16200TIP3    H170015   1.356   6.468   1.632  0.5099  0.7164  1.0114
16200TIP3    H270016   1.252   6.546   1.709 -0.7658 -1.2034  1.3119
16201TIP3   OH270017   4.394   6.394   3.755  0.1229  0.3382  0.0888
16201TIP3    H170018   4.331   6.325   3.778 -0.2552  1.1375  1.5912
16201TIP3    H270019   4.348   6.476   3.776  0.5127  1.0792 -1.7965
16202TIP3   OH270020   6.260   4.676   3.461 -0.1476  0.0958 -0.6208
16202TIP3    H170021   6.234   4.698   3.551  0.2289 -0.0611 -0.4738
16202TIP3    H270022   6.350   4.645   3.469  0.3472  1.3126 -1.2141
16203TIP3   OH270023   6.180   4.870  13.929 -0.0254 -0.1131 -0.1565
16203TIP3    H170024   6.219   4.783  13.920  0.0022 -0.1337  0.1400
16203TIP3    H270025   6.212   4.902  14.014  1.6105  1.0331 -1.1621
16204TIP3   OH270026   3.836   0.916  13.534 -0.3318  0.0788 -0.2799
16204TIP3    H170027   3.847   0.831  13.491  1.2080  0.2950 -0.3885
16204TIP3    H270028   3.803   0.974  13.466 -0.6165 -0.2498 -0.4216
16205TIP3   OH270029   2.051   2.140   2.786 -0.4565  0.5122 -0.1968
16205TIP3    H170030   2.066   2.046   2.792  0.9837  0.7109 -0.3512
16205TIP3    H270031   2.130   2.174   2.743 -1.7270  1.5667 -1.8217
16206TIP3   OH270032   0.065   5.573   5.789  0.3788  0.1366  0.0179
16206TIP3    H170033   0.160   5.570   5.778  0.3867  0.0238  0.1225
16206TIP3    H270034   0.052   5.622   5.870  0.2445  3.9435 -2.0365
16207TIP3   OH270035   4.622   3.281   5.754 -0.0165  0.3355 -0.4213
16207TIP3    H170036   4.619   3.374   5.733 -0.5662  0.2776 -0.6246
16207TIP3    H270037   4.656   3.240   5.675  0.3433  0.3744 -0.2876
16208TIP3   OH270038   5.596   5.038   2.921 -0.3488 -0.4390 -0.1418
16208TIP3    H170039   5.690   5.021   2.924  0.3140  2.6619  0.1776
16208TIP3    H270040   5.564   5.010   3.007  0.0311 -2.4112 -0.5910
16209TIP3   OH270041   5.705   1.696   3.035  0.1729  0.5652 -0.0697
16209TIP3    H170042   5.669   1.624   3.087  1.2488 -0.6690 -0.9652
16209TIP3    H270043   5.791   1.712   3.073  0.8115 -0.0892 -1.1955
16210TIP3   OH270044   0.898   4.703   5.419 -0.3935 -0.1974  0.3569
16210TIP3    H170045   0.843   4.673   5.346  0.6800 -1.9156  0.1954
16210TIP3    H270046   0.841   4.699   5.495 -0.4469 -2.4234  0.2830
16211TIP3   OH270047   6.100   2.203  13.290  0.6204  0.2415 -0.0255
16211TIP3    H170048   6.076   2.243  13.374  1.0795 -0.0278  0.2342
16211TIP3    H270049   6.157   2.268  13.248  2.1795 -0.5171  0.8240
16212TIP3   OH270050   0.061   4.999  16.444 -0.2424  0.6318 -0.1484
16212TIP3    H170051   0.072   4.904  16.447 -0.4877  0.5947 -0.3660
16212TIP3    H270052   0.000   5.019  16.515  0.0467  0.6617  0.0910
16213TIP3   OH270053   2.485   0.222   0.213 -0.2790 -0.5646  0.3097
16213TIP3    H170054   2.497   0.312   0.244  1.7768 -0.8699  0.5240
16213TIP3    H270055   2.512   0.168   0.287  1.9268 -1.3100 -0.9461
16214TIP3   OH270056   4.804   3.451   3.598  0.1411  0.0042 -0.4914
16214TIP3    H170057   4.856   3.416   3.526  0.8545  0.4578 -0.1995
16214TIP3    H270058   4.723   3.400   3.596  1.6017 -2.5481  0.6808
16215TIP3   OH270059   4.263   3.947   0.553 -0.2662 -0.0301 -0.3716
16215TIP3    H170060   4.344   3.984   0.586  0.6129 -2.8110  0.9269
16215TIP3    H270061   4.198   4.017   0.563  1.6592  1.8291 -0.2468
16216TIP3   OH270062   1.118   5.754   1.617  0.0323  0.2330 -0.8584
16216TIP3    H170063   1.140   5.807   1.540 -0.2197  1.9135  0.1914
16216TIP3    H270064   1.129   5.663   1.587 -0.2932  0.8283 -2.9412
16217TIP3   OH270065   1.372   3.617   0.415 -0.3246  0.1536  0.3834
16217TIP3    H170066   1.316   3.560   0.362 -0.6341  0.2098  0.6474
16217TIP3    H270067   1.383   3.570   0.498  0.4850 -0.1179  0.1317
16218TIP3   OH270068   4.780   6.527   3.134 -0.2505  0.2812  0.4945
16218TIP3    H170069   4.711   6.461   3.145 -0.6886  0.8777  1.5274
16218TIP3    H270070   4.738   6.609   3.158  0.5092  0.8254 -0.0116
16219TIP3   OH270071   0.018   3.861  15.538 -0.1367 -0.1357  0.7056
16219TIP3    H170072   0.016   3.877  15.443 -0.9272 -0.0291  0.7369
16219TIP3    H270073   0.010   3.948  15.577  0.1635 -0.1827  0.8807
16220TIP3   OH270074   5.746   5.454   4.574 -0.0021 -0.0560  0.4171
16220TIP3    H170075   5.697   5.373   4.565  0.0233 -0.0568  0.2799
16220TIP3    H270076   5.803   5.440   4.650  1.4972 -0.9493 -0.7960
16221TIP3   OH270077   6.632   1.088   0.746  0.2908  0.1551 -0.3089
16221TIP3    H170078   6.633   1.177   0.782 -0.1516 -0.3362  0.9756
16221TIP3    H270079   6.723   1.072   0.720  0.6521  0.5273  0.6494
16222TIP3   OH270080   1.836   1.612   2.665 -0.5426 -0.3162 -0.4548
16222TIP3    H170081   1.798   1.551   2.601 -0.5971  0.2164 -0.9363
16222TIP3    H270082   1.930   1.607   2.648 -0.7186  1.9238 -2.5351
16223TIP3   OH270083   6.331   4.274  15.166 -0.1275 -0.1416  0.5266
16223TIP3    H170084   6.389   4.201  15.187  2.5539  1.6489 -0.1295
16223TIP3    H270085   6.388   4.338  15.123 -2.9706  1.0974 -1.7380
16224TIP3   OH270086   0.606   4.235  13.681 -0.5370  0.0424  0.1693
16224TIP3    H170087   0.571   4.260  13.767 -2.2064  0.0219 -0.4736
16224TIP3    H270088   0.666   4.164  13.700 -1.2290 -0.2694  1.2980
16225TIP3   OH270089   5.180   1.826  14.798  0.5693 -0.4485 -0.6684
16225TIP3    H170090   5.145   1.816  14.887  2.6962 -1.1749  0.1536
16225TIP3    H270091   5.110   1.796  14.741 -0.4525 -1.0112  0.8322
16226TIP3   OH270092   6.124   0.632   1.856  0.4023  0.1007 -0.5015
16226TIP3    H170093   6.117   0.710   1.911 -1.5176  0.2484 -0.8765
16226TIP3    H270094   6.142   0.561   1.918 -2.6969  0.0990  0.5675
16227TIP3   OH270095   1.103   0.150  12.039 -0.2199 -0.1572 -0.5292
16227TIP3    H170096   1.143   0.143  11.953 -0.9435  0.3293 -0.9090
16227TIP3    H270097   1.176   0.165  12.099  0.3570 -1.1736 -0.9594
16228TIP3   OH270098   2.822   4.243   1.442 -0.4496 -0.1653 -0.3416
16228TIP3    H170099   2.851   4.319   1.492 -0.0060 -0.3279 -0.3446
16228TIP3    H270100   2.850   4.261   1.353  1.5399 -1.2533  0.0120
16229TIP3   OH270101   0.117   6.198   3.255  0.4854  0.1808 -0.1178
16229TIP3    H170102   0.048   6.205   3.321  0.1920 -1.5658 -0.1733
16229TIP3    H270103   0.108   6.277   3.201 -1.2991  0.1333  0.0529
16230TIP3   OH270104   3.028   4.677   0.331 -0.0219  0.2517 -0.1360
16230TIP3    H170105   3.059   4.766   0.314  0.1778  0.0729 -0.7577
16230TIP3    H270106   2.935   4.680   0.307 -0.6534  0.9109  2.1843
16231TIP3   OH270107   0.683   0.656  15.366 -0.7365 -0.4589  0.2072
16231TIP3    H170108   0.612   0.658  15.301 -0.7445 -0.5660  0.2118
16231TIP3    H270109   0.642   0.622  15.445 -0.6552 -0.6259  0.1784
16232TIP3   OH270110   4.000   3.161  14.161  0.1154  0.2692  0.2743
16232TIP3    H170111   3.988   3.175  14.067  1.3447 -0.4440 -0.0077
16232TIP3    H270112   3.927   3.207  14.201 -0.6771  0.2146 -1.0515
16233TIP3   OH270113   4.067   3.513   0.813 -0.3181  0.1028  0.0737
16233TIP3    H170114   4.140   3.573   0.797  1.5062 -2.0422 -0.3361
16233TIP3    H270115   4.020   3.509   0.730  1.1866 -0.9824 -0.7984
16234TIP3   OH270116   2.339   1.059  11.809  0.7642 -0.0679  0.4241
16234TIP3    H170117   2.281   1.063  11.886 -0.6048 -0.8889 -0.5144
16234TIP3    H270118   2.336   0.967  11.781  0.9930  0.2707 -0.7806
16235TIP3   OH270119   3.051   2.391  14.799 -0.1647 -0.1902  0.2508
16235TIP3    H170120   3.070   2.467  14.854  0.1102  0.2560 -0.4494
16235TIP3    H270121   3.132   2.341  14.799 -0.3289 -0.4656  0.6671
16236TIP3   OH270122   6.267   2.935   1.559 -0.5137  0.5743  0.1977
16236TIP3    H170123   6.307   2.864   1.610 -0.5270 -0.4052 -1.1151
16236TIP3    H270124   6.334   3.003   1.556  0.1382 -0.0624  0.0720
16237TIP3   OH270125   3.246   4.863  13.436  0.2703  0.0337 -0.1283
16237TIP3    H170126   3.200   4.810  13.372 -0.3443 -0.1956  0.4892
16237TIP3    H270127   3.185   4.934  13.458  1.0552  0.9838 -0.9040
16238TIP3   OH270128   2.908   4.956   1.486 -0.0104 -0.3662 -0.0400
16238TIP3    H170129   2.872   4.913   1.563 -1.3457  0.0096 -0.4142
16238TIP3    H270130   2.967   5.023   1.520  1.4712 -1.9158  0.5621
16239TIP3   OH270131   0.442   2.064   2.577  0.0587  0.1073 -0.0943
16239TIP3    H170132   0.470   2.153   2.558 -1.7512  1.5547  3.2369
16239TIP3    H270133   0.501   2.035   2.646 -0.7547 -0.4246  0.3893
16240TIP3   OH270134   4.624   6.008  12.159  0.1549 -0.3642 -0.0757
16240TIP3    H170135   4.685   6.006  12.086 -0.8288 -2.8431 -0.9439
16240TIP3    H270136   4.676   5.981  12.235  0.8682  0.8984 -0.0897
16241TIP3   OH270137   5.984   3.837  12.372 -0.3420  0.5902 -0.2586
16241TIP3    H170138   5.995   3.931  12.353 -0.9382  0.7567  0.1983
16241TIP3    H270139   5.890   3.821  12.359 -0.0811 -0.1690 -1.3070
16242TIP3   OH270140   1.565   1.486   1.064 -0.4228  0.5498 -0.4271
16242TIP3    H170141   1.621   1.410   1.074 -0.8553  0.3031  0.2005
16242TIP3    H270142   1.568   1.507   0.971  0.9140  0.7102 -0.3681
16243TIP3   OH270143   6.017   5.258   1.468 -0.1068  0.7248  0.6432
16243TIP3    H170144   5.940   5.201   1.474 -0.5504  1.3536  1.0416
16243TIP3    H270145   6.003   5.308   1.388  1.2182 -1.0373 -0.7613
16244TIP3   OH270146   1.164   2.605   2.045 -0.1287 -0.5084  0.4151
16244TIP3    H170147   1.080   2.562   2.032 -0.0658 -0.2800 -0.8643
16244TIP3    H270148   1.228   2.548   2.003  0.2379 -0.2413  0.6011
16245TIP3   OH270149   6.029   5.722  14.167 -0.4734 -0.2972  0.0985
16245TIP3    H170150   5.995   5.638  14.200 -0.7035  0.4398  1.8492
16245TIP3    H270151   6.124   5.715  14.176 -0.5579  0.1497  1.6988
16246TIP3   OH270152   1.833   0.665  16.763 -0.2172 -0.4310 -0.0525
16246TIP3    H170153   1.775   0.697  16.832 -0.9486 -0.8626 -0.4577
16246TIP3    H270154   1.797   0.701  16.682 -0.7968 -1.8656 -0.4712
16247TIP3   OH270155   1.191   6.244   2.303 -0.0011  0.1406 -0.2861
16247TIP3    H170156   1.186   6.149   2.290  0.5375  0.0889 -0.1437
16247TIP3    H270157   1.122   6.263   2.366  0.4343 -0.2866  0.3332
16248TIP3   OH270158   2.665   4.567   0.882  0.5249 -0.1939 -0.1380
16248TIP3    H170159   2.724   4.552   0.808 -0.3936  1.2279 -1.2041
16248TIP3    H270160   2.585   4.519   0.859 -0.4023  1.6555 -0.9470
16249TIP3   OH270161   1.932   5.445   6.460 -0.5570 -0.3003  0.3221
16249TIP3    H170162   1.977   5.435   6.376  0.4800 -2.1399  1.0424
16249TIP3    H270163   1.861   5.381   6.456 -1.1854  0.3769  0.4425
16250TIP3   OH270164   4.822   1.850   3.319  0.5709 -0.2484  1.5662
16250TIP3    H170165   4.859   1.764   3.298  0.0545  0.0011 -0.5326
16250TIP3    H270166   4.881   1.912   3.278 -0.1572  0.3082  1.3433
16251TIP3   OH270167   5.761   6.365  16.496  0.2187  0.2398 -0.0841
16251TIP3    H170168   5.700   6.325  16.558  0.4473 -2.8837 -1.6689
16251TIP3    H270169   5.705   6.394  16.423  0.4133 -2.4440 -1.4457
16252TIP3   OH270170   0.656   6.185   2.338  0.2956 -0.3727  0.1043
16252TIP3    H170171   0.654   6.215   2.247 -0.3498 -1.1898 -0.1648
16252TIP3    H270172   0.659   6.089   2.331  1.8731 -0.4067  0.9422
16253TIP3   OH270173   4.927   6.724   5.771 -0.4422  0.2175  0.0034
16253TIP3    H170174   4.957   6.700   5.683  1.1387  0.5394  0.4300
16253TIP3    H270175   5.007   6.732   5.822 -1.4141 -1.7260  1.9627
16254TIP3   OH270176   1.350   3.718  16.216  0.2309 -0.1962 -0.1650
16254TIP3    H170177   1.348   3.800  16.167  0.4092  0.4333  0.8409
16254TIP3    H270178   1.371   3.744  16.306 -1.0329 -1.1952  0.4702
16255TIP3   OH270179   6.695   2.816  16.065 -0.0681 -0.3055  0.1738
16255TIP3    H170180   6.652   2.754  16.005  0.1482 -0.7402  0.4558
16255TIP3    H270181   6.688   2.773  16.151  0.0161  0.1052  0.3841
16256TIP3   OH270182   5.980   1.280  13.308 -0.1479  0.8239 -0.4042
16256TIP3    H170183   5.916   1.271  13.378  0.4972 -1.3359 -0.0227
16256TIP3    H270184   5.936   1.243  13.231  0.3947 -0.1860 -0.2584
16257TIP3   OH270185   3.910   3.719  13.344  0.9449 -0.4272 -0.1919
16257TIP3    H170186   3.841   3.742  13.406 -0.1475  0.5701 -1.6891
16257TIP3    H270187   3.880   3.637  13.304 -1.4572  1.8107 -3.5175
16258TIP3   OH270188   1.418   6.259   4.992 -0.6176 -0.1414 -0.2746
16258TIP3    H170189   1.358   6.327   5.023 -0.9113 -0.4569 -0.1501
16258TIP3    H270190   1.504   6.303   4.990 -0.5223 -0.1989  1.3364
16259TIP3   OH270191   0.745   3.702   2.057 -0.0671  0.5033 -0.2836
16259TIP3    H170192   0.841   3.706   2.065 -0.0356  0.6770 -0.7258
16259TIP3    H270193   0.720   3.791   2.031 -0.2523  0.2038 -1.1638
16260TIP3   OH270194   6.656   2.236  14.787 -0.2346  0.4683  0.1094
16260TIP3    H170195   6.711   2.242  14.709  0.9067 -0.3428  0.8302
16260TIP3    H270196   6.588   2.173  14.763 -1.0517  1.6517 -0.8659
16261TIP3   OH270197   4.231   6.019   2.170 -0.7775  0.6847 -0.7977
16261TIP3    H170198   4.251   6.038   2.079 -0.6684 -0.2851 -0.9823
16261TIP3    H270199   4.179   5.938   2.168  2.9579 -2.0020  0.2113
16262TIP3   OH270200   0.142   1.559  16.101  0.2083 -0.2496  0.9932
16262TIP3    H170201   0.074   1.571  16.168 -1.7719  0.6170 -1.0603
16262TIP3    H270202   0.123   1.624  16.034  1.7369 -1.4529 -0.7325
16263TIP3   OH270203   5.232   0.478  10.605  0.4522 -0.7263 -0.4014
16263TIP3    H170204   5.325   0.487  10.586  0.4267  2.8133  0.4437
16263TIP3    H270205   5.188   0.492  10.521  0.6728  3.7836 -0.0297
16264TIP3   OH270206   0.939   2.471   0.213 -0.1933 -0.1198 -0.0471
16264TIP3    H170207   0.864   2.507   0.167 -0.2503 -0.1335  0.0351
16264TIP3    H270208   0.967   2.542   0.272  0.4851  0.2657 -0.8019
16265TIP3   OH270209   2.212   3.162   0.443 -0.1789 -0.3428  0.6799
16265TIP3    H170210   2.176   3.247   0.417 -2.1167 -1.6971 -1.4403
16265TIP3    H270211   2.181   3.149   0.532  0.5788  1.3362  1.2432
16266TIP3   OH270212   2.286   5.267   0.483  0.1760  0.6482 -0.8612
16266TIP3    H170213   2.339   5.201   0.527  0.5762  1.4334 -0.1381
16266TIP3    H270214   2.301   5.347   0.532 -1.7027  0.8987 -0.6074
16267TIP3   OH270215   3.799   4.898  11.475  0.1002  0.2448  0.0532
16267TIP3    H170216   3.826   4.990  11.485 -1.3056  0.8558 -1.3647
16267TIP3    H270217   3.783   4.888  11.381  0.4983 -1.5535  0.1528
16268TIP3   OH270218   4.480   0.667  12.440 -0.5694  0.0333 -0.0309
16268TIP3    H170219   4.512   0.710  12.519  1.1945 -0.5628 -0.3734
16268TIP3    H270220   4.431   0.591  12.471  0.6252 -0.5414  0.4956
16269TIP3   OH270221   1.356   5.057   4.100  0.3883 -0.1920  0.7028
16269TIP3    H170222   1.339   4.967   4.127 -0.4683 -0.6236 -1.0811
16269TIP3    H270223   1.435   5.082   4.148  0.4365 -1.7564  1.5148
16270TIP3   OH270224   2.849   0.997  10.870  0.3446 -0.6159  0.3666
16270TIP3    H170225   2.796   0.972  10.946 -0.1524 -1.5483 -0.2704
16270TIP3    H270226   2.920   0.933  10.869  0.7195 -0.2041  0.4230
16271TIP3   OH270227   4.168   6.644   1.004 -0.2009  0.0470  0.2120
16271TIP3    H170228   4.180   6.720   1.060  0.2368  0.0421  0.1331
16271TIP3    H270229   4.161   6.570   1.065 -3.1195  0.3996  0.4130
16272TIP3   OH270230   4.973   1.203   5.284  0.2719  0.3798  1.0628
16272TIP3    H170231   5.067   1.216   5.298  0.2751 -0.0149  1.4342
16272TIP3    H270232   4.952   1.125   5.336 -0.1627  0.1799  0.5953
16273TIP3   OH270233   4.361   6.695   6.091 -0.1960 -0.1356  0.9394
16273TIP3    H170234   4.372   6.600   6.102 -0.0581 -0.0547  1.5281
16273TIP3    H270235   4.449   6.728   6.075 -0.4715 -0.3480 -1.3670
16274TIP3   OH270236   3.481   6.278   3.248 -0.3170  0.1248  0.0467
16274TIP3    H170237   3.465   6.226   3.327 -0.6197  0.3533  0.1372
16274TIP3    H270238   3.401   6.331   3.238  0.0352  0.6563  0.0231
16275TIP3   OH270239   3.199   1.069   4.294 -0.1931  0.0274  0.2765
16275TIP3    H170240   3.109   1.088   4.269  0.2579 -0.3815 -1.8992
16275TIP3    H270241   3.251   1.094   4.217  1.4694 -0.3748  1.2166
16276TIP3   OH270242   1.653   4.836  16.471  0.3325  0.2142  0.0463
16276TIP3    H170243   1.665   4.755  16.520 -1.2501 -0.8247 -1.1604
16276TIP3    H270244   1.629   4.901  16.537 -0.1429 -0.7423  0.8374
16277TIP3   OH270245   2.229   5.837   4.882  0.2603 -0.0137  0.1353
16277TIP3    H170246   2.196   5.786   4.957  0.3137  0.5240  0.5303
16277TIP3    H270247   2.306   5.788   4.853  0.3818 -0.1038  0.5865
16278TIP3   OH270248   4.610   3.682   0.245 -0.3634  0.0189  0.0129
16278TIP3    H170249   4.528   3.633   0.248 -0.5333  0.2691 -0.3974
16278TIP3    H270250   4.584   3.773   0.234 -0.0961  0.4211  2.2414
16279TIP3   OH270251   5.709   2.297   6.426 -0.0706  0.2804 -0.0660
16279TIP3    H170252   5.644   2.233   6.454 -0.3278  0.2411 -0.7521
16279TIP3    H270253   5.791   2.249   6.422 -0.3270 -0.0998 -0.9279
16280TIP3   OH270254   5.790   5.095   4.596  0.0252 -0.8598 -0.2960
16280TIP3    H170255   5.875   5.137   4.610  0.2950 -1.5831  0.2597
16280TIP3    H270256   5.727   5.158   4.631  0.4500 -1.0625  0.8852
16281TIP3   OH270257   1.351   3.992  13.926  0.1065 -0.0915  0.0100
16281TIP3    H170258   1.316   4.075  13.896 -0.1488 -1.2371 -3.3003
16281TIP3    H270259   1.276   3.933  13.929  0.6814 -0.8672 -0.3672
16282TIP3   OH270260   1.999   5.601  15.225 -0.3268  0.1380 -0.0894
16282TIP3    H170261   1.959   5.556  15.299 -0.4700 -1.6492 -1.1789
16282TIP3    H270262   2.080   5.639  15.260 -0.8835  0.1815  1.1838
16283TIP3   OH270263   6.168   5.319  13.593 -0.0330 -0.0152  0.1358
16283TIP3    H170264   6.168   5.292  13.501  0.8601 -2.8018  0.8712
16283TIP3    H270265   6.145   5.240  13.642  1.6229  0.8154  2.4551
16284TIP3   OH270266   4.023   1.701   5.617 -0.1255  0.1296 -0.6078
16284TIP3    H170267   4.013   1.699   5.522  1.9450 -1.9685 -0.8745
16284TIP3    H270268   4.062   1.616   5.639  0.6133  1.0389  1.9721
16285TIP3   OH270269   1.575   1.348   5.374 -0.6545 -0.2490  0.3783
16285TIP3    H170270   1.581   1.286   5.446  0.6901 -0.6725 -0.0623
16285TIP3    H270271   1.642   1.414   5.393 -2.1169  1.1521  0.8858
16286TIP3   OH270272   1.736   0.305   1.527 -0.2433  0.1101  0.0327
16286TIP3    H170273   1.755   0.369   1.458  2.1883  0.0626  0.5882
16286TIP3    H270274   1.689   0.235   1.482 -0.9054  1.2067 -1.0465
16287TIP3   OH270275   6.528   6.621   0.195 -0.4986 -0.0901  0.4714
16287TIP3    H170276   6.480   6.539   0.183  0.1568 -0.5159  0.6759
16287TIP3    H270277   6.465   6.681   0.233 -1.6349  0.1999 -1.7513
16288TIP3   OH270278   4.218   3.513   5.249  0.4029  0.2046  0.4329
16288TIP3    H170279   4.200   3.428   5.208 -1.4225  1.1354 -0.8404
16288TIP3    H270280   4.313   3.519   5.251  0.5687 -1.2319 -0.8498
16289TIP3   OH270281   5.346   3.306   4.160 -0.0294  0.4449 -1.0079
16289TIP3    H170282   5.299   3.229   4.191  0.2402  0.7375  0.1689
16289TIP3    H270283   5.307   3.380   4.207  0.7835  0.8342 -0.9134
16290TIP3   OH270284   1.128   4.011   2.470 -0.3699  0.2482 -0.7353
16290TIP3    H170285   1.161   4.071   2.403  1.4946 -0.6186 -0.6453
16290TIP3    H270286   1.074   4.066   2.527  0.8361  1.7377 -0.9614
16291TIP3   OH270287   0.972   6.052   4.988 -0.1775  0.4392 -0.0111
16291TIP3    H170288   0.964   5.957   4.996  0.3510  0.3781 -0.1843
16291TIP3    H270289   0.884   6.085   5.006 -0.6671 -0.1617 -1.1486
16292TIP3   OH270290   2.775   0.825  17.228 -0.0753 -0.5252  0.3365
16292TIP3    H170291   2.742   0.813  17.317  1.5323 -0.9901  0.9077
16292TIP3    H270292   2.870   0.828  17.238  0.1015  2.3979 -1.0045
16293TIP3   OH270293   1.977   0.886   5.586  0.6605  0.1305 -0.2118
16293TIP3    H170294   1.963   0.981   5.586 -1.4459 -0.1109  0.9479
16293TIP3    H270295   1.997   0.864   5.495 -0.9452  1.4278 -0.9233
16294TIP3   OH270296   6.085   1.734   5.213 -0.3239  0.3165 -0.4509
16294TIP3    H170297   6.095   1.695   5.300  0.5440  0.2867 -0.5568
16294TIP3    H270298   5.991   1.741   5.201 -0.4552  0.4394  0.5501
16295TIP3   OH270299   3.830   3.080   5.710 -0.6815  0.1769  0.1616
16295TIP3    H170300   3.869   3.121   5.787 -2.5789  0.4600  1.0101
16295TIP3    H270301   3.902   3.029   5.671  0.0797 -0.8287  2.6998
16296TIP3   OH270302   1.493   5.339  12.871 -0.4579  1.3462 -0.4483
16296TIP3    H170303   1.515   5.431  12.886  0.6982  0.9438  0.5260
16296TIP3    H270304   1.577   5.294  12.878 -1.0171  0.2114 -0.9037
16297TIP3   OH270305   5.335   4.027  14.076  0.1281 -0.0945 -0.3971
16297TIP3    H170306   5.394   3.952  14.087 -1.6938 -1.4876  0.3882
16297TIP3    H270307   5.322   4.033  13.981  0.2905 -0.7863 -0.4688
16298TIP3   OH270308   5.551   3.892  12.008  0.2719  0.4505 -0.4012
16298TIP3    H170309   5.456   3.893  12.020  0.2121  1.4105 -0.8767
16298TIP3    H270310   5.576   3.984  12.002  1.2124  0.2026 -0.4838
16299TIP3   OH270311   3.545   3.705   0.789  0.1371  0.0361  0.7934
16299TIP3    H170312   3.574   3.661   0.869  1.9572 -2.6989 -1.1742
16299TIP3    H270313   3.472   3.651   0.757 -1.3978  1.7928  1.1351
16300TIP3   OH270314   2.728   3.170   2.066 -0.2205  1.1625 -0.5663
16300TIP3    H170315   2.725   3.266   2.060 -0.0210  1.3601  1.6212
16300TIP3    H270316   2.757   3.153   2.156  2.2177 -0.9527 -1.6387
16301TIP3   OH270317   1.403   2.453   2.262  0.5820 -0.2959  0.5886
16301TIP3    H170318   1.408   2.407   2.346  0.0650 -0.7418  0.3801
16301TIP3    H270319   1.493   2.452   2.229  0.3641 -2.4620 -0.0932
16302TIP3   OH270320   5.586   3.075   6.450  0.0392  0.4567 -0.0721
16302TIP3    H170321   5.649   3.010   6.482 -0.5646 -0.6691 -1.0826
16302TIP3    H270322   5.514   3.072   6.512 -1.4992 -2.3045 -1.7921
16303TIP3   OH270323   1.177   3.408   2.814 -0.1109  0.4191 -0.1203
16303TIP3    H170324   1.273   3.409   2.824 -0.2150  1.1384  1.0480
16303TIP3    H270325   1.146   3.356   2.888 -0.7641  3.1225  1.6680
16304TIP3   OH270326   1.254   3.441  10.437  0.1017  0.6578 -0.5541
16304TIP3    H170327   1.347   3.457  10.457  0.4393  0.4414 -1.8404
16304TIP3    H270328   1.252   3.351  10.406 -0.3934  0.9573 -1.4081
16305TIP3   OH270329   3.865   3.817  16.920  0.4243 -0.2774 -0.2510
16305TIP3    H170330   3.792   3.844  16.976  0.0990 -0.1896 -0.7014
16305TIP3    H270331   3.943   3.855  16.961 -0.2148  3.7278 -2.1963
16306TIP3   OH270332   3.701   1.492  13.472 -0.2243 -0.0050 -0.0959
16306TIP3    H170333   3.624   1.471  13.418  1.0373 -0.6451 -1.7399
16306TIP3    H270334   3.706   1.588  13.470 -0.4893  0.0014 -0.7283
16307TIP3   OH270335   0.304   4.694   6.830 -0.3384  0.2299 -0.0484
16307TIP3    H170336   0.366   4.760   6.799  0.6663 -0.0164  1.3004
16307TIP3    H270337   0.344   4.610   6.806 -1.1375  0.0878 -0.9128
16308TIP3   OH270338   2.539   1.693  14.106 -0.3123 -0.0921 -0.0341
16308TIP3    H170339   2.566   1.768  14.158 -0.4475  1.0631 -1.5460
16308TIP3    H270340   2.596   1.622  14.134 -0.7045  0.3368  1.9895
16309TIP3   OH270341   3.306   6.202   5.368 -0.0719  0.4016 -0.2511
16309TIP3    H170342   3.349   6.204   5.453 -1.0624  1.6935  0.2455
16309TIP3    H270343   3.231   6.144   5.379  0.7529 -0.8214 -0.7637
16310TIP3   OH270344   3.835   3.901  16.663  0.3955 -0.2274 -0.0288
16310TIP3    H170345   3.811   3.988  16.695 -1.7437 -0.4746 -0.8118
16310TIP3    H270346   3.862   3.853  16.742  0.5011  0.7997  0.5766
16311TIP3   OH270347   2.911   2.908   4.327  0.5436 -0.2514  0.6148
16311TIP3    H170348   2.871   2.970   4.265 -1.0420 -1.2227  0.6084
16311TIP3    H270349   3.005   2.919   4.314  0.2764  0.8142 -0.7173
16312TIP3   OH270350   3.601   0.599  16.807 -0.7065  0.6335  0.5452
16312TIP3    H170351   3.657   0.649  16.866 -0.2347  0.2798  0.4021
16312TIP3    H270352   3.661   0.563  16.742 -1.2048  0.9279 -0.0929
16313TIP3   OH270353   4.767   0.230  13.726  0.0197 -0.1272  0.0694
16313TIP3    H170354   4.690   0.267  13.769 -0.1562  2.2721 -2.0400
16313TIP3    H270355   4.771   0.275  13.642  0.2808 -4.5104 -2.5705
16314TIP3   OH270356   6.425   6.161  11.297  0.1208 -0.2644 -0.0997
16314TIP3    H170357   6.337   6.133  11.272  0.6368 -0.3052 -1.9686
16314TIP3    H270358   6.411   6.218  11.373 -1.6291  0.5977 -1.0211
16315TIP3   OH270359   4.005   1.096   5.884 -0.2069  0.2344 -0.0444
16315TIP3    H170360   4.026   1.070   5.794  0.3285  0.2942  0.0652
16315TIP3    H270361   4.089   1.095   5.930 -0.3965  0.7656  0.3167
16316TIP3   OH270362   0.760   5.059   1.397  0.0125 -0.1397 -0.6909
16316TIP3    H170363   0.759   4.983   1.456 -0.3386 -0.6275 -1.3112
16316TIP3    H270364   0.744   5.022   1.310 -1.7552  0.8163 -0.8126
16317TIP3   OH270365   0.555   6.231  12.636  0.3571 -0.1195 -0.2907
16317TIP3    H170366   0.644   6.211  12.608  0.3656 -0.1657 -0.2295
16317TIP3    H270367   0.551   6.327  12.639  0.7938 -0.1224  0.9835
16318TIP3   OH270368   0.228   2.774  15.240 -0.3394 -0.2174 -0.8263
16318TIP3    H170369   0.142   2.755  15.205  0.2299 -1.5258 -1.5756
16318TIP3    H270370   0.285   2.780  15.163  0.5874 -1.3131 -0.2550
16319TIP3   OH270371   2.116   3.491  16.427 -0.5623  0.0869 -0.0098
16319TIP3    H170372   2.093   3.515  16.516  0.7046  0.6720  0.1827
16319TIP3    H270373   2.073   3.556  16.372  1.5478  1.9614  0.4151
16320TIP3   OH270374   4.256   5.947   4.675  0.0051 -0.5292  0.1487
16320TIP3    H170375   4.319   5.961   4.604  0.5902  1.2096  0.9639
16320TIP3    H270376   4.247   6.033   4.716 -1.6366 -1.1225  1.1137
16321TIP3   OH270377   1.620   5.287   1.369  0.1072 -0.8466  0.1323
16321TIP3    H170378   1.599   5.363   1.424 -0.8771 -0.9650 -0.0585
16321TIP3    H270379   1.695   5.315   1.318 -0.7781  0.3411 -0.5748
16322TIP3   OH270380   3.496   2.421   0.989 -0.3595 -0.3890 -0.2569
16322TIP3    H170381   3.459   2.493   0.937  0.1630 -0.1384 -0.2912
16322TIP3    H270382   3.484   2.344   0.934  1.9907  0.1550 -1.7233
16323TIP3   OH270383   4.362   4.717   2.479  0.0823 -0.1012  0.4087
16323TIP3    H170384   4.326   4.792   2.526  1.0281 -0.0811  1.1382
16323TIP3    H270385   4.451   4.745   2.456 -0.0997 -0.4117 -0.7110
16324TIP3   OH270386   5.002   3.258  14.550 -0.5201 -0.0497 -0.7336
16324TIP3    H170387   5.096   3.240  14.553 -0.7593 -1.3200  0.5413
16324TIP3    H270388   4.991   3.337  14.604 -0.1505  0.3295 -1.2042
16325TIP3   OH270389   0.721   1.890  12.875  0.3858  0.2323 -0.5204
16325TIP3    H170390   0.737   1.947  12.800 -0.1288  0.2761 -0.6031
16325TIP3    H270391   0.695   1.807  12.837 -0.5953  0.4691 -0.3978
16326TIP3   OH270392   6.677   5.086  15.904 -0.2696 -0.4558 -0.3383
16326TIP3    H170393   6.743   5.080  15.973 -0.6552  1.5673  0.2884
16326TIP3    H270394   6.719   5.049  15.827  1.2024 -0.2106  0.3099
16327TIP3   OH270395   1.345   6.518   1.198  0.1675  0.0996  0.7539
16327TIP3    H170396   1.304   6.488   1.117  1.5386  1.1240 -0.3828
16327TIP3    H270397   1.402   6.446   1.224  1.4400  0.6063 -0.4929
16328TIP3   OH270398   3.011   2.698  15.763 -0.0215  0.2458  0.4134
16328TIP3    H170399   2.999   2.624  15.823 -0.6815  0.8566  1.0551
16328TIP3    H270400   3.099   2.730  15.780  0.8836 -1.3353 -0.9677
16329TIP3   OH270401   6.518   2.706   1.171 -0.1008  0.4976 -0.4518
16329TIP3    H170402   6.534   2.613   1.157 -2.6624 -0.2524  0.9729
16329TIP3    H270403   6.554   2.724   1.258  1.9267  1.3373 -1.3972
16330TIP3   OH270404   1.100   4.056  14.479 -0.3625  0.1768 -0.0159
16330TIP3    H170405   1.014   4.093  14.460 -0.0657  1.1916  0.5038
16330TIP3    H270406   1.139   4.040  14.393 -0.5901  0.8928 -0.2619
16331TIP3   OH270407   3.923   5.660  16.034 -0.4489  0.1811  0.1504
16331TIP3    H170408   3.849   5.695  16.083  0.9853  0.2412  2.4009
16331TIP3    H270409   3.938   5.724  15.964 -1.2091  1.2505  0.9341
16332TIP3   OH270410   4.476   0.926  13.048  0.6003  0.1231  0.2343
16332TIP3    H170411   4.412   0.863  13.081  1.2381 -1.2583 -1.0529
16332TIP3    H270412   4.426   1.007  13.034 -0.8661 -0.9051 -0.7049
16333TIP3   OH270413   4.925   3.079   1.357  0.3613 -0.6797  0.2888
16333TIP3    H170414   4.897   3.156   1.307  0.6206  0.0304  1.2004
16333TIP3    H270415   4.846   3.050   1.402  0.4566 -0.3815  0.6579
16334TIP3   OH270416   1.013   1.845  16.406  0.0857 -0.6117 -0.3637
16334TIP3    H170417   1.064   1.778  16.452  0.0146  0.6598  1.7012
16334TIP3    H270418   0.923   1.832  16.438  0.1641  0.7758  0.4968
16335TIP3   OH270419   3.511   2.051  16.356  0.0334  0.2400 -0.1045
16335TIP3    H170420   3.491   2.139  16.390 -0.3307 -0.1687  0.7560
16335TIP3    H270421   3.592   2.027  16.401  1.0644  0.8060 -1.5990
16336TIP3   OH270422   0.655   1.422  14.803  0.2858  0.4766 -0.6515
16336TIP3    H170423   0.645   1.343  14.855 -1.7604  0.4195 -1.0693
16336TIP3    H270424   0.680   1.490  14.866  0.4265 -0.1426 -0.0350
16337TIP3   OH270425   5.882   1.808  15.420 -0.2143  0.2907  0.4816
16337TIP3    H170426   5.922   1.820  15.506  2.9886  0.9394 -0.9526
16337TIP3    H270427   5.809   1.870  15.418  1.0888  1.9568  1.9492
16338TIP3   OH270428   6.743   2.383  13.306 -0.5032 -0.0003  0.4906
16338TIP3    H170429   6.774   2.474  13.303  0.2380 -0.2615 -0.2996
16338TIP3    H270430   6.650   2.390  13.325 -0.9538  1.0530 -1.7068
16339TIP3   OH270431   1.832   4.514  16.072 -0.5500 -0.3950 -0.4448
16339TIP3    H170432   1.776   4.488  16.145 -2.3566 -2.1642 -2.3235
16339TIP3    H270433   1.785   4.587  16.031  2.0979  2.9588  1.9268
16340TIP3   OH270434   4.631   4.605   1.735 -0.1700  0.0591 -0.2185
16340TIP3    H170435   4.659   4.676   1.793  0.3388  1.1280 -1.7200
16340TIP3    H270436   4.712   4.572   1.698 -0.3543 -1.7008  0.8413
16341TIP3   OH270437   4.891   3.469  10.860 -0.2991 -0.1268 -0.5634
16341TIP3    H170438   4.964   3.407  10.864  0.2447  0.5328 -0.0875
16341TIP3    H270439   4.814   3.418  10.885  0.4436 -0.1470  1.8622
16342TIP3   OH270440   5.209   3.581   5.732  0.0832  0.7558  0.5283
16342TIP3    H170441   5.145   3.519   5.697  0.6999  1.1363 -1.3902
16342TIP3    H270442   5.290   3.560   5.685  1.3829  0.3740  2.7900
16343TIP3   OH270443   4.723   5.113   5.039 -0.3118  0.4369  0.3280
16343TIP3    H170444   4.663   5.063   5.093 -2.0546  1.3115 -0.7022
16343TIP3    H270445   4.791   5.143   5.099 -0.4406 -1.2318  1.3725
16344TIP3   OH270446   0.975   6.745   5.872 -0.6953  0.0250 -0.0996
16344TIP3    H170447   0.925   6.749   5.790 -2.1773 -0.2823  0.7635
16344TIP3    H270448   1.030   6.667   5.861 -0.2744  0.4313 -1.1031
16345TIP3   OH270449   1.041   2.494   0.705  0.0700  0.3586 -0.4144
16345TIP3    H170450   1.019   2.470   0.795 -0.9054  1.6264 -0.2800
16345TIP3    H270451   1.120   2.547   0.712  2.3249 -2.6948 -0.7263
16346TIP3   OH270452   1.385   0.226  11.292  0.8488 -0.2298  0.0583
16346TIP3    H170453   1.464   0.229  11.237  0.2372 -1.4363 -0.9529
16346TIP3    H270454   1.317   0.191  11.234 -0.4707  0.8675  0.8785
16347TIP3   OH270455   4.875   1.932   2.002  0.1976  0.1040 -0.2423
16347TIP3    H170456   4.953   1.958   2.051 -0.2730  1.6964 -0.2821
16347TIP3    H270457   4.895   1.954   1.911  0.3111 -1.0177 -0.5075
16348TIP3   OH270458   6.250   4.490   5.006 -0.3360  0.3010  0.0494
16348TIP3    H170459   6.169   4.532   5.035 -0.9444 -0.1113 -1.0193
16348TIP3    H270460   6.225   4.438   4.930  0.9956  0.3933 -0.4772
16349TIP3   OH270461   4.312   5.943   3.434  0.7288  0.0055  0.5681
16349TIP3    H170462   4.232   5.928   3.485 -0.3377  1.5488 -0.5468
16349TIP3    H270463   4.295   5.903   3.349  0.7626  1.0555  0.0430
16350TIP3   OH270464   0.497   1.492   3.978  0.2569 -0.1523  0.1417
16350TIP3    H170465   0.442   1.462   3.905  3.5849  1.6471 -3.4429
16350TIP3    H270466   0.465   1.580   3.997  0.7414  0.2205 -0.7218
16351TIP3   OH270467   2.911   5.883  12.671  0.0086  0.0957 -0.0469
16351TIP3    H170468   2.963   5.959  12.646 -0.1349  0.5474  0.9645
16351TIP3    H270469   2.841   5.879  12.606 -0.3620  1.2346  0.2606
16352TIP3   OH270470   4.254   3.812  14.570  0.2712 -0.2924  0.2301
16352TIP3    H170471   4.291   3.844  14.652 -0.0676  0.4744  0.0925
16352TIP3    H270472   4.168   3.854  14.564  0.2412 -0.4358 -0.4595
16353TIP3   OH270473   5.987   6.600   6.032 -0.1854 -0.0454  0.4583
16353TIP3    H170474   6.011   6.516   6.072  1.4627 -0.6710 -1.6731
16353TIP3    H270475   5.938   6.646   6.101  1.3484 -1.5610  2.7241
16354TIP3   OH270476   2.398   5.898  16.632  0.5293 -0.3282  0.4600
16354TIP3    H170477   2.307   5.901  16.602  0.9567 -1.7392 -1.0970
16354TIP3    H270478   2.448   5.943  16.564  1.1376 -0.6426  0.6874
16355TIP3   OH270479   4.758   4.522  11.398 -0.2467 -0.0174 -0.0255
16355TIP3    H170480   4.695   4.488  11.335  0.7785  0.5977 -1.4529
16355TIP3    H270481   4.709   4.531  11.479 -1.1975 -2.3915 -0.2723
16356TIP3   OH270482   5.509   5.268   2.732 -0.3032  0.2092  0.4453
16356TIP3    H170483   5.415   5.264   2.716 -0.2766 -0.6963  0.4204
16356TIP3    H270484   5.527   5.191   2.787  0.1386  1.3709  1.9831
16357TIP3   OH270485   4.980   2.892   0.121  0.0722  0.3798  0.8422
16357TIP3    H170486   4.886   2.888   0.102  0.1756  0.4689  0.3137
16357TIP3    H270487   4.984   2.893   0.217 -0.4926  1.0306  0.8722
16358TIP3   OH270488   2.998   2.244   5.958  0.0423  0.0088  1.0117
16358TIP3    H170489   2.984   2.335   5.931  1.1707  0.6559  2.4918
16358TIP3    H270490   2.910   2.207   5.962 -0.3098 -0.0302 -2.8389
16359TIP3   OH270491   2.174   4.571   0.332  0.0461 -0.6246  1.1856
16359TIP3    H170492   2.222   4.646   0.368  1.0536 -0.3259 -0.6555
16359TIP3    H270493   2.241   4.503   0.320  0.0248 -0.2896 -1.2104
16360TIP3   OH270494   5.741   5.530  11.984 -1.0088  0.1849  0.3452
16360TIP3    H170495   5.722   5.437  11.993 -0.8016  0.1994  0.9619
16360TIP3    H270496   5.795   5.535  11.905 -2.4489 -0.0013 -0.6958
16361TIP3   OH270497   3.467   1.064   2.929  0.2591 -0.3547  0.4303
16361TIP3    H170498   3.554   1.027   2.944  0.6059 -0.5020 -1.5644
16361TIP3    H270499   3.478   1.158   2.943  0.4943 -0.4829  1.1273
16362TIP3   OH270500   3.792   2.639   0.601  0.0647 -0.0578  0.1411
16362TIP3    H170501   3.787   2.705   0.669 -2.0755 -1.2355  1.2431
16362TIP3    H270502   3.808   2.557   0.648  1.3711 -0.5333 -1.0624
16363TIP3   OH270503   0.097   4.386   5.205  0.5669 -0.3525  0.2291
16363TIP3    H170504   0.092   4.303   5.158  0.0209 -0.5782  0.6725
16363TIP3    H270505   0.180   4.383   5.251  0.1984 -0.9921  0.8596
16364TIP3   OH270506   3.144   0.042   2.955 -0.0295  0.5507  0.0574
16364TIP3    H170507   3.079   0.059   3.023 -0.3486  1.2020 -0.3917
16364TIP3    H270508   3.098   0.059   2.873  0.8659  1.6550 -0.2505
16365TIP3   OH270509   1.032   4.502   0.576  0.0583  0.2890 -0.3700
16365TIP3    H170510   1.000   4.563   0.510 -0.5395  1.3356  0.8558
16365TIP3    H270511   1.093   4.445   0.528 -1.2619  0.2345 -2.0689
16366TIP3   OH270512   0.203   4.398  11.519  0.0413  0.3218 -0.0889
16366TIP3    H170513   0.172   4.309  11.502 -0.1302  0.7595 -2.2727
16366TIP3    H270514   0.290   4.401  11.480  0.4923  0.8198  0.9157
16367TIP3   OH270515   1.789   4.903   2.308 -0.0206  0.2524  0.3556
16367TIP3    H170516   1.726   4.958   2.355 -2.3191 -1.6530 -0.2833
16367TIP3    H270517   1.800   4.827   2.365 -2.2368 -1.7252 -1.6448
16368TIP3   OH270518   2.592   3.889  17.308 -0.2586  0.0037  0.2546
16368TIP3    H170519   2.667   3.844  17.347  0.2732  0.8746  0.2690
16368TIP3    H270520   2.540   3.918  17.383 -0.6943 -0.7300  0.2407
16369TIP3   OH270521   6.680   6.371   2.396  0.8189  0.5864  0.7479
16369TIP3    H170522   6.626   6.439   2.436 -3.2833 -2.3949  0.8526
16369TIP3    H270523   6.744   6.350   2.464 -1.1404  0.8563  2.8144
16370TIP3   OH270524   3.858   4.951   4.706  0.8862 -0.3645  0.3351
16370TIP3    H170525   3.784   4.895   4.732 -0.2017  0.8535 -0.0067
16370TIP3    H270526   3.888   4.914   4.623 -0.1826 -0.1534 -0.1729
16371TIP3   OH270527   0.274   6.315  13.313 -0.4206  0.3710  0.5283
16371TIP3    H170528   0.210   6.385  13.297  1.5990  1.7855 -2.3284
16371TIP3    H270529   0.323   6.345  13.389  1.5202  3.2074 -1.5943
16372TIP3   OH270530   1.501   4.751   6.195  0.0264 -0.1823  0.6282
16372TIP3    H170531   1.510   4.668   6.243  0.9653  0.3076  1.3493
16372TIP3    H270532   1.488   4.817   6.264  1.4230  0.5404  0.2444
16373TIP3   OH270533   5.299   1.026   1.636 -0.2917 -0.0760  0.0825
16373TIP3    H170534   5.291   1.108   1.685 -2.3012 -0.6855  0.9022
16373TIP3    H270535   5.243   1.040   1.559 -0.9140 -0.7690  0.3989
16374TIP3   OH270536   4.211   5.720  14.178 -0.2833 -0.1811  0.0255
16374TIP3    H170537   4.283   5.687  14.232 -0.7917  1.5786  1.8714
16374TIP3    H270538   4.133   5.707  14.232 -1.0847 -0.0806 -1.0784
16375TIP3   OH270539   2.158   1.916   1.820 -0.3102 -0.3386 -0.4602
16375TIP3    H170540   2.164   1.905   1.725 -0.6291 -0.3792 -0.4762
16375TIP3    H270541   2.154   2.011   1.832 -0.4434 -0.3380 -0.5005
16376TIP3   OH270542   2.566   3.033   3.033 -0.7960  0.4200  0.6054
16376TIP3    H170543   2.578   3.040   3.128 -0.9462  1.1433  0.5803
16376TIP3    H270544   2.607   3.112   2.998 -0.0909 -0.1999  0.0004
16377TIP3   OH270545   5.674   6.048  12.142  0.1833 -0.5318  0.1403
16377TIP3    H170546   5.664   6.130  12.092  0.4272  0.0676  1.0449
16377TIP3    H270547   5.768   6.042  12.158  0.2753 -1.4717 -0.6811
16378TIP3   OH270548   1.974   6.391   5.837  0.0390 -0.4600  0.4137
16378TIP3    H170549   1.959   6.439   5.755  1.0277 -0.5551  0.1659
16378TIP3    H270550   1.921   6.437   5.902 -0.7136 -0.3480 -0.2655
16379TIP3   OH270551   4.819   0.350   1.639  0.0164 -0.1575 -0.6082
16379TIP3    H170552   4.899   0.400   1.626 -0.4832  1.5259  1.9400
16379TIP3    H270553   4.767   0.403   1.700 -2.0559 -2.2424 -0.3931
16380TIP3   OH270554   3.446   4.431  12.962  0.1625 -0.0574 -0.2085
16380TIP3    H170555   3.487   4.503  12.914  0.4178  0.6871  1.0730
16380TIP3    H270556   3.431   4.466  13.050 -1.9178 -0.7715 -0.2140
16381TIP3   OH270557   4.516   5.675  16.679  0.3434 -0.3911  0.1490
16381TIP3    H170558   4.571   5.616  16.730  0.2876  0.1045  0.7902
16381TIP3    H270559   4.566   5.757  16.674  0.8857 -0.7843 -1.6073
16382TIP3   OH270560   4.124   5.526  10.757 -0.2607 -0.1449 -0.0541
16382TIP3    H170561   4.217   5.508  10.768  0.1122 -0.6712 -3.1777
16382TIP3    H270562   4.093   5.459  10.696 -1.9837  1.7581 -1.4064
16383TIP3   OH270563   2.215   4.802  16.356 -0.4433 -0.5108  0.1848
16383TIP3    H170564   2.227   4.880  16.302  1.8875 -1.3063 -0.5941
16383TIP3    H270565   2.130   4.813  16.397 -0.7284  1.8158 -0.9044
16384TIP3   OH270566   6.049   4.564   0.895  0.1812 -0.0036 -0.5139
16384TIP3    H170567   6.113   4.625   0.859 -0.3832  0.1551 -1.2551
16384TIP3    H270568   6.078   4.550   0.985  0.7458  0.7701 -0.5664
16385TIP3   OH270569   5.035   6.458  12.392 -0.3132 -0.1972  0.5661
16385TIP3    H170570   5.055   6.499  12.475 -1.7183  0.7231  0.4771
16385TIP3    H270571   5.121   6.437  12.354  0.4230  1.8323  1.0177
16386TIP3   OH270572   3.352   1.606   2.769  0.0389  0.3240  0.5497
16386TIP3    H170573   3.312   1.686   2.736 -1.1763 -0.2667  0.5418
16386TIP3    H270574   3.331   1.539   2.704  0.6874 -0.1006  0.7561
16387TIP3   OH270575   5.562   6.625  15.767  0.0859  0.0653  0.1065
16387TIP3    H170576   5.507   6.599  15.694  1.9022 -1.4036 -0.8136
16387TIP3    H270577   5.649   6.635  15.729  0.7214  1.1357  1.7310
16388TIP3   OH270578   0.757   2.034  17.144  0.3027 -0.0738 -0.3166
16388TIP3    H170579   0.725   1.984  17.070  1.0363  2.1564 -2.2774
16388TIP3    H270580   0.727   2.124  17.128  1.9126  0.8166  1.1905
16389TIP3   OH270581   3.438   3.775   1.113  0.8956  0.3184 -0.4860
16389TIP3    H170582   3.495   3.699   1.125 -0.7045 -0.6954  1.4040
16389TIP3    H270583   3.352   3.745   1.145  0.5419  3.3474  1.8669
16390TIP3   OH270584   0.887   0.613   0.621  0.0628 -0.0544 -0.2340
16390TIP3    H170585   0.868   0.706   0.635 -1.3991 -0.1943 -1.0942
16390TIP3    H270586   0.894   0.576   0.709 -1.4446  0.4848  0.1452
16391TIP3   OH270587   0.210   5.899  11.414  0.4491 -0.1104 -0.3285
16391TIP3    H170588   0.204   5.804  11.411  1.0343 -0.1420 -2.3348
16391TIP3    H270589   0.121   5.929  11.432  0.0440 -1.0273 -0.7571
16392TIP3   OH270590   6.282   5.920  12.018 -0.5559  0.4723  0.9929
16392TIP3    H170591   6.310   5.911  11.926 -0.1964 -1.0794  1.2299
16392TIP3    H270592   6.197   5.964  12.013  0.0082  1.5015 -0.0041
16393TIP3   OH270593   4.222   1.805  13.447  0.1557 -0.7341  0.3877
16393TIP3    H170594   4.139   1.787  13.490 -0.0747 -0.0157  0.2651
16393TIP3    H270595   4.271   1.723  13.452 -0.3760 -1.0251  0.8746
16394TIP3   OH270596   5.843   3.678  13.973  0.6893 -0.2797 -0.4449
16394TIP3    H170597   5.920   3.680  14.030 -1.4408  0.1558  2.6765
16394TIP3    H270598   5.801   3.595  13.992 -1.4602  0.9916  0.7649
16395TIP3   OH270599   5.545   1.896   1.085 -0.4143  0.0052 -0.1278
16395TIP3    H170600   5.585   1.976   1.122 -0.1052 -0.2294  0.0525
16395TIP3    H270601   5.464   1.926   1.045  0.8881  0.8742 -2.3183
16396TIP3   OH270602   2.398   0.749   4.069 -0.8484 -0.1752 -0.2439
16396TIP3    H170603   2.483   0.786   4.092 -1.4095  1.1128 -0.1140
16396TIP3    H270604   2.411   0.710   3.983 -0.4588  1.2972 -0.8903
16397TIP3   OH270605   5.033   2.872   4.400  0.4822 -0.2169 -0.0872
16397TIP3    H170606   5.048   2.789   4.445 -3.2436 -0.7147  0.5027
16397TIP3    H270607   5.022   2.848   4.308 -1.8338 -0.6839  0.2427
16398TIP3   OH270608   1.807   3.537   6.389  0.0391  0.5256  0.1338
16398TIP3    H170609   1.852   3.616   6.420  0.7714 -0.3540  1.3619
16398TIP3    H270610   1.771   3.498   6.468 -0.8645 -0.0551 -0.5494
16399TIP3   OH270611   3.606   4.441  12.339  0.2504  0.1042  0.0480
16399TIP3    H170612   3.677   4.488  12.383 -1.1071  1.3829  0.9815
16399TIP3    H270613   3.598   4.483  12.254 -1.2820  2.0335  1.0602
16400TIP3   OH270614   4.583   3.313  13.952  0.3271 -0.1638  0.6846
16400TIP3    H170615   4.586   3.299  14.047  0.4327 -1.0100  0.5705
16400TIP3    H270616   4.573   3.225  13.916 -0.7780  0.2524 -0.0506
16401TIP3   OH270617   2.390   5.046  15.299 -0.4107 -0.2341 -0.2495
16401TIP3    H170618   2.346   5.108  15.357  1.8332  2.1463 -0.9424
16401TIP3    H270619   2.356   5.066  15.212  1.6240  1.3968 -0.7437
16402TIP3   OH270620   0.758   2.753   3.890 -0.1231 -0.3092 -0.2780
16402TIP3    H170621   0.767   2.793   3.977 -0.9219 -0.6312 -0.0294
16402TIP3    H270622   0.754   2.828   3.830  0.1144 -0.0699  0.0012
16403TIP3   OH270623   4.350   3.984  15.500  0.3295 -0.1015 -0.3294
16403TIP3    H170624   4.406   3.989  15.422 -1.1070  1.1066 -1.3418
16403TIP3    H270625   4.379   4.056  15.555  1.1838 -0.8101  0.1892
16404TIP3   OH270626   6.654   0.216  13.657  0.2896  0.0833  0.5139
16404TIP3    H170627   6.692   0.178  13.578  0.1274 -2.1660  1.4536
16404TIP3    H270628   6.726   0.266  13.696  0.6441  0.4206 -0.5444
16405TIP3   OH270629   4.216   2.355   0.962  0.2006  0.3823 -0.4545
16405TIP3    H170630   4.156   2.335   1.035  0.5811 -1.1156 -0.5198
16405TIP3    H270631   4.281   2.414   1.000  0.5650 -0.6104  0.5256
16406TIP3   OH270632   0.390   5.988   0.967 -0.3420  0.9129 -0.3498
16406TIP3    H170633   0.477   6.027   0.980 -0.6721  0.6861  4.2070
16406TIP3    H270634   0.330   6.058   0.991 -1.5127  0.8822 -2.9145
16407TIP3   OH270635   1.364   3.735  11.722 -0.2498  0.3018 -0.0335
16407TIP3    H170636   1.412   3.653  11.735 -1.9729 -0.4089  2.7359
16407TIP3    H270637   1.272   3.708  11.721 -0.9073  2.2047  1.8073
16408TIP3   OH270638   1.353   2.239   5.586  0.3244 -0.4380  0.2455
16408TIP3    H170639   1.371   2.332   5.570  0.2057 -0.3448  0.6314
16408TIP3    H270640   1.382   2.224   5.676 -2.0418 -0.1091  1.1479
16409TIP3   OH270641   5.690   5.131  10.576 -0.1671  0.4600  0.4002
16409TIP3    H170642   5.702   5.186  10.498  1.0836  0.7115  0.7461
16409TIP3    H270643   5.731   5.180  10.647  0.4619 -0.6514  0.8294
16410TIP3   OH270644   1.082   1.609  16.639  0.1161  0.1451 -0.1997
16410TIP3    H170645   1.174   1.585  16.646 -0.0262 -0.1996  0.6798
16410TIP3    H270646   1.073   1.685  16.698 -0.6944 -1.4720  1.8903
16411TIP3   OH270647   5.838   0.185   6.326 -0.0440  0.5253  0.3829
16411TIP3    H170648   5.749   0.203   6.295 -0.5402 -3.5123 -1.0835
16411TIP3    H270649   5.825   0.131   6.404  0.9780 -1.7433 -0.9208
16412TIP3   OH270650   3.238   0.451  16.144 -0.2525  0.1896  0.2580
16412TIP3    H170651   3.206   0.485  16.061  0.6525  0.1453 -0.1293
16412TIP3    H270652   3.198   0.365  16.152  0.6720 -0.3664 -0.7932
16413TIP3   OH270653   1.371   6.680  15.353  0.5550  0.1042  0.3927
16413TIP3    H170654   1.321   6.737  15.412  1.2820  1.1592  0.0217
16413TIP3    H270655   1.310   6.611  15.328 -0.1366  0.3332  1.4072
16414TIP3   OH270656   1.890   4.585   0.269 -0.1106  0.1363  0.5054
16414TIP3    H170657   1.976   4.615   0.296  0.9601  0.8395 -3.0999
16414TIP3    H270658   1.828   4.642   0.314  1.2242 -0.3147  3.0780
16415TIP3   OH270659   6.484   1.458   2.596 -0.6136  0.7735 -0.2518
16415TIP3    H170660   6.444   1.373   2.618 -0.0764  0.4857 -0.3750
16415TIP3    H270661   6.441   1.520   2.656 -1.5143  0.5405 -0.6345
16416TIP3   OH270662   1.047   1.132  11.880  0.0500  0.5136  0.6008
16416TIP3    H170663   1.064   1.211  11.931 -0.8587  0.5417  0.8769
16416TIP3    H270664   1.048   1.061  11.944 -1.4820  0.5962  0.7369
16417TIP3   OH270665   6.690   0.141   0.188 -0.1566  0.1519 -0.1401
16417TIP3    H170666   6.741   0.116   0.265 -1.2469 -1.3502  0.1480
16417TIP3    H270667   6.670   0.058   0.145 -0.2870  0.9046 -1.5786
16418TIP3   OH270668   4.956   0.286   5.233  0.0212  0.0449 -0.0012
16418TIP3    H170669   4.879   0.290   5.177 -0.0865  0.3685  0.1689
16418TIP3    H270670   5.001   0.369   5.218 -1.1486  1.1047  2.0073
16419TIP3   OH270671   2.965   4.837   0.849  0.2692  0.0713  0.0754
16419TIP3    H170672   3.022   4.797   0.784  0.0894  0.3159 -0.2354
16419TIP3    H270673   2.956   4.928   0.821 -1.5100 -0.3123 -0.7472
16420TIP3   OH270674   3.895   1.619   1.205  0.9017  0.7629 -0.3047
16420TIP3    H170675   3.880   1.544   1.261 -0.0505 -0.6574 -2.3540
16420TIP3    H270676   3.921   1.689   1.265  0.4260 -0.7852  1.8057
16421TIP3   OH270677   3.383   3.758  10.982  0.3114  0.0330 -0.4029
16421TIP3    H170678   3.292   3.728  10.979  0.6753 -1.7340  2.5195
16421TIP3    H270679   3.384   3.824  11.052  1.5994 -1.6135  1.2217
16422TIP3   OH270680   4.032   1.598  11.787 -0.0220  0.3513  0.4083
16422TIP3    H170681   4.007   1.533  11.721  0.2927  0.8182 -0.1907
16422TIP3    H270682   3.952   1.647  11.805 -0.3039 -0.3092  0.9986
16423TIP3   OH270683   5.801   4.461  16.173  0.0912 -0.1417  0.5307
16423TIP3    H170684   5.863   4.496  16.236 -0.2114 -1.0008  1.3358
16423TIP3    H270685   5.726   4.520  16.177 -0.0543 -0.3626  1.2216
16424TIP3   OH270686   0.379   6.730   3.165 -0.2947  0.0613  0.4930
16424TIP3    H170687   0.294   6.691   3.187  0.4552 -1.4367  0.8587
16424TIP3    H270688   0.407   6.774   3.245  0.2636 -1.3413  1.0989
16425TIP3   OH270689   1.702   5.006  12.910 -0.1726  0.2190  0.5234
16425TIP3    H170690   1.622   5.038  12.869 -0.2259  1.2261  1.3662
16425TIP3    H270691   1.690   4.911  12.915 -0.5251  0.1595 -0.9758
16426TIP3   OH270692   0.078   0.034  17.201  0.1478 -0.5774 -0.9439
16426TIP3    H170693   0.095  -0.047  17.152 -1.1428 -1.7456  0.4457
16426TIP3    H270694   0.115   0.017  17.287 -1.0630 -0.1006 -0.3199
16427TIP3   OH270695   0.184   3.702   0.997  0.1286 -0.3101  0.4794
16427TIP3    H170696   0.276   3.681   0.981  0.0955 -0.7502  0.8606
16427TIP3    H270697   0.150   3.729   0.911  0.4660 -0.7099  0.2218
16428TIP3   OH270698   1.519   3.419  13.015  0.0246 -0.0392  0.2670
16428TIP3    H170699   1.435   3.383  12.987  0.5868 -2.1617  1.1188
16428TIP3    H270700   1.499   3.464  13.097 -0.3978  0.2165  0.0341
16429TIP3   OH270701   5.849   0.301  17.388  0.5676 -0.7743  0.0897
16429TIP3    H170702   5.827   0.392  17.408  0.4148 -0.5908 -0.8718
16429TIP3    H270703   5.906   0.273  17.460  0.9930  0.2267  0.1456
16430TIP3   OH270704   5.255   2.455  12.602 -0.1632  0.0786 -0.1233
16430TIP3    H170705   5.313   2.412  12.664  0.3449  1.3629  0.3148
16430TIP3    H270706   5.192   2.387  12.577  1.0760 -1.1344 -0.0627
16431TIP3   OH270707   6.626   3.459   3.093 -0.0507  0.5213 -0.0222
16431TIP3    H170708   6.712   3.439   3.130 -0.0517 -0.5583 -0.5673
16431TIP3    H270709   6.631   3.428   3.002 -1.7529 -1.8245  0.5645
16432TIP3   OH270710   1.390   0.140  14.023  0.1009 -0.1724  0.3761
16432TIP3    H170711   1.460   0.203  14.035  0.4330 -0.5669  0.5416
16432TIP3    H270712   1.391   0.120  13.930  0.3920 -0.3830  0.4224
16433TIP3   OH270713   0.526   4.989  12.358 -0.2761  0.5765 -0.3195
16433TIP3    H170714   0.444   5.039  12.359 -1.0613 -0.6792 -0.3179
16433TIP3    H270715   0.509   4.915  12.299  0.5676 -0.1756  0.3443
16434TIP3   OH270716   4.539   1.560  13.819 -0.1102  0.4699  0.2080
16434TIP3    H170717   4.563   1.627  13.754  1.1170  1.2981  1.4344
16434TIP3    H270718   4.459   1.520  13.785  0.0804  1.3916 -1.4173
16435TIP3   OH270719   1.448   6.374   3.890 -0.1946  0.3462 -0.4812
16435TIP3    H170720   1.446   6.441   3.958 -3.4147  0.6922 -0.7506
16435TIP3    H270721   1.384   6.309   3.919  0.0108 -0.6408 -2.1009
16436TIP3   OH270722   5.912   1.269  17.250 -0.1187  0.1550  0.3742
16436TIP3    H170723   5.942   1.182  17.276  0.5640  0.1494 -0.3881
16436TIP3    H270724   5.977   1.299  17.186 -1.5088  0.3142 -1.0210
16437TIP3   OH270725   2.372   1.488   6.100 -0.0047  0.2404  0.0774
16437TIP3    H170726   2.290   1.536   6.109 -0.6263 -1.0724  2.3930
16437TIP3    H270727   2.440   1.556   6.106 -0.8896  1.1888 -0.3226
16438TIP3   OH270728   3.851   1.755   4.675 -0.0067  0.0042  0.0902
16438TIP3    H170729   3.897   1.815   4.616 -1.1112  0.7148 -0.0905
16438TIP3    H270730   3.869   1.788   4.763  1.9098 -1.2463  0.2249
16439TIP3   OH270731   6.609   3.037   0.205 -0.3798  0.3137  0.4567
16439TIP3    H170732   6.598   3.029   0.299  0.2491 -0.8311  0.4458
16439TIP3    H270733   6.650   2.955   0.178  0.3462  1.0183 -0.6721
16440TIP3   OH270734   3.294   4.510  14.761 -0.5645 -0.6729  0.2658
16440TIP3    H170735   3.359   4.441  14.775 -1.4282 -1.4777  0.4060
16440TIP3    H270736   3.212   4.463  14.748 -1.0102  0.3107 -0.5533
16441TIP3   OH270737   5.511   0.502  10.546  0.2033  0.4049  0.1571
16441TIP3    H170738   5.535   0.457  10.465 -1.0619 -1.2900  0.6547
16441TIP3    H270739   5.588   0.491  10.602  0.5821  0.4138 -0.3507
16442TIP3   OH270740   2.476   5.900   4.469 -0.2657 -0.5336  0.4971
16442TIP3    H170741   2.393   5.872   4.431 -0.0653 -0.0305 -0.3238
16442TIP3    H270742   2.458   5.986   4.507 -0.5801 -1.2204  1.9814
16443TIP3   OH270743   4.888   2.399   5.287  0.2332 -0.8157  0.2180
16443TIP3    H170744   4.885   2.303   5.284 -1.1669 -0.7620 -1.1585
16443TIP3    H270745   4.859   2.420   5.376 -1.5709 -1.6484 -0.1267
16444TIP3   OH270746   1.932   4.042   2.929  0.2622 -0.5335 -0.0851
16444TIP3    H170747   1.929   3.967   2.869 -2.1628 -0.4537 -0.1984
16444TIP3    H270748   1.856   4.029   2.986 -1.2992  2.6704 -1.1982
16445TIP3   OH270749   2.934   6.672  12.485  0.5374 -0.0029 -0.5142
16445TIP3    H170750   2.939   6.755  12.534  2.2141 -1.7773  2.6947
16445TIP3    H270751   2.874   6.618  12.536  0.3896 -1.1533 -1.8679
16446TIP3   OH270752   5.360   3.638  16.247 -0.1050 -0.5630  0.0589
16446TIP3    H170753   5.377   3.709  16.308 -0.1422 -0.4813 -0.0267
16446TIP3    H270754   5.420   3.568  16.274 -0.9475 -0.9649  0.9181
16447TIP3   OH270755   6.385   0.739  13.788  0.3577  0.1462  0.1104
16447TIP3    H170756   6.461   0.781  13.748 -0.0955  1.7117  0.8154
16447TIP3    H270757   6.394   0.758  13.882  0.6864 -2.2841  0.6468
16448TIP3   OH270758   2.764   2.262   4.907 -0.1160  0.0924 -0.1371
16448TIP3    H170759   2.672   2.235   4.909 -0.0659 -0.3726 -2.2261
16448TIP3    H270760   2.802   2.213   4.834  1.4429  1.3916 -0.2568
16449TIP3   OH270761   4.813   2.303   1.418  0.6450  0.9552 -0.5323
16449TIP3    H170762   4.753   2.325   1.346 -0.8987  1.3113  0.7841
16449TIP3    H270763   4.829   2.209   1.408 -0.6204  0.7286 -0.6080
16450TIP3   OH270764   0.802   4.208  13.119  0.2099 -0.2104 -0.3184
16450TIP3    H170765   0.885   4.161  13.128  1.3126  1.8253  1.0233
16450TIP3    H270766   0.824   4.286  13.068 -0.8753  0.3507  0.0319
16451TIP3   OH270767   0.953   2.941   4.121  0.0278 -0.0884 -0.4505
16451TIP3    H170768   0.947   3.025   4.076  1.7426  0.1861 -0.2140
16451TIP3    H270769   0.945   2.963   4.214  0.2710 -0.2186 -0.3982
16452TIP3   OH270770   0.162   0.469  16.008 -0.1254  0.1880 -0.2328
16452TIP3    H170771   0.152   0.437  16.098 -0.4539  2.7832  0.7547
16452TIP3    H270772   0.118   0.404  15.954  1.6244 -2.3786  1.2429
16453TIP3   OH270773   1.801   1.125  15.433 -0.0444 -0.6255  0.0546
16453TIP3    H170774   1.836   1.047  15.391  0.1107 -1.9347  2.4245
16453TIP3    H270775   1.727   1.092  15.485  0.0509  0.7986  1.1355
16454TIP3   OH270776   2.643   1.687   5.829  0.0856  0.4929  0.9184
16454TIP3    H170777   2.722   1.693   5.774 -0.4625  1.2309  0.1915
16454TIP3    H270778   2.623   1.777   5.852 -2.0640  0.6582 -1.1493
16455TIP3   OH270779   4.907   2.527  13.854  0.0561  0.0902  0.2982
16455TIP3    H170780   4.940   2.462  13.916  1.0159  0.3243  0.0463
16455TIP3    H270781   4.929   2.491  13.768  1.9687  1.4277  0.1828
16456TIP3   OH270782   3.450   2.852   2.620 -0.1601  0.6494  0.1502
16456TIP3    H170783   3.521   2.912   2.642 -1.3869  2.6821 -1.1066
16456TIP3    H270784   3.489   2.790   2.558  0.6670  1.3854 -0.0851
16457TIP3   OH270785   5.523   4.330  13.698 -0.6690 -0.0385  0.3955
16457TIP3    H170786   5.481   4.250  13.728  0.5329 -0.9456 -0.2486
16457TIP3    H270787   5.452   4.384  13.663 -1.2232 -1.9571 -1.6391
16458TIP3   OH270788   1.022   0.662  15.095  0.2853  0.2570  0.0687
16458TIP3    H170789   1.117   0.661  15.101  0.3118  0.6892 -0.2733
16458TIP3    H270790   0.993   0.701  15.178  0.5121  2.5009 -0.8320
16459TIP3   OH270791   6.663   6.409  14.933  0.6395 -0.2124 -0.8649
16459TIP3    H170792   6.676   6.355  15.012  1.4609 -1.2559 -1.6796
16459TIP3    H270793   6.568   6.419  14.927  0.5307 -0.6075 -0.0628
16460TIP3   OH270794   3.559   1.973  16.781  0.5840  0.2264  0.6734
16460TIP3    H170795   3.570   1.884  16.747 -1.1836  0.1787  0.0932
16460TIP3    H270796   3.464   1.986  16.783  0.7708  1.6281  2.0328
16461TIP3   OH270797   1.436   3.960   5.905  0.2629 -0.2219 -0.7206
16461TIP3    H170798   1.440   4.019   5.980 -2.3058 -1.6655  0.7045
16461TIP3    H270799   1.527   3.934   5.890  0.9956  1.0322  1.1193
16462TIP3   OH270800   5.958   2.050  13.545  0.0403  0.3685  0.0484
16462TIP3    H170801   5.867   2.075  13.562 -0.1935 -0.4026 -0.0327
16462TIP3    H270802   6.000   2.131  13.519 -1.3992  0.2443 -3.1755
16463TIP3   OH270803   1.194   5.936  12.243  0.8114  0.1980  0.5511
16463TIP3    H170804   1.159   5.850  12.223  0.0895  0.3567  1.1042
16463TIP3    H270805   1.229   5.968  12.160  0.0489 -0.1487  0.0942
16464TIP3   OH270806   1.990   4.165  14.290 -0.2723  0.0038  0.0640
16464TIP3    H170807   1.990   4.240  14.231 -2.6725 -0.0796 -0.1214
16464TIP3    H270808   2.037   4.097  14.243 -0.2246  0.6200 -0.7987
16465TIP3   OH270809   1.075   2.593  16.591  0.1348 -0.5269 -0.5166
16465TIP3    H170810   1.102   2.629  16.507  1.6597 -1.6396 -0.5385
16465TIP3    H270811   1.069   2.499  16.576  0.8627 -0.7943  0.7261
16466TIP3   OH270812   5.648   4.228   3.308  0.0537 -0.6641 -0.7628
16466TIP3    H170813   5.710   4.228   3.236  2.5746  1.8141  1.2073
16466TIP3    H270814   5.585   4.296   3.286 -0.0174 -0.8695 -1.2149
16467TIP3   OH270815   2.867   1.255   3.443  0.0192 -0.4373 -0.1191
16467TIP3    H170816   2.936   1.268   3.377  1.3948 -1.5985  1.0285
16467TIP3    H270817   2.848   1.344   3.474 -0.2838  0.0802 -1.6740
16468TIP3   OH270818   6.224   6.227  17.031  0.1232  0.3509  0.3736
16468TIP3    H170819   6.281   6.288  16.984  0.7987 -0.0970  0.5937
16468TIP3    H270820   6.263   6.221  17.118 -0.3571  0.1573  0.5772
16469TIP3   OH270821   5.844   0.964  13.187 -0.2779 -0.1678  0.3173
16469TIP3    H170822   5.896   0.899  13.140  0.6650  0.3588  0.5871
16469TIP3    H270823   5.831   0.926  13.274  3.0154  1.2340  1.5900
16470TIP3   OH270824   1.348   2.063  15.907  0.3218 -0.0736 -0.1060
16470TIP3    H170825   1.309   2.113  15.836  2.8475  1.1230 -0.7708
16470TIP3    H270826   1.439   2.050  15.881  1.4674  0.6929  2.9783
16471TIP3   OH270827   5.700   2.751   2.903  0.0309  0.6439  0.5960
16471TIP3    H170828   5.702   2.665   2.862 -0.2917  1.0212 -0.2367
16471TIP3    H270829   5.791   2.768   2.928 -0.1696 -0.6572  2.3457
16472TIP3   OH270830   6.636   0.386   3.722 -0.4094 -0.4060  0.3338
16472TIP3    H170831   6.582   0.408   3.799 -0.7853  0.9964 -0.2939
16472TIP3    H270832   6.725   0.410   3.748 -0.2138 -1.7486  0.9979
16473TIP3   OH270833   5.628   3.182  14.024 -0.2495  0.0611 -0.3845
16473TIP3    H170834   5.553   3.151  14.076 -0.6214  1.0729 -0.2991
16473TIP3    H270835   5.698   3.121  14.045 -0.5840  0.0542  0.7949
16474TIP3   OH270836   1.254   6.117  15.409 -0.0124  0.0886 -0.0068
16474TIP3    H170837   1.348   6.105  15.405  0.1439  1.3741 -0.5236
16474TIP3    H270838   1.219   6.058  15.342  0.3984 -0.5277  0.3124
16475TIP3   OH270839   2.714   2.745   1.326  0.0549  0.3576 -0.4161
16475TIP3    H170840   2.676   2.833   1.315  1.5010  1.1457  0.6105
16475TIP3    H270841   2.805   2.756   1.300 -0.3895 -1.6155 -3.3474
16476TIP3   OH270842   2.712   2.382  14.804 -0.3196 -0.1041  0.1223
16476TIP3    H170843   2.725   2.380  14.899 -0.1378  1.3207  0.1487
16476TIP3    H270844   2.747   2.467  14.777  0.5806 -0.9181 -1.3760
16477TIP3   OH270845   2.676   2.838   5.066  0.9500 -0.2185  0.0063
16477TIP3    H170846   2.634   2.762   5.027  2.3512 -1.4459  0.8019
16477TIP3    H270847   2.607   2.879   5.119 -0.0879 -0.3338 -1.1982
16478TIP3   OH270848   1.290   5.295  15.559  0.4073 -0.0212  0.2908
16478TIP3    H170849   1.249   5.359  15.501 -0.5333  0.5067  1.5037
16478TIP3    H270850   1.227   5.223  15.563  1.0063 -0.5934 -0.2586
16479TIP3   OH270851   5.531   0.835   4.803  0.0592  0.0258 -0.1111
16479TIP3    H170852   5.565   0.748   4.822  0.3133  0.2732  0.6141
16479TIP3    H270853   5.436   0.823   4.795  0.1036 -0.3312 -0.1095
16480TIP3   OH270854   1.392   5.506   6.141 -0.2325  0.5726  0.1523
16480TIP3    H170855   1.446   5.505   6.220 -1.9390 -0.4556  1.3726
16480TIP3    H270856   1.454   5.492   6.070  1.1710 -0.0494  1.4280
16481TIP3   OH270857   3.039   1.481   5.011 -0.3432 -0.2145 -0.0247
16481TIP3    H170858   3.063   1.432   4.932  3.0383 -0.1657  0.7992
16481TIP3    H270859   3.043   1.416   5.081 -1.7613  0.0706  0.3413
16482TIP3   OH270860   3.913   0.230   3.453 -0.3296  0.5294  0.3736
16482TIP3    H170861   3.927   0.323   3.466  0.2205  0.4073  0.6617
16482TIP3    H270862   3.818   0.218   3.464 -0.3380  0.9761  0.8155
16483TIP3   OH270863   3.241   6.719   1.285 -0.1509 -0.1856  0.5702
16483TIP3    H170864   3.299   6.766   1.345  0.6113  0.9912 -1.0162
16483TIP3    H270865   3.231   6.778   1.210 -0.8570 -1.6944 -0.5806
16484TIP3   OH270866   6.410   0.703   2.601 -0.1131 -0.5529  0.0573
16484TIP3    H170867   6.321   0.704   2.636 -0.5820 -0.3877 -1.1110
16484TIP3    H270868   6.463   0.740   2.672 -1.1198  0.3199  0.3877
16485TIP3   OH270869   4.005   6.427   0.406  0.7220  0.3215 -0.2679
16485TIP3    H170870   3.963   6.472   0.333 -0.7896 -0.0847  0.3095
16485TIP3    H270871   4.074   6.487   0.434 -0.0609  1.4582 -0.6674
16486TIP3   OH270872   5.087   6.253  11.425 -0.0569  0.4077  0.0199
16486TIP3    H170873   5.164   6.195  11.433  1.3478  2.1353 -0.4104
16486TIP3    H270874   5.079   6.268  11.331 -1.1417 -0.0006  0.0374
16487TIP3   OH270875   2.640   4.820  17.323 -0.3285  0.0774 -0.1479
16487TIP3    H170876   2.611   4.878  17.394  1.2795 -0.7974  1.3101
16487TIP3    H270877   2.654   4.878  17.249  0.7862  1.5302  1.1377
16488TIP3   OH270878   5.249   5.485  16.979  0.7480  0.0766  0.5504
16488TIP3    H170879   5.215   5.558  17.032  1.7388  0.4770  0.6734
16488TIP3    H270880   5.310   5.440  17.038  2.1878  0.7752 -0.3296
16489TIP3   OH270881   1.401   5.431  12.244  0.1729  0.1826  0.0257
16489TIP3    H170882   1.360   5.508  12.284  1.9646  2.5376 -2.3382
16489TIP3    H270883   1.494   5.441  12.263  0.3034 -2.6248  1.4227
16490TIP3   OH270884   4.544   1.459  13.113  0.2481 -0.4383  0.0232
16490TIP3    H170885   4.517   1.390  13.174  0.5207 -0.7454 -0.1994
16490TIP3    H270886   4.531   1.420  13.026  2.2471 -0.9465 -0.0977
16491TIP3   OH270887   1.984   2.476   5.424 -0.5802  0.4677  0.0505
16491TIP3    H170888   1.925   2.520   5.484 -1.4992 -0.0336 -0.4495
16491TIP3    H270889   1.932   2.404   5.388  0.3180  0.0500 -0.4575
16492TIP3   OH270890   3.458   3.640  13.367 -0.5516 -0.6891 -0.0895
16492TIP3    H170891   3.430   3.675  13.283 -0.3522  0.7996  0.4224
16492TIP3    H270892   3.393   3.672  13.430 -0.7893 -1.9127  0.3166
16493TIP3   OH270893   4.777   6.628  12.031 -0.2729  0.7043 -0.2252
16493TIP3    H170894   4.769   6.556  12.094 -0.6076 -0.5863 -1.6985
16493TIP3    H270895   4.820   6.589  11.955 -0.0339  2.1903 -0.8847
16494TIP3   OH270896   2.179   0.610   0.213  0.8256 -0.3259 -0.2247
16494TIP3    H170897   2.125   0.531   0.219  1.3703 -0.7081 -0.2826
16494TIP3    H270898   2.241   0.603   0.285  1.6563 -0.5583 -0.9375
16495TIP3   OH270899   2.412   0.173   5.955 -0.1414  0.2445  0.3236
16495TIP3    H170900   2.504   0.168   5.981 -0.1485  2.2599  0.9737
16495TIP3    H270901   2.403   0.262   5.920 -1.1359 -0.9408 -2.7950
16496TIP3   OH270902   5.960   2.626   2.246  0.1968 -0.0659  0.2260
16496TIP3    H170903   6.056   2.630   2.245  0.2357 -0.4458  1.0438
16496TIP3    H270904   5.932   2.715   2.264  0.2983  0.5269 -2.2066
16497TIP3   OH270905   3.701   2.821  12.438  0.1623 -0.0861  0.6550
16497TIP3    H170906   3.727   2.889  12.502 -2.1340  1.6326 -0.1168
16497TIP3    H270907   3.634   2.770  12.484  0.2496 -0.3898  0.4427
16498TIP3   OH270908   0.900   0.807   6.133 -0.0253 -0.2571 -0.2110
16498TIP3    H170909   0.829   0.744   6.144  0.8980 -1.2400  0.2382
16498TIP3    H270910   0.902   0.825   6.039 -0.8305 -0.2438 -0.2310
16499TIP3   OH270911   2.415   2.602  13.498 -0.1936  0.2348  0.2887
16499TIP3    H170912   2.502   2.581  13.464 -0.6696  1.0295 -1.5013
16499TIP3    H270913   2.372   2.517  13.506  0.2945 -0.0583 -0.0892
16500TIP3   OH270914   5.657   0.788   2.799 -0.1014  0.3836 -0.4412
16500TIP3    H170915   5.699   0.775   2.714  1.1307  2.6306 -0.2571
16500TIP3    H270916   5.564   0.794   2.780  0.1623  0.8140 -1.6344
16501TIP3   OH270917   5.924   1.941   4.002  0.2452  0.5014 -0.6265
16501TIP3    H170918   5.950   1.860   3.958 -1.8119  0.6418 -2.2923
16501TIP3    H270919   5.934   2.009   3.934  0.3326  1.3536  0.2193
16502TIP3   OH270920   4.793   5.899  13.226 -0.4058 -0.0941  0.3146
16502TIP3    H170921   4.709   5.890  13.181  0.8358 -1.7487 -1.8794
16502TIP3    H270922   4.771   5.938  13.310 -3.5307 -1.5899  0.3441
16503TIP3   OH270923   0.583   2.009  10.462  0.3811 -0.1428  0.2317
16503TIP3    H170924   0.494   2.029  10.432  0.8093  1.0385 -0.3184
16503TIP3    H270925   0.601   1.922  10.425 -0.3126 -0.1209 -0.1838
16504TIP3   OH270926   5.311   3.651   5.105 -0.2525  0.3593  0.4183
16504TIP3    H170927   5.253   3.575   5.104 -0.1612  0.2459  2.2143
16504TIP3    H270928   5.327   3.669   5.012 -0.6891 -1.4810 -0.0549
16505TIP3   OH270929   0.610   6.082  14.555  0.1206 -0.2536 -0.8346
16505TIP3    H170930   0.596   6.130  14.474 -0.5634  2.9517  1.0159
16505TIP3    H270931   0.704   6.092  14.573  0.0139  0.3145 -0.5506
16506TIP3   OH270932   4.893   3.729  10.801 -0.2261  0.8190  0.3100
16506TIP3    H170933   4.880   3.642  10.837 -1.8324  0.9634  0.1328
16506TIP3    H270934   4.955   3.770  10.861 -0.8247  0.1560  1.4143
16507TIP3   OH270935   5.915   2.965  13.396  0.0524 -0.1312 -0.1807
16507TIP3    H170936   5.940   2.890  13.450 -0.1693 -0.8937 -1.0912
16507TIP3    H270937   5.820   2.968  13.402  0.0519 -0.0143 -0.2495
16508TIP3   OH270938   1.271   3.873   6.224 -0.9586  0.2648 -0.1535
16508TIP3    H170939   1.321   3.855   6.145 -1.7988  0.1403 -0.6655
16508TIP3    H270940   1.333   3.856   6.296  0.3293  1.9610 -0.7805
16509TIP3   OH270941   1.452   4.080  15.288  0.0875 -0.3936 -0.4677
16509TIP3    H170942   1.497   4.086  15.372 -0.6003 -0.1151 -0.1107
16509TIP3    H270943   1.433   3.987  15.278  1.1520 -0.5872 -0.8556
16510TIP3   OH270944   4.430   6.459  12.651 -0.1240  0.2212 -0.4660
16510TIP3    H170945   4.477   6.384  12.616 -0.5943 -0.5225  0.4380
16510TIP3    H270946   4.352   6.421  12.693 -0.9352  1.3152 -0.9427
16511TIP3   OH270947   0.755   1.781   4.059 -0.0173 -0.0813  0.7086
16511TIP3    H170948   0.681   1.757   4.003  0.7449 -0.1456 -0.2949
16511TIP3    H270949   0.718   1.841   4.123 -0.9224 -0.0316  0.1617
16512TIP3   OH270950   0.948   4.544   5.127  0.2475 -0.5587 -0.3940
16512TIP3    H170951   0.913   4.459   5.099 -1.0025 -0.2760  0.2308
16512TIP3    H270952   0.871   4.596   5.148  1.0011  0.7368 -0.7350
16513TIP3   OH270953   2.366   5.563  12.121  0.3288 -0.4663  0.2034
16513TIP3    H170954   2.362   5.472  12.151 -1.3339 -0.7904 -0.8006
16513TIP3    H270955   2.280   5.578  12.080 -0.7441  2.5796  3.1431
16514TIP3   OH270956   3.978   3.544  11.588 -0.4604 -0.6657  0.3156
16514TIP3    H170957   4.026   3.627  11.593 -0.3627 -0.7710  1.7210
16514TIP3    H270958   3.908   3.554  11.653 -1.0451 -1.3248 -0.1990
16515TIP3   OH270959   2.400   4.673   5.309  0.0809  0.3797  0.5602
16515TIP3    H170960   2.311   4.640   5.301  0.1730  0.0343  0.9468
16515TIP3    H270961   2.449   4.601   5.349  0.0782  1.3133  2.3273
16516TIP3   OH270962   5.773   2.424   1.474 -0.5216  0.0209  0.4422
16516TIP3    H170963   5.721   2.501   1.495 -1.5713 -1.3842  3.5113
16516TIP3    H270964   5.847   2.427   1.534 -1.0715 -1.7651  1.2841
16517TIP3   OH270965   0.449   4.847  13.190  0.7901 -0.1554  0.0326
16517TIP3    H170966   0.402   4.870  13.270  1.9565 -1.5059  1.1659
16517TIP3    H270967   0.381   4.813  13.131  0.2266 -1.5659  1.4217
16518TIP3   OH270968   3.315   0.517  15.106  0.0623 -0.3731  0.1281
16518TIP3    H170969   3.225   0.501  15.135 -0.2603 -0.7636 -1.0480
16518TIP3    H270970   3.312   0.505  15.011  1.0071  1.2377 -0.1316
16519TIP3   OH270971   3.061   5.856  16.697  0.3806 -0.0760 -0.0678
16519TIP3    H170972   3.028   5.769  16.722  0.0305 -0.0180 -0.3262
16519TIP3    H270973   3.156   5.848  16.706  0.5184 -1.0899 -1.9376
16520TIP3   OH270974   4.065   1.543  13.073  0.2458  0.2466 -0.1823
16520TIP3    H170975   4.058   1.506  13.161  1.5432 -2.0242 -0.9517
16520TIP3    H270976   4.025   1.630  13.080  0.6654  0.3025  2.7186
16521TIP3   OH270977   5.236   1.493  13.025 -0.2579  0.0119  0.1760
16521TIP3    H170978   5.178   1.485  13.101  0.0338 -1.0070  0.3114
16521TIP3    H270979   5.272   1.405  13.013 -1.6323 -0.3252 -2.2086
16522TIP3   OH270980   4.755   6.440  17.250  0.1492  0.1768  0.1081
16522TIP3    H170981   4.726   6.373  17.312  2.4815  0.1099  1.2241
16522TIP3    H270982   4.808   6.392  17.186 -0.6921  0.5324 -0.8762
16523TIP3   OH270983   6.091   5.949   1.509 -0.1826  0.1180  0.2946
16523TIP3    H170984   6.077   5.903   1.591  1.5809  1.1089  1.1996
16523TIP3    H270985   6.010   5.935   1.460 -1.4316 -0.1780  2.3330
16524TIP3   OH270986   0.782   5.266   1.767  0.0245  0.3787 -0.4923
16524TIP3    H170987   0.873   5.280   1.794 -0.3133 -1.0073  1.5956
16524TIP3    H270988   0.770   5.171   1.769 -1.5317  0.5461 -0.4594
16525TIP3   OH270989   1.998   0.797  17.167 -0.1660  0.2918  0.3430
16525TIP3    H170990   1.919   0.839  17.201  0.5841  1.4811  0.6744
16525TIP3    H270991   2.005   0.716  17.216 -0.8573  0.4618  0.7346
16526TIP3   OH270992   3.563   4.215  14.393 -0.2365 -0.2853 -0.0913
16526TIP3    H170993   3.649   4.174  14.390  0.3735  0.8920  0.5483
16526TIP3    H270994   3.532   4.213  14.303  0.8881  0.1409 -0.5084
16527TIP3   OH270995   6.124   6.637  12.379 -0.2011 -0.2540 -0.0207
16527TIP3    H170996   6.150   6.593  12.460  0.2273 -0.3531 -0.2090
16527TIP3    H270997   6.117   6.729  12.403  0.3839 -0.2149  0.0301
16528TIP3   OH270998   4.255   1.657  13.834  0.3527 -0.1021  0.0280
16528TIP3    H170999   4.237   1.632  13.743 -2.4270  1.5036  0.0327
16528TIP3    H271000   4.290   1.746  13.828 -0.3074  0.2022  0.5107
16529TIP3   OH271001   3.895   5.994  15.485  0.4555 -0.1887 -0.2073
16529TIP3    H171002   3.972   6.004  15.430  0.8134 -0.6598  0.2123
16529TIP3    H271003   3.923   6.023  15.572  0.0208  0.1043 -0.1581
16530TIP3   OH271004   2.689   2.288   6.156 -0.4954 -0.1966 -0.7356
16530TIP3    H171005   2.710   2.204   6.115 -2.1429 -1.7034  1.2652
16530TIP3    H271006   2.606   2.272   6.200 -0.2847  2.1802  0.6648
16531TIP3   OH271007   4.737   1.312  14.129  0.0081  0.4757  0.2010
16531TIP3    H171008   4.649   1.274  14.120  0.3313 -0.4663  0.9207
16531TIP3    H271009   4.787   1.247  14.177  0.3886  2.1244  2.1624
16532TIP3   OH271010   4.333   5.146   6.581 -0.4327 -0.8829  0.5135
16532TIP3    H171011   4.326   5.151   6.676  1.4646  1.3666  0.6380
16532TIP3    H271012   4.244   5.155   6.549 -0.7726  3.0660  2.0543
16533TIP3   OH271013   3.353   3.245  12.153  0.0481  0.2028 -0.1288
16533TIP3    H171014   3.283   3.228  12.216 -0.3002  0.0628 -0.5455
16533TIP3    H271015   3.386   3.332  12.177  0.6423 -0.2839  0.9040
16534TIP3   OH271016   1.541   5.476   6.390 -0.2812  0.0321  0.6931
16534TIP3    H171017   1.612   5.413   6.384 -0.3070  0.0095  0.6324
16534TIP3    H271018   1.583   5.557   6.421 -0.2637 -0.0400  0.8595
16535TIP3   OH271019   0.004   6.392   4.320  0.2708 -0.0818  0.3372
16535TIP3    H171020  -0.014   6.360   4.231  1.0516  0.6719 -0.0984
16535TIP3    H271021   0.095   6.371   4.335  0.4996  0.9365  0.4611
16536TIP3   OH271022   1.843   6.429  15.775  0.8874  0.0125  0.1064
16536TIP3    H171023   1.890   6.506  15.807  1.7208 -0.2204 -0.4938
16536TIP3    H271024   1.753   6.441  15.804  1.1792  0.8125  0.7135
16537TIP3   OH271025   5.133   1.268   0.499 -0.4303  0.0149  0.3403
16537TIP3    H171026   5.210   1.309   0.460  0.4004 -0.8659  0.9977
16537TIP3    H271027   5.110   1.325   0.572 -0.4682  0.3360  0.0788
16538TIP3   OH271028   5.262   0.266   0.633 -0.2101  0.6212  0.4813
16538TIP3    H171029   5.352   0.249   0.661 -0.5853  2.2466  2.9838
16538TIP3    H271030   5.269   0.342   0.576 -0.0058  0.8623  0.8240
16539TIP3   OH271031   1.695   4.899   4.980  0.0954 -0.6467 -0.4493
16539TIP3    H171032   1.672   4.855   4.898  0.5824  0.0542 -0.9668
16539TIP3    H271033   1.672   4.991   4.966  0.6652 -0.4257  0.0133
16540TIP3   OH271034   4.243   3.863  12.953  0.1713 -0.6423  0.2911
16540TIP3    H171035   4.166   3.812  12.931  0.6742 -0.7613 -1.3885
16540TIP3    H271036   4.315   3.820  12.907  0.3904  2.2942 -2.5247
16541TIP3   OH271037   2.784   0.163  10.703 -0.2027 -0.2067  0.1840
16541TIP3    H171038   2.699   0.121  10.693 -0.4628 -0.0704  1.5760
16541TIP3    H271039   2.841   0.095  10.738 -0.4482  0.3788  1.7901
16542TIP3   OH271040   4.994   6.310   1.315  0.2931 -0.1502 -0.3619
16542TIP3    H171041   4.956   6.237   1.364  1.1342  0.3551  1.0978
16542TIP3    H271042   4.935   6.322   1.240 -0.5789 -1.4719  0.0866
16543TIP3   OH271043   5.557   0.855  15.586  0.1830 -0.1145  0.7970
16543TIP3    H171044   5.556   0.819  15.498  0.2835 -0.1988  0.8311
16543TIP3    H271045   5.535   0.781  15.643  0.3680 -0.1184  0.8643
16544TIP3   OH271046   3.960   4.542   5.124 -0.7727 -0.0276  0.3214
16544TIP3    H171047   3.870   4.534   5.158 -0.7448  0.6358  0.5784
16544TIP3    H271048   4.003   4.601   5.185  0.1397 -1.1033  0.7548
16545TIP3   OH271049   2.422   4.193  12.172  0.0251  0.1743 -0.6737
16545TIP3    H171050   2.453   4.281  12.152 -2.4679  1.4424  0.6349
16545TIP3    H271051   2.470   4.167  12.250  0.6467  0.4240 -0.9680
16546TIP3   OH271052   1.912   4.718  14.394  0.1616  0.2224  0.1644
16546TIP3    H171053   1.940   4.804  14.426  3.3474 -0.8052  0.4607
16546TIP3    H271054   1.962   4.705  14.313 -3.1325  0.1417 -2.0671
16547TIP3   OH271055   6.010   0.334   3.549  0.8003  0.1626  0.2663
16547TIP3    H171056   6.002   0.400   3.618 -0.5636 -0.4190  0.7112
16547TIP3    H271057   6.103   0.331   3.528  1.1609  0.7255  1.7162
16548TIP3   OH271058   0.464   2.909  12.302  0.2350  0.4619  0.4199
16548TIP3    H171059   0.438   2.915  12.394 -1.2039  1.2169 -0.0155
16548TIP3    H271060   0.559   2.901  12.306  0.1131 -0.7224  2.0128
16549TIP3   OH271061   1.350   1.656   6.499 -0.1844 -0.1865  0.6474
16549TIP3    H171062   1.384   1.746   6.497 -1.1471  0.2047  1.1787
16549TIP3    H271063   1.258   1.665   6.475  0.0402 -1.2283 -0.7754
16550TIP3   OH271064   5.139   5.156  16.684  0.9816 -0.0665 -0.5865
16550TIP3    H171065   5.183   5.240  16.699  1.4688 -0.1750 -1.3778
16550TIP3    H271066   5.198   5.092  16.725  1.4255 -0.1808 -1.3853
16551TIP3   OH271067   4.469   0.618  15.009  0.2582  0.9091 -0.1404
16551TIP3    H171068   4.494   0.537  15.054  1.1329  1.2895  0.0924
16551TIP3    H271069   4.375   0.611  14.999 -0.1405  1.1678  2.5559
16552TIP3   OH271070   0.312   2.327   2.668  0.3207  0.1849 -0.6236
16552TIP3    H171071   0.312   2.257   2.733 -0.8821  0.0464 -0.7505
16552TIP3    H271072   0.223   2.360   2.668  1.1414  2.6397  0.3662
16553TIP3   OH271073   0.386   3.385  12.097  0.0851  0.1461  0.2710
16553TIP3    H171074   0.435   3.457  12.136 -0.8700  0.4016  1.0369
16553TIP3    H271075   0.427   3.306  12.132  1.6977  0.2443 -1.2381
16554TIP3   OH271076   5.115   1.844   4.596 -0.1889 -0.0037 -0.2521
16554TIP3    H171077   5.074   1.928   4.572  1.1002  1.0406  1.0243
16554TIP3    H271078   5.080   1.782   4.533 -4.5008  0.5560  1.2814
16555TIP3   OH271079   5.619   3.126  15.145 -0.5100 -0.3019  0.4433
16555TIP3    H171080   5.606   3.156  15.236 -3.4091 -0.9460  0.3468
16555TIP3    H271081   5.594   3.202  15.092  2.2989  0.4699  0.0919
16556TIP3   OH271082   4.654   5.340  12.600 -0.1647 -0.4383  0.8386
16556TIP3    H171083   4.598   5.331  12.523  0.5125 -0.6243  0.3556
16556TIP3    H271084   4.603   5.302  12.672 -1.2280  0.6575  0.7003
16557TIP3   OH271085   3.145   3.444  14.442  0.0773 -0.3184 -0.6997
16557TIP3    H171086   3.181   3.366  14.400 -2.0947 -2.4623  1.1074
16557TIP3    H271087   3.119   3.501  14.369  2.3714 -0.8764 -2.0492
16558TIP3   OH271088   2.443   0.853   3.061 -0.6325 -0.2036 -0.0017
16558TIP3    H171089   2.384   0.780   3.082 -0.1274  0.1625  3.3824
16558TIP3    H271090   2.515   0.813   3.012 -0.3615 -2.0674  1.7764
16559TIP3   OH271091   6.259   4.578  11.540  0.4641 -0.0167 -0.4592
16559TIP3    H171092   6.260   4.603  11.448  0.7035 -1.2763 -0.8092
16559TIP3    H271093   6.224   4.655  11.585 -0.4294  0.3141 -1.6804
16560TIP3   OH271094   1.119   0.213  16.531 -0.1159  0.2309 -0.1866
16560TIP3    H171095   1.124   0.129  16.576  2.8449  0.4511  0.0933
16560TIP3    H271096   1.046   0.259  16.573 -0.3969 -1.3582  1.1475
16561TIP3   OH271097   3.536   3.209  12.399 -0.2606  0.5030  0.1533
16561TIP3    H171098   3.460   3.225  12.455 -0.4207 -1.5100  0.5781
16561TIP3    H271099   3.518   3.261  12.320 -2.6193 -0.6633 -0.1958
16562TIP3   OH271100   6.453   2.087  14.652  0.2695 -0.2674 -0.1251
16562TIP3    H171101   6.402   2.072  14.572  1.6073  0.1915 -1.0950
16562TIP3    H271102   6.420   2.171  14.685 -1.9178 -1.5241  1.1553
16563TIP3   OH271103   4.549   5.106   4.815 -0.0926  0.0370  0.1144
16563TIP3    H171104   4.627   5.109   4.870 -0.3734  0.9938  0.4868
16563TIP3    H271105   4.523   5.014   4.815 -0.1751  0.0369  1.7322
16564TIP3   OH271106   3.752   2.475   0.013  0.2831 -0.0106 -0.2953
16564TIP3    H171107   3.693   2.454   0.085 -0.2422  0.3475 -0.6186
16564TIP3    H271108   3.834   2.429   0.035  0.6903  1.3962  1.3431
16565TIP3   OH271109   2.475   5.647   5.147  0.2049  0.4166  0.1645
16565TIP3    H171110   2.429   5.595   5.212 -1.1668  0.5756 -0.6553
16565TIP3    H271111   2.426   5.729   5.142  0.6014  0.6133 -0.7021
16566TIP3   OH271112   1.883   2.782  15.406  0.8052  0.4140  0.0103
16566TIP3    H171113   1.906   2.694  15.377  1.1492  0.3904  0.3498
16566TIP3    H271114   1.804   2.770  15.458 -0.3180  0.5606 -1.5861
16567TIP3   OH271115   0.071   4.846   5.387 -0.4750 -0.7206 -0.7051
16567TIP3    H171116   0.144   4.785   5.385  0.9185  0.8801 -1.8381
16567TIP3    H271117   0.019   4.823   5.310  0.5443  0.0528 -1.6521
16568TIP3   OH271118   0.998   4.458   5.629 -0.0189 -0.3353 -0.1661
16568TIP3    H171119   0.924   4.445   5.688  0.7378 -0.0697  0.8746
16568TIP3    H271120   1.031   4.545   5.651 -0.3154  0.1830 -1.6740
16569TIP3   OH271121   1.133   3.385   4.289 -0.0138  0.0024 -0.0491
16569TIP3    H171122   1.124   3.437   4.369 -1.8382 -1.8567  1.0487
16569TIP3    H271123   1.049   3.394   4.245 -0.0221 -1.2463 -0.3151
16570TIP3   OH271124   4.925   2.008   2.365 -0.0775 -0.4674  0.4524
16570TIP3    H171125   4.925   1.962   2.449  0.1717  1.3346  1.5045
16570TIP3    H271126   4.982   1.956   2.308  1.3047 -0.7213  2.0038
16571TIP3   OH271127   1.421   1.851  15.299 -0.3933 -0.2615  0.5503
16571TIP3    H171128   1.342   1.801  15.283  0.0777 -1.0328  0.6027
16571TIP3    H271129   1.493   1.792  15.277  0.1961 -0.0583  1.8165
16572TIP3   OH271130   4.689   6.582   6.281  0.5912  0.0200  0.4327
16572TIP3    H171131   4.679   6.507   6.222 -0.5111  1.3491 -1.1482
16572TIP3    H271132   4.750   6.641   6.236  1.0777  0.3181  1.4339
16573TIP3   OH271133   1.285   6.185   1.209  0.4292 -0.2089 -0.1316
16573TIP3    H171134   1.273   6.213   1.118 -0.9926 -1.8971 -0.5255
16573TIP3    H271135   1.343   6.109   1.203 -1.0871 -1.4359  0.1309
16574TIP3   OH271136   4.333   0.370   3.345 -0.4947 -0.2022  0.3471
16574TIP3    H171137   4.276   0.318   3.401 -0.8759  1.4664  1.6043
16574TIP3    H271138   4.392   0.415   3.405 -0.8056  1.5197 -0.5469
16575TIP3   OH271139   4.583   5.421  17.211  0.1703  0.5370 -0.5916
16575TIP3    H171140   4.519   5.489  17.230  0.9595  1.2812 -0.5399
16575TIP3    H271141   4.550   5.380  17.130 -0.8534  0.2758 -0.0590
16576TIP3   OH271142   0.999   6.370  15.641  0.6458 -0.2833  0.4247
16576TIP3    H171143   1.081   6.322  15.634 -0.0792 -1.3789 -1.9298
16576TIP3    H271144   0.962   6.343  15.725  2.2649 -0.4381  1.1244
16577TIP3   OH271145   5.054   0.897   6.451 -0.3330 -0.5147  0.0992
16577TIP3    H171146   5.093   0.927   6.533 -0.5581  1.9008 -0.6103
16577TIP3    H271147   5.033   0.805   6.467  0.3904 -0.3362  2.4516
16578TIP3   OH271148   5.294   2.494  13.557 -0.3533  0.6192 -0.7261
16578TIP3    H171149   5.302   2.557  13.486 -0.2844  1.7815  0.2940
16578TIP3    H271150   5.362   2.518  13.620  0.7383 -1.4469 -1.0062
16579TIP3   OH271151   6.302   6.360  11.477 -0.1056 -0.6236 -0.3627
16579TIP3    H171152   6.262   6.431  11.427 -2.2516  0.3138  2.3860
16579TIP3    H271153   6.350   6.405  11.547  0.1638 -1.8602  0.2617
16580TIP3   OH271154   3.865   6.679  13.045 -0.4585  0.3451  0.8238
16580TIP3    H171155   3.952   6.663  13.008 -1.0413 -0.1712 -0.3778
16580TIP3    H271156   3.864   6.629  13.127 -0.4391 -1.6409 -0.3306
16581TIP3   OH271157   6.124   0.641   0.112 -0.2409 -0.0099 -0.5610
16581TIP3    H171158   6.163   0.666   0.028  1.8056  1.5998  0.7628
16581TIP3    H271159   6.179   0.569   0.143  0.7105  1.1207  0.5188
16582TIP3   OH271160   1.562   5.034   2.371 -0.1196  0.0620  0.1018
16582TIP3    H171161   1.514   5.117   2.377 -1.1670 -0.4594 -0.6661
16582TIP3    H271162   1.524   4.990   2.295  0.7201 -0.9357  0.2389
16583TIP3   OH271163   4.119   1.123   0.783  0.3698 -0.1517 -0.5003
16583TIP3    H171164   4.077   1.113   0.869  1.1142  0.4619 -0.0475
16583TIP3    H271165   4.048   1.113   0.720 -0.2241 -0.4262  0.1976
16584TIP3   OH271166   5.251   1.266   1.789  0.5387  0.2733 -0.1233
16584TIP3    H171167   5.198   1.239   1.864 -0.5924 -2.7604 -1.8464
16584TIP3    H271168   5.196   1.331   1.744 -1.3197 -1.8390 -1.1386
16585TIP3   OH271169   2.940   3.320  11.629  0.9296 -0.2388 -0.9407
16585TIP3    H171170   3.011   3.359  11.680 -0.5720  2.2442 -0.5146
16585TIP3    H271171   2.976   3.240  11.592  2.9541 -0.6897  1.7574
16586TIP3   OH271172   0.330   6.006   2.431  0.0868 -0.1784  0.2258
16586TIP3    H171173   0.248   5.992   2.384 -0.0156  1.3654 -0.0788
16586TIP3    H271174   0.396   5.964   2.376 -0.1902  0.5666 -0.6894
16587TIP3   OH271175   2.424   1.797  15.785  0.2390 -0.1274 -0.5784
16587TIP3    H171176   2.493   1.753  15.734  4.5794  2.8253  2.0488
16587TIP3    H271177   2.410   1.740  15.860 -0.3013 -0.7559 -1.1377
16588TIP3   OH271178   0.164   4.745   4.063 -0.0133  0.8660  0.7889
16588TIP3    H171179   0.124   4.659   4.078  0.7069 -0.0473 -1.9270
16588TIP3    H271180   0.161   4.788   4.148 -1.6847 -1.2945  1.9223
16589TIP3   OH271181   4.253   5.394  16.191 -0.7400 -0.5829 -0.0227
16589TIP3    H171182   4.346   5.416  16.195 -0.7362 -0.7288  1.5628
16589TIP3    H271183   4.243   5.323  16.254 -1.9772 -0.3838  0.0282
16590TIP3   OH271184   6.416   2.967   4.007  0.7334 -0.1041 -0.0414
16590TIP3    H171185   6.416   3.035   3.938  1.0484 -2.5082 -2.5937
16590TIP3    H271186   6.439   3.014   4.087  0.8903  2.7886 -1.6435
16591TIP3   OH271187   5.059   4.879  14.332 -0.0331 -0.7294  0.2171
16591TIP3    H171188   5.026   4.796  14.297 -0.3627 -0.9411  1.0236
16591TIP3    H271189   4.980   4.929  14.354  0.1020  0.4263 -1.6282
16592TIP3   OH271190   2.104   5.594   4.425  0.5144  0.5464  0.5300
16592TIP3    H171191   2.022   5.611   4.377  0.6633 -0.7521 -0.2368
16592TIP3    H271192   2.076   5.547   4.503  0.5719 -0.4740 -0.0539
16593TIP3   OH271193   5.422   4.649   3.752  0.1752  0.0379 -0.3841
16593TIP3    H171194   5.411   4.737   3.788 -0.5838 -1.2816  2.9948
16593TIP3    H271195   5.334   4.620   3.731  0.1746 -0.5803  0.4025
16594TIP3   OH271196   0.035   0.186  13.148  0.2110 -0.3576  0.1078
16594TIP3    H171197   0.089   0.125  13.198 -1.7718 -2.7553 -0.4915
16594TIP3    H271198   0.072   0.184  13.059 -0.2057 -1.1886 -0.0548
16595TIP3   OH271199   1.960   4.674  15.621  0.6042 -0.1342  0.1602
16595TIP3    H171200   2.042   4.702  15.581  0.9526  0.5669  1.3166
16595TIP3    H271201   1.978   4.674  15.715 -0.6530 -0.1854  0.4162
16596TIP3   OH271202   3.923   4.239   5.152 -0.1996  0.2702 -0.0666
16596TIP3    H171203   3.900   4.260   5.061 -0.6136  0.5507  0.0986
16596TIP3    H271204   3.984   4.309   5.177  1.7424 -1.0544 -0.8452
16597TIP3   OH271205   5.530   2.274   4.396  0.2656 -0.1558  0.2778
16597TIP3    H171206   5.607   2.326   4.418 -0.4133  1.3801 -0.7993
16597TIP3    H271207   5.539   2.256   4.302  0.3447 -1.8104  0.5622
16598TIP3   OH271208   1.218   1.200  11.422  0.0476 -0.4656 -0.7888
16598TIP3    H171209   1.151   1.234  11.363  0.1762  0.0098 -0.6715
16598TIP3    H271210   1.274   1.276  11.440  0.7198 -0.8933 -1.0246
16599TIP3   OH271211   5.285   4.278  12.900 -0.1266 -0.2095  0.2508
16599TIP3    H171212   5.224   4.254  12.970  1.1127  0.2238  1.5211
16599TIP3    H271213   5.338   4.199  12.887  0.6834  0.1980  0.9466
16600TIP3   OH271214   0.904   1.567   3.894  0.0074  0.5182  0.1185
16600TIP3    H171215   0.846   1.599   3.964 -0.4964 -0.2015  0.0422
16600TIP3    H271216   0.987   1.550   3.938 -0.5388 -0.6992  0.7274
16601TIP3   OH271217   2.529   4.319  14.646 -0.3373  0.1404 -0.3075
16601TIP3    H171218   2.524   4.381  14.719 -0.9125  0.1512 -0.3507
16601TIP3    H271219   2.442   4.278  14.644  0.0308 -0.6567 -0.2872
16602TIP3   OH271220   4.066   1.367   0.678 -0.7237 -0.0383  0.2050
16602TIP3    H171221   3.982   1.329   0.703 -0.7833 -0.4983 -0.6722
16602TIP3    H271222   4.128   1.294   0.678 -0.7180 -0.0543 -0.9291
16603TIP3   OH271223   0.533   1.190   4.378 -0.6089 -0.1925 -0.3066
16603TIP3    H171224   0.506   1.266   4.327  0.2763 -0.3902 -1.1097
16603TIP3    H271225   0.478   1.192   4.456 -0.0790  1.7059  0.0702
16604TIP3   OH271226   2.718   0.595  16.603  0.0190  0.4252 -0.7445
16604TIP3    H171227   2.753   0.655  16.537 -2.9987  1.3634 -1.6596
16604TIP3    H271228   2.721   0.509  16.562  1.8256  0.3325 -0.4905
16605TIP3   OH271229   1.203   1.506  11.719  0.3922  0.6670 -0.9710
16605TIP3    H171230   1.118   1.470  11.742  0.8255  0.4182  0.3486
16605TIP3    H271231   1.194   1.600  11.732  0.8898  0.4616  1.3134
16606TIP3   OH271232   2.828   4.555   4.246 -0.9737  0.0080  0.9256
16606TIP3    H171233   2.789   4.634   4.285 -1.4851 -0.2414  0.9340
16606TIP3    H271234   2.763   4.528   4.180 -1.6995 -1.4698  2.1847
16607TIP3   OH271235   2.750   1.494  14.206 -0.2690 -0.6213 -0.2219
16607TIP3    H171236   2.830   1.470  14.252  0.5451 -0.8705 -1.7100
16607TIP3    H271237   2.773   1.489  14.114 -1.9306 -0.4274 -0.6805
16608TIP3   OH271238   1.600   3.087   3.938  0.4774 -0.3746 -0.3862
16608TIP3    H171239   1.691   3.059   3.935 -0.1854 -2.7329 -3.8183
16608TIP3    H271240   1.559   3.028   4.002  1.1323  0.2632  0.6662
16609TIP3   OH271241   6.300   4.855  14.209 -0.4534 -0.0048  0.2560
16609TIP3    H171242   6.344   4.772  14.192 -1.5248 -0.7284  0.9312
16609TIP3    H271243   6.294   4.859  14.305 -1.8051  0.1018  0.1725
16610TIP3   OH271244   5.029   4.321   4.433  0.4705  0.7210 -0.4116
16610TIP3    H171245   4.948   4.269   4.439  0.5086  0.6325 -0.6424
16610TIP3    H271246   5.095   4.259   4.402  0.5314  0.8909 -0.6253
16611TIP3   OH271247   2.198   4.299  11.988 -0.0241 -0.2052  0.1838
16611TIP3    H171248   2.162   4.338  12.067  0.4669 -1.4310  1.0501
16611TIP3    H271249   2.272   4.246  12.018  1.4198  0.8338 -1.3324
16612TIP3   OH271250   2.065   1.621  16.642  0.1426  0.0957 -0.2518
16612TIP3    H171251   2.123   1.600  16.715  0.1478 -2.3924 -0.8660
16612TIP3    H271252   2.123   1.631  16.567  0.0314  1.3256 -0.1923
16613TIP3   OH271253   5.341   6.516   5.965 -0.3167  0.5599  0.1070
16613TIP3    H171254   5.330   6.486   5.875 -0.0411  0.3012  0.1591
16613TIP3    H271255   5.317   6.440   6.018 -1.7561  1.1010  0.2802
16614TIP3   OH271256   6.596   2.726   2.427  0.0042  0.5287 -0.5515
16614TIP3    H171257   6.573   2.638   2.400 -0.7873  0.5914 -0.1148
16614TIP3    H271258   6.684   2.740   2.393  0.2562 -0.5429 -0.3524
16615TIP3   OH271259   5.405   0.975   0.562 -0.3184  0.3063 -0.3565
16615TIP3    H171260   5.396   1.034   0.487 -1.6863  0.8400  0.2101
16615TIP3    H271261   5.367   0.892   0.532  1.3283 -0.2575 -1.0457
16616TIP3   OH271262   3.632   2.333  15.960  0.1163 -0.3725 -0.1763
16616TIP3    H171263   3.627   2.352  15.866 -0.0393 -0.2801 -0.1499
16616TIP3    H271264   3.689   2.402  15.995  3.1248 -2.3770 -0.7429
16617TIP3   OH271265   5.466   4.512  17.148 -0.0831  0.2009  0.2331
16617TIP3    H171266   5.515   4.512  17.230  0.7301 -0.7681 -0.2330
16617TIP3    H271267   5.533   4.520  17.079 -0.6043 -0.6614 -0.3956
16618TIP3   OH271268   4.106   4.922  12.764  0.5084 -0.5180  1.0304
16618TIP3    H171269   4.055   5.002  12.750  0.7470 -0.6606 -1.0140
16618TIP3    H271270   4.181   4.930  12.704  0.6004 -2.2162  0.8602
16619TIP3   OH271271   4.946   5.800   2.116 -0.2840 -0.3834 -0.1170
16619TIP3    H171272   4.981   5.880   2.155 -1.1385 -0.5010  0.9472
16619TIP3    H271273   4.966   5.808   2.023  0.9319  0.3819  0.1884
16620TIP3   OH271274   4.417   3.690   1.454  0.8943  0.0037 -0.1518
16620TIP3    H171275   4.432   3.735   1.371  0.7147  0.1640 -0.0996
16620TIP3    H271276   4.419   3.597   1.433 -1.7493  0.0201 -0.8141
16621TIP3   OH271277   4.663   5.752   2.204  0.3557 -0.1406  0.1687
16621TIP3    H171278   4.749   5.760   2.161  0.1362 -0.1670 -0.2754
16621TIP3    H271279   4.634   5.842   2.215  0.8722 -0.0848  1.2056
16622TIP3   OH271280   4.371   4.925   4.572  0.6217 -0.1180  0.1975
16622TIP3    H171281   4.419   4.888   4.646 -0.4387  2.0182  2.1105
16622TIP3    H271282   4.438   4.964   4.517  1.4703 -2.0984 -0.2469
16623TIP3   OH271283   0.089   1.100  15.105 -0.5063 -0.3987  0.5171
16623TIP3    H171284   0.078   1.194  15.123  0.1555 -0.5383  1.8229
16623TIP3    H271285   0.149   1.097  15.031 -2.4266  0.2152 -1.1588
16624TIP3   OH271286   1.909   4.006  12.872  0.0673 -0.0707 -0.4102
16624TIP3    H171287   1.946   3.985  12.786 -0.1745 -0.8537 -0.3276
16624TIP3    H271288   1.872   3.924  12.903  0.9905 -0.0353  0.8602
16625TIP3   OH271289   0.144   3.722   1.883 -0.1269 -0.1561  0.1478
16625TIP3    H171290   0.139   3.661   1.956 -2.1329 -1.5389 -1.0324
16625TIP3    H271291   0.130   3.668   1.805  0.2435  1.5038 -1.1484
16626TIP3   OH271292   3.323   0.319   0.781 -0.0763 -0.2876 -0.0299
16626TIP3    H171293   3.391   0.253   0.765 -0.3010 -0.5982  0.2822
16626TIP3    H271294   3.242   0.268   0.788 -0.3668  0.0894 -0.5303
16627TIP3   OH271295   0.374   6.601  16.444  0.3275  0.0328  0.4104
16627TIP3    H171296   0.359   6.679  16.498 -3.7869 -1.2682  1.4472
16627TIP3    H271297   0.298   6.597  16.386  2.9691 -0.4895 -3.3811
16628TIP3   OH271298   3.061   0.263  13.143  0.8204  0.1952  0.6982
16628TIP3    H171299   2.998   0.330  13.118  0.8258  0.0160  0.1850
16628TIP3    H271300   3.116   0.252  13.065  0.8041 -0.4231  0.7659
16629TIP3   OH271301   3.378   2.654   2.290  0.4159  0.1162  0.2889
16629TIP3    H171302   3.291   2.620   2.312  0.9960 -0.6983  1.4400
16629TIP3    H271303   3.370   2.685   2.200 -1.4340  1.3297  0.8107
16630TIP3   OH271304   0.813   0.557  17.024 -0.1468  0.3490 -0.3131
16630TIP3    H171305   0.748   0.526  17.087 -0.1552 -0.0896 -0.5326
16630TIP3    H271306   0.794   0.508  16.944  1.6596 -1.2506  0.1762
16631TIP3   OH271307   4.786   2.844  16.243  0.0822 -0.6473  0.1853
16631TIP3    H171308   4.864   2.797  16.271  0.5884 -0.3770 -0.7313
16631TIP3    H271309   4.751   2.791  16.171 -0.6694 -0.8463  0.6880
16632TIP3   OH271310   1.350   4.866  16.917  0.1068 -0.9266  0.1818
16632TIP3    H171311   1.255   4.859  16.919  0.0196 -0.2715 -1.1659
16632TIP3    H271312   1.379   4.788  16.869  0.1740 -0.5710 -0.3606
16633TIP3   OH271313   4.693   4.778   1.477  0.8889 -0.1109 -0.0787
16633TIP3    H171314   4.776   4.739   1.451  1.8022  1.9686 -0.4420
16633TIP3    H271315   4.706   4.801   1.570  0.1939 -1.0482  0.2642
16634TIP3   OH271316   4.341   3.706  14.328  0.3148  0.8427 -0.4564
16634TIP3    H171317   4.340   3.759  14.408  5.0718  1.4976 -0.5213
16634TIP3    H271318   4.346   3.771  14.257 -1.0010  0.2508 -1.1228
16635TIP3   OH271319   4.533   3.712   6.330  0.2669  0.1217  0.4520
16635TIP3    H171320   4.565   3.801   6.316  0.0388  0.0471 -0.5967
16635TIP3    H271321   4.480   3.692   6.253  0.0239 -0.7959  0.8366
16636TIP3   OH271322   3.849   4.325  14.706  0.4870 -0.5439 -0.1540
16636TIP3    H171323   3.822   4.235  14.724  1.1259 -0.8520 -0.7254
16636TIP3    H271324   3.776   4.378  14.739  0.8416 -1.1601  1.7638
16637TIP3   OH271325   1.317   5.775  16.030 -0.0618  0.0044 -0.1584
16637TIP3    H171326   1.258   5.742  16.099 -0.7899  0.1944 -0.6831
16637TIP3    H271327   1.353   5.695  15.990 -2.0445 -0.2315 -1.6200
16638TIP3   OH271328   4.729   3.421   2.256 -0.0435 -0.1367 -0.6192
16638TIP3    H171329   4.817   3.406   2.221 -0.3598 -1.3631 -0.9302
16638TIP3    H271330   4.742   3.432   2.350  0.0303 -5.6274  0.2990
16639TIP3   OH271331   5.356   0.127  16.309 -0.4372  0.4484  0.3495
16639TIP3    H171332   5.263   0.130  16.329 -0.7120 -0.9198 -0.6042
16639TIP3    H271333   5.369   0.198  16.246 -0.7952  0.7081  0.5596
16640TIP3   OH271334   0.726   3.928   4.773  0.3463 -0.0849 -0.2578
16640TIP3    H171335   0.701   3.975   4.694 -0.0647 -0.4100 -0.3268
16640TIP3    H271336   0.817   3.902   4.758  0.3197 -0.0097 -0.5545
16641TIP3   OH271337   5.947   6.473   0.268 -0.0335 -0.2617  0.0946
16641TIP3    H171338   5.959   6.553   0.217  0.5698 -0.7387 -0.5406
16641TIP3    H271339   5.968   6.498   0.358  1.4890 -0.0042 -0.3038
16642TIP3   OH271340   0.347   3.924  13.745  0.3661  0.1006  0.3584
16642TIP3    H171341   0.360   3.886  13.832 -1.0635  0.4561  0.7662
16642TIP3    H271342   0.357   4.018  13.759 -2.7884  0.4759  0.8456
16643TIP3   OH271343   0.238   4.921  12.485  0.2983  0.2655  0.5208
16643TIP3    H171344   0.273   4.875  12.408 -0.1438  1.8814 -0.7060
16643TIP3    H271345   0.175   4.860  12.523 -0.7543  0.0527 -1.4318
16644TIP3   OH271346   3.464   5.040  11.003  0.3653  0.3181 -0.7367
16644TIP3    H171347   3.426   5.005  10.923 -0.3329  1.0056 -0.7181
16644TIP3    H271348   3.420   4.993  11.073 -0.3920  1.0246 -0.7188
16645TIP3   OH271349   1.810   6.494   4.233 -0.4586 -0.1277 -0.1432
16645TIP3    H171350   1.796   6.587   4.250  0.4424  0.0351 -0.2573
16645TIP3    H271351   1.721   6.456   4.230 -0.8179  0.6859  0.0909
16646TIP3   OH271352   4.257   0.388   5.050 -0.5452  0.0030 -0.0911
16646TIP3    H171353   4.276   0.481   5.044  0.0615 -0.1275 -0.2393
16646TIP3    H271354   4.331   0.345   5.007 -1.0077 -0.5298 -0.3660
16647TIP3   OH271355   0.847   3.697   0.882  0.5341 -0.1837 -0.4669
16647TIP3    H171356   0.836   3.752   0.805  0.1295  0.3046 -0.0631
16647TIP3    H271357   0.781   3.629   0.873 -1.6615  1.6210  0.9670
16648TIP3   OH271358   3.052   1.603  15.916  0.4775 -0.1132  0.0416
16648TIP3    H171359   3.089   1.688  15.891 -0.1022 -0.1832 -1.1253
16648TIP3    H271360   2.964   1.625  15.947  0.8648 -0.1337  1.1911
16649TIP3   OH271361   2.859   0.209  11.243  0.0451 -0.1024 -0.6300
16649TIP3    H171362   2.779   0.172  11.281  1.0483 -0.9938  0.7506
16649TIP3    H271363   2.911   0.236  11.319  1.2898 -0.0782 -1.4574
16650TIP3   OH271364   2.433   3.767  10.888 -0.1401 -0.0847 -0.3571
16650TIP3    H171365   2.504   3.827  10.868  0.7039 -1.4712 -1.7898
16650TIP3    H271366   2.442   3.697  10.823 -1.4774 -1.4084  0.8019
16651TIP3   OH271367   5.072   5.881   1.603  0.4316 -0.1560 -0.6205
16651TIP3    H171368   4.990   5.861   1.558  1.1203 -0.6068 -1.7183
16651TIP3    H271369   5.084   5.976   1.591  0.2683 -0.1599 -0.8173
16652TIP3   OH271370   5.748   0.647   6.098  0.9872 -0.5195  0.4354
16652TIP3    H171371   5.779   0.702   6.027  0.3153 -1.3614 -0.5377
16652TIP3    H271372   5.731   0.708   6.170  0.8890  0.4561 -0.3918
16653TIP3   OH271373   4.180   6.286   4.193 -0.2053 -0.6042  0.2080
16653TIP3    H171374   4.112   6.342   4.157 -0.2689 -0.3924  0.6542
16653TIP3    H271375   4.254   6.296   4.133  0.9634  2.5053  1.9635
16654TIP3   OH271376   5.688   4.583  11.017 -0.0356 -0.0897 -0.4558
16654TIP3    H171377   5.604   4.611  10.981 -0.9806 -1.2620  0.7556
16654TIP3    H271378   5.752   4.640  10.975 -1.4124  0.7256 -1.5232
16655TIP3   OH271379   1.559   3.358   2.124 -0.2816 -0.0288 -0.3948
16655TIP3    H171380   1.502   3.303   2.070 -2.3431  1.6744 -0.0811
16655TIP3    H271381   1.526   3.347   2.213  0.8746 -0.1448  0.0351
16656TIP3   OH271382   1.647   3.214   2.982  0.2187  0.4493  0.2355
16656TIP3    H171383   1.724   3.164   3.010 -0.6795 -0.0838  1.9464
16656TIP3    H271384   1.683   3.295   2.946  1.6131 -0.3464 -0.2483
16657TIP3   OH271385   2.147   2.263   1.254  0.0588 -0.1021 -0.0636
16657TIP3    H171386   2.089   2.336   1.233  0.3751 -0.0819 -0.9114
16657TIP3    H271387   2.225   2.305   1.290  0.2737 -0.0020 -0.6268
16658TIP3   OH271388   3.510   1.368  11.463 -0.1488 -0.2053 -0.2241
16658TIP3    H171389   3.484   1.379  11.371  1.0067 -1.0680 -0.6815
16658TIP3    H271390   3.603   1.388  11.464  0.6676 -3.3938  0.0630
16659TIP3   OH271391   4.730   6.576   1.300  0.2168 -0.5305  0.2005
16659TIP3    H171392   4.800   6.618   1.251  1.1843 -1.0779  1.0574
16659TIP3    H271393   4.758   6.485   1.307 -1.0288 -0.9592 -0.2039
16660TIP3   OH271394   4.259   4.207  10.709  0.2749  0.1374 -0.2571
16660TIP3    H171395   4.302   4.290  10.734 -1.6970  0.8628  0.9317
16660TIP3    H271396   4.300   4.184  10.625  3.3057  0.4730  0.9823
16661TIP3   OH271397   0.952   3.206  14.366  0.2037 -0.3109 -0.3370
16661TIP3    H171398   1.032   3.256  14.354 -1.4992  2.6241 -0.3234
16661TIP3    H271399   0.909   3.247  14.441 -0.8092 -2.6055  0.4492
16662TIP3   OH271400   3.922   3.174   0.780 -0.8536 -0.1414  0.1422
16662TIP3    H171401   3.848   3.121   0.809 -0.2578 -0.4482  1.1386
16662TIP3    H271402   3.995   3.113   0.775 -0.5328  0.2715 -0.2838
16663TIP3   OH271403   0.607   4.567  12.192 -0.4253  0.1019  0.0783
16663TIP3    H171404   0.651   4.518  12.122 -0.3729 -0.8370  0.7546
16663TIP3    H271405   0.677   4.586  12.255  0.0043  2.7827 -1.0309
16664TIP3   OH271406   3.081   5.383   0.435 -0.3643  0.3063 -0.5690
16664TIP3    H171407   3.175   5.393   0.452 -0.3900  0.7403 -0.6874
16664TIP3    H271408   3.038   5.422   0.511 -0.4549  0.4197 -0.6781
16665TIP3   OH271409   0.840   4.966   1.765  0.1309 -0.2581 -0.4892
16665TIP3    H171410   0.928   4.941   1.735  0.3699 -0.2227  0.1817
16665TIP3    H271411   0.781   4.922   1.704  0.5964 -0.8971 -0.4899
16666TIP3   OH271412   5.358   3.942  14.943  0.1268 -0.3385 -0.4341
16666TIP3    H171413   5.400   3.857  14.924  1.4463  0.6452 -2.2225
16666TIP3    H271414   5.336   3.937  15.036  2.3577 -1.7534  0.1186
16667TIP3   OH271415   1.810   1.214  12.197 -0.1280  0.0749  0.3396
16667TIP3    H171416   1.719   1.207  12.169  0.2231  0.3775 -0.9463
16667TIP3    H271417   1.824   1.136  12.251 -1.0267 -0.1928  0.2061
16668TIP3   OH271418   6.582   0.592   1.457 -0.5825 -0.4799 -0.4630
16668TIP3    H171419   6.487   0.596   1.442 -1.2630 -0.1853  3.0854
16668TIP3    H271420   6.599   0.499   1.476 -0.6272 -0.2032  1.0541
16669TIP3   OH271421   0.244   4.584   3.845  0.2942 -1.0969  0.0313
16669TIP3    H171422   0.201   4.627   3.919 -1.0948 -0.7344 -0.9588
16669TIP3    H271423   0.193   4.504   3.831  0.2348 -0.9037 -0.8584
16670TIP3   OH271424   4.473   4.841  13.232  0.5053  0.6216 -0.0697
16670TIP3    H171425   4.420   4.845  13.152  0.3456 -1.5417 -0.1285
16670TIP3    H271426   4.411   4.862  13.302  0.3089  1.0867 -0.3702
16671TIP3   OH271427   3.517   5.806   4.041 -0.1731 -0.0579  0.4442
16671TIP3    H171428   3.466   5.823   3.962  0.8397 -0.5422 -0.3391
16671TIP3    H271429   3.483   5.867   4.106 -0.1914  1.2296 -0.7382
16672TIP3   OH271430   0.381   5.106  13.661  0.0745  0.3986 -0.3601
16672TIP3    H171431   0.427   5.026  13.685  0.5668  1.0910  1.1138
16672TIP3    H271432   0.290   5.091  13.686  0.4287  0.8046  1.2758
16673TIP3   OH271433   2.337   1.717   3.359 -0.4661 -0.1501 -0.0920
16673TIP3    H171434   2.310   1.729   3.450 -1.7800 -0.9080 -0.3552
16673TIP3    H271435   2.342   1.622   3.348 -0.6047 -0.0689 -0.8883
16674TIP3   OH271436   0.462   4.361   2.055  0.7233 -0.5959 -0.3441
16674TIP3    H171437   0.472   4.350   1.961 -0.2847  0.3618 -0.5822
16674TIP3    H271438   0.368   4.377   2.068  0.7052 -1.5165  0.9119
16675TIP3   OH271439   0.738   3.681  13.752  0.4540 -0.1044  0.2051
16675TIP3    H171440   0.676   3.716  13.688  0.2916 -0.5541  0.1196
16675TIP3    H271441   0.723   3.733  13.831 -0.7475 -0.8988  0.5127
16676TIP3   OH271442   2.373   4.688   1.418 -0.0381  0.2333 -0.4901
16676TIP3    H171443   2.421   4.766   1.445 -0.7717  0.5672 -0.1287
16676TIP3    H271444   2.416   4.660   1.337  0.2256  1.0210 -0.6250
16677TIP3   OH271445   4.818   3.262  17.068 -0.2888  0.3625 -0.1726
16677TIP3    H171446   4.849   3.245  17.157 -0.5826  1.5467  0.1863
16677TIP3    H271447   4.813   3.358  17.063  0.3609  0.3508 -1.6919
16678TIP3   OH271448   1.188   3.644   6.028 -0.2193 -0.0570  0.1169
16678TIP3    H171449   1.171   3.662   5.935 -1.6470 -2.0273 -0.0734
16678TIP3    H271450   1.283   3.635   6.033 -0.2235 -1.8807 -1.6118
16679TIP3   OH271451   1.896   3.002   2.997  0.1772 -0.3157 -0.0824
16679TIP3    H171452   1.922   2.928   2.943 -1.4485 -2.2211  1.5592
16679TIP3    H271453   1.901   2.969   3.087 -0.2476  1.7048  0.7424
16680TIP3   OH271454   4.741   6.245  13.745  0.2342 -0.4764  0.7826
16680TIP3    H171455   4.780   6.303  13.680 -0.8029 -0.5097  0.0920
16680TIP3    H271456   4.646   6.257  13.733  0.0022  0.0863  2.8165
16681TIP3   OH271457   0.706   2.011  15.279  0.6034  0.3435 -0.3766
16681TIP3    H171458   0.671   2.028  15.366  0.8688  0.5969 -0.3181
16681TIP3    H271459   0.648   2.059  15.220 -0.6519 -1.2657 -0.5056
16682TIP3   OH271460   3.360   6.372  15.845 -0.0980  0.1557 -0.8078
16682TIP3    H171461   3.339   6.446  15.904  0.0036 -0.5835  0.1804
16682TIP3    H271462   3.357   6.410  15.758  0.7455  1.5285 -0.2707
16683TIP3   OH271463   6.336   2.287   6.422  0.3931 -0.7850 -0.0692
16683TIP3    H171464   6.277   2.361   6.410  0.6209 -0.3762  1.1691
16683TIP3    H271465   6.410   2.323   6.470  1.3225 -1.4486 -0.9712
16684TIP3   OH271466   2.992   0.048   0.032 -0.2910 -0.3245  0.1569
16684TIP3    H171467   3.074   0.024   0.075 -0.7475 -0.4346  0.9696
16684TIP3    H271468   2.925  -0.005   0.075 -0.4170 -2.8547 -2.7397
16685TIP3   OH271469   0.460   1.943  12.967 -0.1281  0.0861  0.0150
16685TIP3    H171470   0.428   1.873  13.024 -0.3846 -1.0615 -1.4671
16685TIP3    H271471   0.555   1.938  12.973 -0.1259 -0.9183 -0.6594
16686TIP3   OH271472   4.109   4.314  17.094  0.2422  0.2580 -0.6808
16686TIP3    H171473   4.067   4.257  17.030 -2.0409  2.1902 -1.0059
16686TIP3    H271474   4.044   4.325  17.163  1.3451  1.0092  0.2709
16687TIP3   OH271475   3.292   4.896   5.313 -0.6427 -0.0746 -0.5971
16687TIP3    H171476   3.247   4.832   5.369 -0.2904 -0.2308 -0.4934
16687TIP3    H271477   3.369   4.850   5.280 -1.8564 -0.6612 -2.8071
16688TIP3   OH271478   4.614   2.780  10.950 -0.1314  0.1612 -0.0760
16688TIP3    H171479   4.554   2.848  10.979  0.2518  0.7518 -0.6252
16688TIP3    H271480   4.569   2.698  10.968 -1.1953  0.5996 -0.6851
16689TIP3   OH271481   0.498   3.576   4.472 -0.3319 -0.7659  0.3135
16689TIP3    H171482   0.524   3.668   4.476  3.0024 -1.5681  0.0105
16689TIP3    H271483   0.527   3.539   4.555 -0.1846 -1.8324 -0.1882
16690TIP3   OH271484   4.691   3.782   5.995  0.0750 -0.0733  0.3003
16690TIP3    H171485   4.609   3.788   6.043 -1.0445 -0.9930 -1.3896
16690TIP3    H271486   4.718   3.691   6.005 -0.7164 -0.5680 -1.5413
16691TIP3   OH271487   3.352   2.771   3.071  0.1215 -0.0280  0.2883
16691TIP3    H171488   3.295   2.847   3.079 -0.1712 -0.2110 -0.0388
16691TIP3    H271489   3.401   2.769   3.153 -0.5448 -0.0382  0.6914
16692TIP3   OH271490   1.834   5.506  15.961  0.4351 -0.3327 -0.5243
16692TIP3    H171491   1.740   5.501  15.974  0.2613  0.8798 -1.1683
16692TIP3    H271492   1.861   5.415  15.944 -0.0605 -1.2741  2.9491
16693TIP3   OH271493   1.234   0.761   2.015  0.2332 -0.1604 -0.1672
16693TIP3    H171494   1.232   0.857   2.013 -1.8003 -0.1555  0.0097
16693TIP3    H271495   1.258   0.736   1.926 -2.1637  0.5461 -1.0965
16694TIP3   OH271496   3.430   2.242  16.107 -0.2823  0.2351  0.3302
16694TIP3    H171497   3.509   2.271  16.060 -0.2003 -0.1451  0.2367
16694TIP3    H271498   3.451   2.154  16.138 -1.6227 -0.9908 -1.9810
16695TIP3   OH271499   1.234   0.539  14.581 -0.1002  0.1184 -0.4149
16695TIP3    H171500   1.208   0.603  14.648  0.3335  1.1561 -1.2027
16695TIP3    H271501   1.162   0.477  14.577 -0.0632 -0.0612  1.1211
16696TIP3   OH271502   5.302   2.111   6.090  0.5072 -0.4024 -0.0206
16696TIP3    H171503   5.322   2.046   6.022 -1.2653 -1.4825  0.4119
16696TIP3    H271504   5.338   2.073   6.170 -0.0126 -0.5851  0.1316
16697TIP3   OH271505   5.554   6.208   5.802 -0.1995 -0.4826 -0.1631
16697TIP3    H171506   5.506   6.142   5.852 -1.6550 -1.2329 -2.3999
16697TIP3    H271507   5.608   6.158   5.741  2.3350  0.3877  1.2024
16698TIP3   OH271508   6.041   5.083  14.624 -0.0014  0.3589  0.0278
16698TIP3    H171509   6.133   5.079  14.651 -0.3878 -0.6794  1.3106
16698TIP3    H271510   6.010   4.993  14.632 -1.2974  0.8033  0.2394
16699TIP3   OH271511   6.602   3.327  14.057 -0.3612 -0.1114  0.1302
16699TIP3    H171512   6.519   3.318  14.104  0.6497 -0.9971  1.8273
16699TIP3    H271513   6.632   3.415  14.077 -0.2563 -0.2561  0.6270
16700TIP3   OH271514   6.207   4.521   2.484 -0.1925  0.0848 -0.1440
16700TIP3    H171515   6.179   4.441   2.529  0.2669 -1.0801 -1.8424
16700TIP3    H271516   6.210   4.587   2.553  1.3815 -1.8179  1.7560
16701TIP3   OH271517   2.117   0.848   1.904  0.3442  0.5024 -0.2361
16701TIP3    H171518   2.092   0.834   1.995  0.5613  0.7449 -0.1363
16701TIP3    H271519   2.194   0.792   1.890  2.1500  2.6339  0.6036
16702TIP3   OH271520   6.085   3.765   0.063  0.4923  0.0834  0.2598
16702TIP3    H171521   5.992   3.755   0.040  0.1373 -0.5947  1.8860
16702TIP3    H271522   6.128   3.786  -0.020 -0.9848 -0.4564 -0.6779
16703TIP3   OH271523   4.134   2.946  13.237 -0.3931  0.1512  0.0382
16703TIP3    H171524   4.079   2.938  13.159  0.3455 -1.3438 -0.3545
16703TIP3    H271525   4.152   2.856  13.263  1.4091  0.6135  0.4907
16704TIP3   OH271526   1.593   4.156   2.097  0.3149 -0.0549  0.2376
16704TIP3    H171527   1.530   4.127   2.031  1.1828  0.1452 -0.7131
16704TIP3    H271528   1.542   4.166   2.177 -1.0383  0.9910 -0.7233
16705TIP3   OH271529   6.493   6.208  15.558  0.0478 -0.4869 -0.0109
16705TIP3    H171530   6.538   6.208  15.643 -0.7177 -0.9855  0.4086
16705TIP3    H271531   6.556   6.169  15.498  1.1734  1.2305 -0.0097
16706TIP3   OH271532   0.971   2.867   4.774 -0.2169  0.3979  0.0476
16706TIP3    H171533   1.013   2.872   4.860  0.1864  0.8205 -0.1688
16706TIP3    H271534   0.877   2.866   4.793 -0.1669  1.5678  0.4586
16707TIP3   OH271535   6.075   3.992   0.910 -0.4645 -0.5634 -0.1036
16707TIP3    H171536   6.070   4.040   0.828 -1.4270 -1.0498 -0.3387
16707TIP3    H271537   6.122   3.911   0.888  0.4893 -0.0895  0.1318
16708TIP3   OH271538   3.650   2.493   2.023 -0.0840  0.2629  0.4656
16708TIP3    H171539   3.695   2.420   2.065 -0.9251  0.1242  1.1412
16708TIP3    H271540   3.633   2.462   1.934  1.1225  0.3089  0.2106
16709TIP3   OH271541   6.740   2.798   6.415 -0.4699  0.4807 -0.3995
16709TIP3    H171542   6.819   2.758   6.453  0.8651  1.8118 -1.6399
16709TIP3    H271543   6.706   2.731   6.355  0.0620  0.1120 -0.2994
16710TIP3   OH271544   2.515   2.554   1.246  0.0802  0.1159  0.0814
16710TIP3    H171545   2.573   2.615   1.292 -1.2952  1.1228  0.5819
16710TIP3    H271546   2.503   2.594   1.159 -1.1634  0.8513  0.5544
16711TIP3   OH271547   6.708   0.212   0.853 -0.3560  0.3526 -0.3385
16711TIP3    H171548   6.636   0.163   0.811 -0.1227  0.4176 -0.8239
16711TIP3    H271549   6.713   0.175   0.941 -0.8925  0.2479 -0.3444
16712TIP3   OH271550   5.902   0.041  14.583  0.3352 -0.2125 -0.0946
16712TIP3    H171551   5.829  -0.016  14.557  0.0758  0.7888 -1.7133
16712TIP3    H271552   5.980  -0.002  14.548  0.2291 -0.0177 -0.5817
16713TIP3   OH271553   2.308   3.115   4.122 -0.1363 -0.3020  0.3524
16713TIP3    H171554   2.311   3.047   4.055 -0.0755 -0.0661  0.1122
16713TIP3    H271555   2.387   3.102   4.173 -0.6430 -1.0740  0.9697
16714TIP3   OH271556   6.614   4.722   3.632 -0.2754 -0.0022 -0.0309
16714TIP3    H171557   6.574   4.712   3.546 -1.0595  0.2853  0.2830
16714TIP3    H271558   6.701   4.757   3.615 -0.6258  0.5772 -0.6885
16715TIP3   OH271559   4.652   3.983   0.502  0.1421  0.3171 -0.2750
16715TIP3    H171560   4.669   4.072   0.473  0.1914  0.7030  0.8988
16715TIP3    H271561   4.568   3.960   0.463 -0.1649  1.0996 -0.0903
16716TIP3   OH271562   0.808   3.294  10.689 -0.2631 -0.1021  0.5416
16716TIP3    H171563   0.770   3.376  10.658  0.5917  0.2617  0.4205
16716TIP3    H271564   0.846   3.253  10.611 -0.0860 -0.2779  0.7163
16717TIP3   OH271565   3.400   3.065  12.904 -0.1350 -0.0320  0.7305
16717TIP3    H171566   3.398   3.161  12.906 -0.8313 -0.0270  0.2780
16717TIP3    H271567   3.487   3.042  12.934 -0.8759  0.6586  3.7249
16718TIP3   OH271568   5.234   2.892  13.593 -0.3140  0.0350 -0.3958
16718TIP3    H171569   5.157   2.948  13.585  0.0440  0.3946 -1.6287
16718TIP3    H271570   5.229   2.834  13.516 -0.1674 -0.9895  0.3440
16719TIP3   OH271571   1.510   4.566   4.084  0.1788  0.1365  0.0254
16719TIP3    H171572   1.568   4.512   4.138  0.9990  0.2039 -0.7692
16719TIP3    H271573   1.440   4.507   4.058  0.9374 -0.4921 -0.6276
16720TIP3   OH271574   3.776   0.413  11.247  0.3672  0.0069 -0.0827
16720TIP3    H171575   3.682   0.421  11.266 -0.2976 -0.6525 -2.6389
16720TIP3    H271576   3.783   0.331  11.198  2.2226  0.2614 -0.3133
16721TIP3   OH271577   1.065   0.043   4.635  1.0105  0.1181 -0.7280
16721TIP3    H171578   0.978   0.049   4.595  0.1792  0.0969  0.9489
16721TIP3    H271579   1.101  -0.039   4.603 -1.2419 -1.9119  1.4387
16722TIP3   OH271580   2.852   3.983   2.201 -0.2512 -0.0571  0.2004
16722TIP3    H171581   2.873   4.076   2.212  0.0633  0.1462 -1.7906
16722TIP3    H271582   2.802   3.979   2.120 -1.5638 -1.4818  1.0066
16723TIP3   OH271583   4.778   2.039  14.630 -0.1079 -0.6161  0.4074
16723TIP3    H171584   4.754   1.948  14.611  1.0367 -1.0888  1.0776
16723TIP3    H271585   4.857   2.032  14.684  0.2184  0.7857  0.1646
16724TIP3   OH271586   3.979   0.944   1.555  0.2380  0.3605 -0.0724
16724TIP3    H171587   4.038   0.999   1.504 -0.3964  1.5608  0.4464
16724TIP3    H271588   4.034   0.907   1.624  1.0571 -1.1125 -1.4331
16725TIP3   OH271589   1.673   1.677   2.873 -0.2558 -0.5424  0.3421
16725TIP3    H171590   1.731   1.666   2.798 -0.3803  1.0482 -0.0343
16725TIP3    H271591   1.586   1.690   2.836 -0.1771  1.2136  0.6512
16726TIP3   OH271592   1.760   1.483   1.722  0.3682  0.4915 -0.5286
16726TIP3    H171593   1.820   1.555   1.742 -0.7326  1.3929 -0.3145
16726TIP3    H271594   1.695   1.523   1.663 -0.4045 -0.2595 -0.2012
16727TIP3   OH271595   1.661   5.116   0.679 -0.0313 -0.1147  0.5408
16727TIP3    H171596   1.579   5.128   0.725 -0.3754  1.6667 -0.4035
16727TIP3    H271597   1.728   5.116   0.747 -0.6330  1.0319  1.1628
16728TIP3   OH271598   2.797   2.769   5.541 -0.8493 -0.2054 -0.0325
16728TIP3    H171599   2.705   2.767   5.515 -0.7364 -0.0378 -0.4475
16728TIP3    H271600   2.827   2.680   5.527 -0.6902 -0.0308 -0.8482
16729TIP3   OH271601   6.204   4.502  16.822 -0.6846  0.0645  0.0527
16729TIP3    H171602   6.299   4.496  16.825 -0.5758  1.6841  1.0209
16729TIP3    H271603   6.175   4.415  16.797  1.0919 -0.1668 -1.3736
16730TIP3   OH271604   3.387   3.926   5.740 -0.2039 -0.4148 -0.0831
16730TIP3    H171605   3.370   4.006   5.789 -1.9712  1.0046 -2.7625
16730TIP3    H271606   3.300   3.889   5.724  0.3174 -1.0209 -1.7047
16731TIP3   OH271607   3.008   5.451  12.271 -0.3628  0.1581  0.6707
16731TIP3    H171608   3.069   5.466  12.200  0.9666  1.0590  1.9537
16731TIP3    H271609   2.954   5.530  12.274 -2.2944 -0.9872 -1.0284
16732TIP3   OH271610   0.443   6.218   1.110  0.5184  0.3911  0.3482
16732TIP3    H171611   0.361   6.267   1.116  1.3689  1.9853 -0.1949
16732TIP3    H271612   0.482   6.247   1.027  1.4874 -0.5574  0.4445
16733TIP3   OH271613   5.429   3.351  16.185 -0.1099 -0.1220  0.0770
16733TIP3    H171614   5.361   3.331  16.121 -0.6084 -0.2363  0.6284
16733TIP3    H271615   5.507   3.370  16.133 -0.3553 -0.7752 -0.5383
16734TIP3   OH271616   3.709   3.193  16.521 -0.6414  0.2185  0.2210
16734TIP3    H171617   3.772   3.256  16.487 -2.0254  0.9635 -1.1483
16734TIP3    H271618   3.761   3.131  16.573  0.8911  1.9090  0.7952
16735TIP3   OH271619   3.515   4.664   1.615 -0.1258 -0.2963 -0.3556
16735TIP3    H171620   3.522   4.757   1.596 -2.2826  0.1761  0.8623
16735TIP3    H271621   3.512   4.622   1.529  1.6395  0.6169 -0.9192
16736TIP3   OH271622   6.043   4.565  15.623  0.0960 -0.1777  0.2218
16736TIP3    H171623   6.002   4.634  15.675  1.1372  2.3171 -2.0558
16736TIP3    H271624   6.122   4.542  15.672  0.8900  1.8854  0.0022
16737TIP3   OH271625   5.515   5.947   3.897 -0.9152  0.3204  0.1721
16737TIP3    H171626   5.421   5.952   3.882 -0.6626  1.9106 -1.1356
16737TIP3    H271627   5.554   5.948   3.809  0.3550  1.4647  0.7001
16738TIP3   OH271628   3.004   0.353   1.851  0.1441 -0.3516 -0.2187
16738TIP3    H171629   3.084   0.307   1.875 -0.2960 -0.6492  0.7362
16738TIP3    H271630   2.952   0.355   1.932 -0.9303 -0.4282 -0.8782
16739TIP3   OH271631   2.039   3.879   5.243  0.3226  0.1608 -0.0406
16739TIP3    H171632   2.056   3.920   5.328  3.6042 -0.0939 -0.4425
16739TIP3    H271633   2.002   3.794   5.264 -1.0439  0.9809  1.0056
16740TIP3   OH271634   1.802   1.030  13.054 -0.4797  0.3974  0.2727
16740TIP3    H171635   1.713   1.031  13.088 -0.3991  0.5342  0.4805
16740TIP3    H271636   1.832   0.940  13.067 -0.8470  0.1542 -0.4800
16741TIP3   OH271637   1.993   3.703  16.603 -0.1444 -0.2901 -0.0165
16741TIP3    H171638   1.953   3.747  16.678  1.8259  1.9288 -0.1461
16741TIP3    H271639   1.927   3.712  16.533 -0.1927  1.8025  0.2197
16742TIP3   OH271640   6.422   2.182   2.586  0.4902  0.2349  0.2379
16742TIP3    H171641   6.411   2.163   2.679 -1.0496  1.8830  0.4272
16742TIP3    H271642   6.350   2.240   2.564  1.8725  1.3688 -1.5632
16743TIP3   OH271643   0.630   6.023  16.212  0.2158 -0.4883  0.2924
16743TIP3    H171644   0.567   5.961  16.250 -1.2330 -0.2699 -1.6361
16743TIP3    H271645   0.576   6.090  16.171  1.7598  1.6582  1.5892
16744TIP3   OH271646   4.117   5.004  10.915 -0.4098 -0.4117  0.2936
16744TIP3    H171647   4.150   5.039  10.832  0.1272  1.7334  1.3352
16744TIP3    H271648   4.128   4.909  10.907 -0.7360 -0.2990 -2.2175
16745TIP3   OH271649   3.389   6.397  17.267  0.0739 -0.1165 -0.0099
16745TIP3    H171650   3.295   6.409  17.262 -0.0018 -0.1584  1.0019
16745TIP3    H271651   3.426   6.479  17.234 -0.3357  0.2814  0.5090
16746TIP3   OH271652   4.969   0.878   4.376 -0.0054 -0.3587 -0.1889
16746TIP3    H171653   4.922   0.827   4.310  1.3615 -0.4867 -1.0990
16746TIP3    H271654   4.915   0.956   4.390 -1.4827 -1.4425  0.2944
16747TIP3   OH271655   6.257   4.053  17.069 -0.0730 -0.1660 -0.0653
16747TIP3    H171656   6.203   4.083  16.996 -0.5958 -1.3681 -0.1924
16747TIP3    H271657   6.311   4.129  17.092 -0.3003  0.3925 -1.3244
16748TIP3   OH271658   3.982   1.315  15.545 -0.6492  0.0843 -0.0927
16748TIP3    H171659   3.889   1.290  15.544 -0.4085 -0.9683  0.8854
16748TIP3    H271660   3.996   1.349  15.634 -0.4702  1.8735 -0.7675
16749TIP3   OH271661   5.237   4.362   2.685 -0.3389 -0.0900 -0.4381
16749TIP3    H171662   5.163   4.319   2.729  0.0379  0.5312  0.8436
16749TIP3    H271663   5.197   4.414   2.616 -0.9921 -0.6984 -0.5321
16750TIP3   OH271664   0.713   3.778   6.449 -0.3370  0.0469  0.2061
16750TIP3    H171665   0.624   3.767   6.482 -0.8648  0.3504 -1.0508
16750TIP3    H271666   0.702   3.797   6.356  0.9954  1.3253  0.2726
16751TIP3   OH271667   3.952   3.978   0.275 -0.0810  0.0272  0.3926
16751TIP3    H171668   3.869   3.934   0.255  1.6664 -2.7395 -1.5321
16751TIP3    H271669   3.963   4.042   0.204  0.9033 -2.0309 -1.4569
16752TIP3   OH271670   4.825   2.400   4.993  0.0481 -0.1358  0.2252
16752TIP3    H171671   4.735   2.433   4.987  0.3795  0.7291 -0.1074
16752TIP3    H271672   4.827   2.351   5.076 -0.5695  0.3313  0.5223
16753TIP3   OH271673   2.152   2.274  14.664 -0.0576 -0.5345 -0.5692
16753TIP3    H171674   2.230   2.275  14.720 -0.2938 -0.6554 -0.2412
16753TIP3    H271675   2.134   2.367  14.647  0.6032 -0.5251 -1.2662
16754TIP3   OH271676   1.185   4.738   6.486 -0.0591  0.5799 -0.8430
16754TIP3    H171677   1.099   4.780   6.475 -0.3606  0.2977  0.3092
16754TIP3    H271678   1.173   4.650   6.448 -0.1702  0.6579 -0.9930
16755TIP3   OH271679   6.357   2.214  13.484  0.3177  0.5088 -0.2437
16755TIP3    H171680   6.357   2.120  13.504  0.7821  0.3629 -0.8731
16755TIP3    H271681   6.269   2.243  13.506  0.7343  0.3428  1.7882
16756TIP3   OH271682   2.109   5.894   5.279  0.1218 -0.2614  0.2714
16756TIP3    H171683   2.056   5.974   5.282  0.7405  0.2549 -1.3277
16756TIP3    H271684   2.114   5.865   5.370 -1.6622  0.4835  0.6547
16757TIP3   OH271685   5.841   0.794  12.263 -0.1928  0.2577  0.0461
16757TIP3    H171686   5.802   0.766  12.180 -0.2083  0.5214 -0.0365
16757TIP3    H271687   5.781   0.760  12.330 -1.0049  1.3302 -0.1085
16758TIP3   OH271688   5.535   0.331   2.156  0.4952 -0.0755 -0.4747
16758TIP3    H171689   5.543   0.426   2.153 -0.1282  0.0953  1.4669
16758TIP3    H271690   5.489   0.314   2.238 -0.7629 -1.9769 -1.4937
16759TIP3   OH271691   6.240   0.810  15.215 -0.3332  0.2736 -0.2966
16759TIP3    H171692   6.293   0.737  15.181 -0.5177 -0.1056  0.2182
16759TIP3    H271693   6.190   0.840  15.139  2.0578  1.9754 -1.3368
16760TIP3   OH271694   3.684   1.524   0.327  0.1434  0.4009  0.6874
16760TIP3    H171695   3.679   1.619   0.326  1.6825  0.5785 -2.1487
16760TIP3    H271696   3.618   1.496   0.263 -0.1534 -0.4557  1.3451
16761TIP3   OH271697   1.130   0.747  13.598 -0.2923  0.3525 -0.2426
16761TIP3    H171698   1.114   0.716  13.509 -2.5931 -0.8633  0.4908
16761TIP3    H271699   1.221   0.725  13.615 -0.9024 -3.3637 -0.9180
16762TIP3   OH271700   4.553   5.286   2.547  0.3386  0.2131  0.2877
16762TIP3    H171701   4.462   5.311   2.566  0.9204  0.6580  2.8644
16762TIP3    H271702   4.560   5.293   2.452 -1.7350  2.1874  0.1935
16763TIP3   OH271703   4.929   4.825   0.499  0.0073  0.3762 -0.7163
16763TIP3    H171704   4.895   4.746   0.458  0.9793  0.3282 -1.4564
16763TIP3    H271705   5.020   4.831   0.468  0.6732  0.5425  1.1125
16764TIP3   OH271706   5.444   3.655   4.040  0.0856 -0.0115 -0.2459
16764TIP3    H171707   5.423   3.701   3.959 -1.3242 -0.5225 -0.2083
16764TIP3    H271708   5.368   3.672   4.097  0.3266 -0.9650  0.3815
16765TIP3   OH271709   0.037   4.266  12.002 -0.0067  0.2083 -0.1360
16765TIP3    H171710  -0.051   4.273  12.039  0.0337 -1.1119  0.2561
16765TIP3    H271711   0.064   4.176  12.021  2.6376  1.3815  2.4431
16766TIP3   OH271712   2.894   3.550  16.246  0.5946 -0.1140 -0.5990
16766TIP3    H171713   2.883   3.616  16.177 -1.1768 -0.1478 -0.4061
16766TIP3    H271714   2.863   3.469  16.206 -1.6067  0.0897  0.5340
16767TIP3   OH271715   3.813   6.035   1.755  0.1690  0.4440 -0.1404
16767TIP3    H171716   3.772   5.966   1.806  1.1006 -0.7120 -0.9132
16767TIP3    H271717   3.906   6.028   1.776  0.5808 -0.1147 -2.0298
16768TIP3   OH271718   1.831   4.369  13.869 -0.3653  0.5627  0.3132
16768TIP3    H171719   1.799   4.454  13.838 -0.0971  0.2437 -0.8815
16768TIP3    H271720   1.885   4.336  13.797  1.1019  0.2229  1.5239
16769TIP3   OH271721   0.366   2.775  16.069  0.3198  0.1314  0.0710
16769TIP3    H171722   0.327   2.701  16.023  0.8012 -2.0300  2.9142
16769TIP3    H271723   0.295   2.811  16.121  0.4586  0.7451 -0.1525
16770TIP3   OH271724   2.540   4.595  12.755  0.2527 -0.5090  0.1368
16770TIP3    H171725   2.597   4.538  12.704  1.9675 -0.6870  2.1126
16770TIP3    H271726   2.493   4.647  12.690  3.3078  0.2705 -1.6095
16771TIP3   OH271727   1.043   0.890  12.388  0.4543 -0.7934 -0.0916
16771TIP3    H171728   1.047   0.826  12.317 -0.6489 -0.9278 -0.0568
16771TIP3    H271729   1.118   0.947  12.373 -0.1498 -0.3709 -1.8139
16772TIP3   OH271730   2.180   3.329   1.532  0.0498 -0.3216  0.4242
16772TIP3    H171731   2.154   3.420   1.518  2.5729  0.4170  0.0439
16772TIP3    H271732   2.152   3.310   1.622  0.9598  1.4507  1.1456
16773TIP3   OH271733   2.654   3.312   0.408  0.2654 -0.4528 -0.1222
16773TIP3    H171734   2.629   3.257   0.481 -1.3122 -0.1466 -0.3982
16773TIP3    H271735   2.620   3.268   0.330  0.4857  0.0446 -0.5159
16774TIP3   OH271736   5.263   1.567  17.314  0.3091 -0.4498  0.3226
16774TIP3    H171737   5.314   1.490  17.288  0.5095 -0.3234  0.3367
16774TIP3    H271738   5.321   1.641  17.296  0.3176 -0.3373  0.8020
16775TIP3   OH271739   0.099   3.592   1.641  0.3654  0.7591  0.3456
16775TIP3    H171740   0.125   3.627   1.555  0.4483  1.4869  0.6594
16775TIP3    H271741   0.035   3.524   1.621  0.4367  0.8768 -0.3033
16776TIP3   OH271742   2.273   0.742   2.776 -0.0875  0.1358 -0.6632
16776TIP3    H171743   2.224   0.661   2.767 -0.9460  0.6791 -1.0652
16776TIP3    H271744   2.207   0.806   2.804  0.3076  0.9805 -1.6241
16777TIP3   OH271745   6.478   5.101  17.280  0.0796  0.3696 -0.5236
16777TIP3    H171746   6.545   5.089  17.347 -0.5889 -1.2533 -0.0874
16777TIP3    H271747   6.470   5.196  17.270  0.5753  0.6333  1.3126
16778TIP3   OH271748   3.379   6.694   1.897 -0.3555  0.2016  0.2261
16778TIP3    H171749   3.421   6.661   1.817 -1.4349  2.3791 -1.3500
16778TIP3    H271750   3.317   6.625   1.921  0.4427 -0.7801 -0.4204
16779TIP3   OH271751   0.976   4.242   4.711 -0.0606  0.0366 -0.0380
16779TIP3    H171752   0.924   4.167   4.682  1.0622 -1.2113  1.0387
16779TIP3    H271753   1.032   4.207   4.780  0.3088  1.9457  0.6938
16780TIP3   OH271754   4.363   5.049   4.230 -0.1566 -0.1955 -0.3172
16780TIP3    H171755   4.397   4.961   4.212  0.7441  0.4871 -2.3118
16780TIP3    H271756   4.434   5.093   4.276  0.6904  0.3786 -2.0567
16781TIP3   OH271757   0.276   0.239   3.584  0.3674  0.0820  0.0493
16781TIP3    H171758   0.280   0.169   3.649 -0.3783 -0.7405 -0.7684
16781TIP3    H271759   0.245   0.315   3.634 -0.2822 -0.5596  0.6503
16782TIP3   OH271760   0.219   5.890   0.430  0.8764  0.1252  0.1462
16782TIP3    H171761   0.141   5.939   0.404  0.3369 -1.4030 -1.2700
16782TIP3    H271762   0.265   5.949   0.490 -1.3785  1.0616  1.0836
16783TIP3   OH271763   6.167   3.512  11.636  0.3172  0.4548  0.3162
16783TIP3    H171764   6.134   3.553  11.716  0.5062 -0.4243  0.8581
16783TIP3    H271765   6.261   3.525  11.639  0.2213  1.4416 -0.3651
16784TIP3   OH271766   3.790   2.999   3.810  0.4744  0.4969 -0.3430
16784TIP3    H171767   3.778   3.063   3.879 -0.4240 -0.6231  0.5901
16784TIP3    H271768   3.718   2.937   3.822  2.3613 -1.7744  0.0578
16785TIP3   OH271769   4.823   4.803   4.474  0.4300 -0.0230  0.1752
16785TIP3    H171770   4.902   4.750   4.466  1.1131  0.7381  1.4317
16785TIP3    H271771   4.848   4.872   4.536 -1.5978 -0.5022  1.5983
16786TIP3   OH271772   3.578   0.567   0.789 -0.3840 -0.7921  0.3841
16786TIP3    H171773   3.644   0.552   0.721 -0.4204 -0.0710  0.1781
16786TIP3    H271774   3.620   0.629   0.849 -1.1860  0.3825 -0.2345
16787TIP3   OH271775   5.104   4.285  15.191  0.5568  0.0600  0.0089
16787TIP3    H171776   5.198   4.272  15.199  0.8918  0.7924 -2.1476
16787TIP3    H271777   5.070   4.199  15.165  0.3771 -0.5709  2.1312
16788TIP3   OH271778   5.579   5.917  16.628 -0.2609 -0.2335  0.1396
16788TIP3    H171779   5.501   5.929  16.573 -0.7731  1.4696  1.1514
16788TIP3    H271780   5.561   5.838  16.678  0.4432 -2.1471 -2.3909
16789TIP3   OH271781   3.301   3.109   2.131 -0.4942  0.4063 -0.0474
16789TIP3    H171782   3.214   3.076   2.154  0.0097 -2.2113 -1.5107
16789TIP3    H271783   3.340   3.040   2.077  2.3828  1.6305  0.2607
16790TIP3   OH271784   6.661   0.582   4.576  0.5365 -0.3912  0.8270
16790TIP3    H171785   6.576   0.552   4.609 -0.6408  1.9078  0.1230
16790TIP3    H271786   6.706   0.617   4.654 -0.6969  1.6326  0.7033
16791TIP3   OH271787   6.188   3.543   3.746 -0.4935 -0.0615  0.2409
16791TIP3    H171788   6.179   3.559   3.840 -1.8131 -1.3044  0.3657
16791TIP3    H271789   6.100   3.519   3.718  0.3409 -2.0488 -0.8513
16792TIP3   OH271790   3.265   3.164   2.414  0.1387  0.1648  0.2657
16792TIP3    H171791   3.273   3.128   2.326  1.0595 -0.3521  0.5463
16792TIP3    H271792   3.188   3.120   2.451 -1.5431  1.9101 -0.9622
16793TIP3   OH271793   4.344   2.576  17.106  0.4308 -0.6049  0.4560
16793TIP3    H171794   4.321   2.571  17.199 -0.3377  0.0977  0.3176
16793TIP3    H271795   4.398   2.499  17.090 -0.3266 -1.3175  1.2417
16794TIP3   OH271796   3.563   1.094  10.776  0.0228  0.0910 -0.0707
16794TIP3    H171797   3.499   1.067  10.842 -0.8190  1.3867 -0.3115
16794TIP3    H271798   3.515   1.090  10.694  0.7646 -0.5273 -0.4826
16795TIP3   OH271799   3.769   4.870  11.183 -0.0778  0.3832  0.0767
16795TIP3    H171800   3.737   4.932  11.118 -0.7644 -0.8894 -0.8422
16795TIP3    H271801   3.837   4.820  11.137  0.2577  0.2443  0.7086
16796TIP3   OH271802   0.257   5.853   2.656 -0.0409 -0.2439  0.0509
16796TIP3    H171803   0.297   5.887   2.576 -1.4568 -1.5694 -1.2961
16796TIP3    H271804   0.189   5.917   2.678 -0.6985 -0.6476 -0.7455
16797TIP3   OH271805   0.973   2.758  16.082  0.0668 -0.2479 -0.7091
16797TIP3    H171806   0.977   2.795  16.171 -0.1576 -0.5655 -0.5650
16797TIP3    H271807   0.946   2.831  16.027 -0.6094 -0.2527 -0.3876
16798TIP3   OH271808   4.600   5.598  15.012 -0.1327 -0.3023 -0.5969
16798TIP3    H171809   4.519   5.550  14.994  0.4393 -2.2168  1.4814
16798TIP3    H271810   4.597   5.616  15.106  1.9044 -0.5355 -0.4537
16799TIP3   OH271811   4.970   2.047  13.146 -0.1107  0.0422  0.0375
16799TIP3    H171812   4.958   1.960  13.184  0.1867  0.4619  1.1323
16799TIP3    H271813   5.012   2.032  13.062 -0.4923 -0.8969  0.0092
16800TIP3   OH271814   1.048   0.102   2.228 -0.1774  0.4498 -0.2776
16800TIP3    H171815   0.955   0.098   2.250 -0.3246  1.5352 -0.6177
16800TIP3    H271816   1.093   0.069   2.306 -0.8297  0.2382  0.0152
16801TIP3   OH271817   3.921   4.891  16.512  0.3604  0.4702  0.4896
16801TIP3    H171818   3.984   4.833  16.468  0.3308 -1.9314  3.2762
16801TIP3    H271819   3.916   4.968  16.456  1.4510 -1.6232 -2.7847
16802TIP3   OH271820   5.374   3.943  17.375 -0.0057  0.2098  0.0243
16802TIP3    H171821   5.354   3.972  17.463  0.3919 -0.1686  0.2496
16802TIP3    H271822   5.430   3.866  17.388 -2.1630 -1.5488 -0.5090
16803TIP3   OH271823   4.961   6.608   1.139  0.4612 -0.8836 -0.4922
16803TIP3    H171824   5.033   6.591   1.200  0.8612 -0.3435 -0.8003
16803TIP3    H271825   4.985   6.691   1.096  0.9518 -1.9749 -2.4576
16804TIP3   OH271826   1.792   5.603  16.825 -0.6121  0.0892 -0.2924
16804TIP3    H171827   1.880   5.627  16.857  0.0057 -1.3545 -0.8252
16804TIP3    H271828   1.782   5.511  16.849 -2.1040  0.2913 -0.0416
16805TIP3   OH271829   0.244   4.655  17.320 -0.0386  0.0275  0.8235
16805TIP3    H171830   0.312   4.713  17.284  0.3508 -0.1889  1.2066
16805TIP3    H271831   0.164   4.708  17.320  0.6884  1.2439  2.9583
16806TIP3   OH271832   2.816   0.752   1.198 -0.8370 -0.1550  0.3682
16806TIP3    H171833   2.745   0.688   1.188 -0.0526 -0.9926 -0.0665
16806TIP3    H271834   2.883   0.706   1.249 -0.1389  0.2083 -0.1982
16807TIP3   OH271835   5.582   5.336  13.300  0.1719  0.2236  0.6786
16807TIP3    H171836   5.621   5.316  13.215  0.2148  0.5820  0.6138
16807TIP3    H271837   5.498   5.377  13.279 -0.0103 -0.0744  0.8151
16808TIP3   OH271838   3.605   2.439   1.719  0.3026 -0.0526  0.0017
16808TIP3    H171839   3.537   2.391   1.766  2.2216 -2.2286  0.8012
16808TIP3    H271840   3.582   2.531   1.731 -1.0070 -0.6067  2.6098
16809TIP3   OH271841   2.230   1.914  17.333 -0.5479  0.3158  0.6224
16809TIP3    H171842   2.221   1.948  17.244  1.0690 -2.8215 -0.9222
16809TIP3    H271843   2.170   1.967  17.385 -0.4264  3.3287 -1.9818
16810TIP3   OH271844   4.137   3.837  11.967  0.0555 -0.1241 -0.1150
16810TIP3    H171845   4.150   3.809  12.058 -0.8467  0.7125  0.2863
16810TIP3    H271846   4.173   3.926  11.964  2.5149 -1.0599 -1.2668
16811TIP3   OH271847   5.103   1.938  12.944 -0.1997  0.5134 -0.3396
16811TIP3    H171848   5.161   1.981  12.881 -1.5683  2.1114 -0.5779
16811TIP3    H271849   5.159   1.874  12.989  1.5716  1.5691 -0.9629
16812TIP3   OH271850   0.699   6.690  15.555 -0.5876  0.1702 -0.1698
16812TIP3    H171851   0.790   6.703  15.583  0.1522 -0.9845 -1.8377
16812TIP3    H271852   0.676   6.603  15.588  0.8218 -1.9235 -3.9605
16813TIP3   OH271853   1.031   3.735  16.516  0.5696 -0.0831 -0.2232
16813TIP3    H171854   1.083   3.774  16.587  1.2984 -0.4688 -0.5243
16813TIP3    H271855   1.077   3.653  16.497  0.6079  0.2009 -1.4006
16814TIP3   OH271856   1.182   3.547   4.500  0.3876  0.3545  0.1143
16814TIP3    H171857   1.110   3.608   4.484 -0.2345  0.6050  3.1954
16814TIP3    H271858   1.252   3.602   4.534  0.8426 -0.2930  0.2332
16815TIP3   OH271859   2.158   4.380  13.797 -0.1064 -0.2704  0.0727
16815TIP3    H171860   2.089   4.370  13.732 -0.6844  3.0046  0.0004
16815TIP3    H271861   2.237   4.396  13.746  0.7556 -3.5218  0.1703
16816TIP3   OH271862   2.384   3.146   1.492 -0.5352 -0.0614 -0.6767
16816TIP3    H171863   2.299   3.190   1.489 -0.5172 -0.0237 -0.6278
16816TIP3    H271864   2.444   3.208   1.449 -0.4546  0.0845 -0.3572
16817TIP3   OH271865   2.610   0.679   2.537 -0.1237 -0.4995  0.1039
16817TIP3    H171866   2.698   0.643   2.553  0.2941  0.5898  0.3707
16817TIP3    H271867   2.590   0.654   2.447  0.0493 -1.5694  0.3448
16818TIP3   OH271868   1.003   6.046   4.353  0.2994 -0.3137 -0.0554
16818TIP3    H171869   1.034   6.028   4.442  0.8328 -1.7365 -0.4947
16818TIP3    H271870   0.951   6.126   4.361  0.1701 -0.5273  1.5694
16819TIP3   OH271871   3.517   1.688  11.746 -0.6534 -0.5184  0.1544
16819TIP3    H171872   3.480   1.612  11.790  0.7278 -0.9608  0.5859
16819TIP3    H271873   3.510   1.759  11.810 -1.9657 -0.2313 -0.2570
16820TIP3   OH271874   4.267   4.154  14.421  0.8163  0.2605 -0.0530
16820TIP3    H171875   4.267   4.120  14.511  1.9482  1.3332  0.3775
16820TIP3    H271876   4.179   4.189  14.409  0.2189 -1.0878  0.1428
16821TIP3   OH271877   3.296   0.681  17.273  0.4600  0.6046 -0.1318
16821TIP3    H171878   3.363   0.642  17.217  0.4358  0.4785 -0.0727
16821TIP3    H271879   3.328   0.666  17.362 -0.0956 -0.2687 -0.0733
16822TIP3   OH271880   6.679   1.554  11.149  0.5356 -0.0073 -0.4314
16822TIP3    H171881   6.724   1.608  11.084 -0.5084  3.0882  1.2047
16822TIP3    H271882   6.599   1.603  11.169 -0.4340 -2.1479  1.2842
16823TIP3   OH271883   2.643   2.484   0.001 -0.0616  0.6293  0.0044
16823TIP3    H171884   2.655   2.511  -0.090 -0.0342  1.7098  0.3101
16823TIP3    H271885   2.646   2.389  -0.001 -1.7272  0.5580 -1.3715
16824TIP3   OH271886   3.068   2.206   0.489  0.3721  0.7349 -0.3072
16824TIP3    H171887   2.972   2.201   0.495  0.4395  0.3598  0.5227
16824TIP3    H271888   3.099   2.135   0.544  1.1529  2.0029  0.9513
16825TIP3   OH271889   3.602   2.277  15.643  0.3457  0.1588 -0.2441
16825TIP3    H171890   3.555   2.343  15.693  0.5410 -0.4231  0.7320
16825TIP3    H271891   3.561   2.279  15.556 -1.0409  0.1259  0.3778
16826TIP3   OH271892   3.151   3.726   3.052 -0.1745 -0.6156 -0.5705
16826TIP3    H171893   3.066   3.728   3.096  0.1769  1.8838  0.1577
16826TIP3    H271894   3.161   3.635   3.023 -2.8165 -1.1180 -0.1849
16827TIP3   OH271895   0.819   1.146   6.569 -0.0971 -0.2610 -0.3291
16827TIP3    H171896   0.786   1.231   6.541 -0.7221 -0.2137  0.5133
16827TIP3    H271897   0.914   1.156   6.568 -0.0682 -0.2396 -2.3043
16828TIP3   OH271898   5.327   5.708   4.572 -0.1528 -0.0117  0.4948
16828TIP3    H171899   5.332   5.614   4.587  1.2766  0.1942  1.4706
16828TIP3    H271900   5.393   5.725   4.505 -0.2002  0.3383  0.5361
16829TIP3   OH271901   2.347   0.572  14.770 -0.0880  0.3459 -0.3039
16829TIP3    H171902   2.333   0.650  14.717  0.3874 -0.4616 -1.6636
16829TIP3    H271903   2.332   0.499  14.711 -2.4751 -0.6934  1.4162
16830TIP3   OH271904   6.188   5.526   2.845  0.0069 -0.1425  0.3678
16830TIP3    H171905   6.236   5.442   2.841  0.6711  0.2915 -1.5937
16830TIP3    H271906   6.257   5.592   2.849 -0.4091  0.4462 -1.4159
16831TIP3   OH271907   3.623   5.132  15.082 -0.0875 -0.5017  0.0741
16831TIP3    H171908   3.702   5.096  15.042  0.8394 -1.0211  2.1811
16831TIP3    H271909   3.574   5.055  15.112 -1.4697 -0.1900 -1.2700
16832TIP3   OH271910   2.005   5.624   6.066 -0.4290  0.0917  0.6528
16832TIP3    H171911   2.043   5.556   6.121  0.3050  0.1786  0.2600
16832TIP3    H271912   1.936   5.662   6.120 -0.8546 -0.9554  0.8769
16833TIP3   OH271913   2.088   1.290  15.812 -0.0404 -0.0780 -0.0362
16833TIP3    H171914   2.051   1.220  15.866 -0.4285 -0.2526 -0.5181
16833TIP3    H271915   2.013   1.327  15.767  0.0042  1.4075  1.0600
16834TIP3   OH271916   3.829   1.771  11.912 -0.0646  0.1243 -0.2046
16834TIP3    H171917   3.893   1.841  11.897  0.2839 -0.5211 -1.9158
16834TIP3    H271918   3.746   1.817  11.925  0.2984  0.8849 -0.5215
16835TIP3   OH271919   1.350   5.563   1.733  0.0271 -0.2092 -0.2414
16835TIP3    H171920   1.348   5.657   1.745  0.1453 -0.2246 -0.1087
16835TIP3    H271921   1.258   5.538   1.721 -0.0568 -0.1518  0.2769
16836TIP3   OH271922   5.506   2.331   0.889 -0.0967  0.2995 -0.0355
16836TIP3    H171923   5.457   2.250   0.883  1.6276 -0.7006 -1.6575
16836TIP3    H271924   5.583   2.309   0.942  0.3474  0.8663 -0.4255
16837TIP3   OH271925   4.603   0.612   5.003 -0.1218 -0.0894  0.1531
16837TIP3    H171926   4.636   0.632   5.091  1.5267  1.7060 -0.8010
16837TIP3    H271927   4.613   0.694   4.955 -0.5754 -1.1628 -1.8419
16838TIP3   OH271928   2.638   2.071  12.745 -0.1758 -0.7378 -0.1396
16838TIP3    H171929   2.598   2.147  12.703  2.5598  2.8143  3.1086
16838TIP3    H271930   2.725   2.065  12.706  0.6296 -0.4041  1.5337
16839TIP3   OH271931   2.892   5.133   4.458 -0.2128 -0.4773  0.2351
16839TIP3    H171932   2.901   5.070   4.387 -0.4531 -1.3655  0.9833
16839TIP3    H271933   2.799   5.135   4.477 -0.2269  0.2291  0.1164
16840TIP3   OH271934   5.627   3.166   3.324  0.2943 -0.3618  0.4070
16840TIP3    H171935   5.655   3.083   3.286  0.7985 -0.1103  0.2187
16840TIP3    H271936   5.654   3.232   3.260 -0.6779 -0.1004  0.2436
16841TIP3   OH271937   2.972   6.730  12.157 -0.1713  0.0340  0.5566
16841TIP3    H171938   2.952   6.694  12.243  0.0179 -1.6574 -0.0612
16841TIP3    H271939   2.963   6.824  12.167  0.4747 -0.0876  2.5828
16842TIP3   OH271940   6.010   0.683  13.870  0.5055 -0.1595  0.8379
16842TIP3    H171941   6.042   0.621  13.935  0.8337  1.2601  2.0939
16842TIP3    H271942   5.924   0.649  13.844  1.0340 -1.5690  0.8371
16843TIP3   OH271943   3.272   3.098  13.954 -0.2405  0.4254  0.6171
16843TIP3    H171944   3.178   3.114  13.956 -0.0784  1.4290  1.1013
16843TIP3    H271945   3.283   3.010  13.990 -1.0833 -0.3037 -0.8055
16844TIP3   OH271946   1.887   5.246  12.319 -0.3419  0.4007  0.0560
16844TIP3    H171947   1.861   5.302  12.392 -0.0803  0.6941 -0.0752
16844TIP3    H271948   1.822   5.175  12.318  0.6564 -0.5968  1.6863
16845TIP3   OH271949   5.037   0.462  17.389 -0.3256  0.6072 -0.4150
16845TIP3    H171950   4.990   0.388  17.427 -0.0885  0.9679  0.6087
16845TIP3    H271951   5.122   0.426  17.363  0.0846  0.6614  0.7774
16846TIP3   OH271952   5.462   1.759   0.169 -0.2060 -0.4307 -0.0146
16846TIP3    H171953   5.528   1.827   0.182 -0.2034 -0.5760  0.8133
16846TIP3    H271954   5.507   1.678   0.189  0.0215 -0.7832 -1.8109
16847TIP3   OH271955   5.587   3.198  16.971  0.7586 -0.4073 -0.4069
16847TIP3    H171956   5.627   3.250  17.041  0.2836  0.4864 -0.7771
16847TIP3    H271957   5.661   3.151  16.931  1.4733  1.1206 -1.0057
16848TIP3   OH271958   3.637   0.896   5.303 -1.1364  0.2022 -0.0937
16848TIP3    H171959   3.542   0.886   5.301 -0.9983 -1.4200  0.5233
16848TIP3    H271960   3.662   0.903   5.211 -1.9699  2.2201 -0.2121
16849TIP3   OH271961   0.577   5.931  12.130 -0.1061  0.8797 -0.1503
16849TIP3    H171962   0.498   5.884  12.102 -0.1791  0.5793  0.5288
16849TIP3    H271963   0.584   5.911  12.223  1.6931 -0.4534 -0.5192
16850TIP3   OH271964   0.974   5.641   4.879  0.2699  0.1426  0.4046
16850TIP3    H171965   0.896   5.680   4.839  0.7862  0.5096 -0.2680
16850TIP3    H271966   1.006   5.580   4.813  0.6375  0.1024  0.6174
16851TIP3   OH271967   5.851   0.135  13.459 -0.3981 -0.6174  0.4105
16851TIP3    H171968   5.865   0.041  13.475  0.1272 -0.9405 -1.5681
16851TIP3    H271969   5.774   0.138  13.403 -1.0862  0.2446  1.3913
16852TIP3   OH271970   3.981   1.405  14.810 -0.2091 -0.1323 -0.2926
16852TIP3    H171971   4.062   1.422  14.858 -0.7248  0.1596  0.4914
16852TIP3    H271972   3.957   1.316  14.834 -0.3528 -0.0640 -0.1839
16853TIP3   OH271973   0.779   3.334   6.753  0.2036  0.1417 -0.0400
16853TIP3    H171974   0.781   3.369   6.842  0.1850 -2.0217  0.8739
16853TIP3    H271975   0.687   3.337   6.728  0.1449  0.3260  0.1959
16854TIP3   OH271976   1.700   0.682  15.813  0.2070  0.2429  0.4178
16854TIP3    H171977   1.665   0.680  15.902 -0.1159 -1.2827  0.2821
16854TIP3    H271978   1.778   0.626  15.817  1.2535  1.6230  0.1416
16855TIP3   OH271979   1.541   4.089   0.682 -0.1041  0.2046  0.0658
16855TIP3    H171980   1.525   4.179   0.653 -3.1619 -0.4176 -0.5831
16855TIP3    H271981   1.636   4.083   0.690  0.2790  3.1794 -0.8435
16856TIP3   OH271982   4.152   3.701   4.481 -0.2249  0.1642  0.1243
16856TIP3    H171983   4.151   3.796   4.489  1.3994  0.3689 -1.5249
16856TIP3    H271984   4.212   3.683   4.408 -0.3738 -2.1300  0.4827
16857TIP3   OH271985   0.612   5.042   0.173  0.2646  0.1531 -0.3377
16857TIP3    H171986   0.543   5.076   0.229 -0.1924  1.6011 -1.7032
16857TIP3    H271987   0.613   4.948   0.190 -1.8754  0.1323 -0.0997
16858TIP3   OH271988   6.107   6.377   0.994 -0.3078  0.7650 -0.0676
16858TIP3    H171989   6.095   6.408   0.904  0.3675 -0.4137 -0.5778
16858TIP3    H271990   6.029   6.410   1.041 -0.3277  1.9768 -0.8980
16859TIP3   OH271991   3.722   4.880   0.297 -0.5266  0.1035 -0.4681
16859TIP3    H171992   3.733   4.786   0.304  0.9346  0.2099 -0.9729
16859TIP3    H271993   3.665   4.893   0.221  0.7559 -0.3333 -1.5373
16860TIP3   OH271994   0.602   2.044   2.798 -0.8976 -0.3072  0.4494
16860TIP3    H171995   0.688   2.021   2.762 -0.7552 -1.8904  1.6932
16860TIP3    H271996   0.604   2.140   2.806  0.6731 -0.3033  0.2819
16861TIP3   OH271997   3.248   5.400   5.061 -0.1808  0.1443  0.4353
16861TIP3    H171998   3.222   5.348   5.137 -0.2360  0.7789  0.8565
16861TIP3    H271999   3.339   5.375   5.045  0.1524  0.7590  1.3410
16862TIP3   OH272000   0.230   4.239   1.003 -0.1434  0.5779  0.2489
16862TIP3    H172001   0.158   4.286   0.961  0.3532 -0.0581 -1.4363
16862TIP3    H272002   0.303   4.248   0.941  0.2278 -1.5591  0.2950
16863TIP3   OH272003   6.538   5.643   2.921  0.2818 -0.0066 -0.2271
16863TIP3    H172004   6.519   5.688   3.003  0.6441  0.6642 -0.5065
16863TIP3    H272005   6.579   5.709   2.866  2.4738 -1.0863 -0.0253
16864TIP3   OH272006   6.434   5.927   6.258 -0.2753  0.1444  0.3622
16864TIP3    H172007   6.478   5.893   6.335  0.1598 -0.9201 -0.3331
16864TIP3    H272008   6.480   5.887   6.184 -0.9272  0.8355 -0.4451
16865TIP3   OH272009   1.929   4.115   0.410 -0.2332 -0.2438 -0.1088
16865TIP3    H172010   1.951   4.058   0.483 -2.3945 -0.9965  0.0472
16865TIP3    H272011   1.968   4.073   0.333  0.1965 -0.6473  0.3287
16866TIP3   OH272012   5.984   3.542   1.923 -0.6344  0.1766  0.0247
16866TIP3    H172013   6.024   3.565   2.008 -1.7625  2.0527  0.1056
16866TIP3    H272014   5.895   3.576   1.929 -0.1567  2.1442 -2.6224
16867TIP3   OH272015   6.635   4.769  13.343 -0.2434  0.1066 -0.0864
16867TIP3    H172016   6.644   4.840  13.406  0.3777 -1.3375  1.5037
16867TIP3    H272017   6.543   4.744  13.348 -0.5777  1.0408 -0.9912
16868TIP3   OH272018   4.906   4.291  15.789  0.1050  0.8406 -0.2566
16868TIP3    H172019   4.815   4.273  15.765  0.0224  1.6840 -0.6346
16868TIP3    H272020   4.953   4.210  15.771 -0.6234  0.2918  0.2528
16869TIP3   OH272021   1.114   4.761   2.839 -0.5591  0.2015 -0.4497
16869TIP3    H172022   1.204   4.754   2.870 -0.6805 -0.0590 -0.1415
16869TIP3    H272023   1.061   4.738   2.916 -0.8602 -0.7458 -0.9304
16870TIP3   OH272024   1.472   1.815   6.256 -0.2942  0.2155  0.3614
16870TIP3    H172025   1.560   1.851   6.252 -0.3513  0.4481  1.0786
16870TIP3    H272026   1.434   1.853   6.336 -0.2643 -1.6617  1.3163
16871TIP3   OH272027   2.719   6.593  12.017 -0.0292  0.0221  0.0443
16871TIP3    H172028   2.797   6.640  12.047  0.0646  0.2354 -0.5239
16871TIP3    H272029   2.687   6.547  12.095  0.8282 -0.3023  0.2089
16872TIP3   OH272030   1.493   2.116   5.136  0.6643  0.4191  0.4499
16872TIP3    H172031   1.516   2.184   5.073  0.9657  1.4095  1.5976
16872TIP3    H272032   1.543   2.138   5.215  1.3705 -1.5876  0.6002
16873TIP3   OH272033   0.089   3.583  14.624 -0.2773 -0.9010 -0.5148
16873TIP3    H172034   0.178   3.616  14.637 -0.2645 -0.5783 -1.3277
16873TIP3    H272035   0.052   3.576  14.712 -0.3072  1.3368 -0.3041
16874TIP3   OH272036   2.664   6.112   3.216  0.5742 -0.1113 -0.3175
16874TIP3    H172037   2.725   6.114   3.290  0.2003  2.2209 -0.0114
16874TIP3    H272038   2.577   6.102   3.257  0.2890  1.9472 -0.3013
16875TIP3   OH272039   5.043   6.697   2.303 -0.7475 -0.2050 -0.2485
16875TIP3    H172040   5.094   6.776   2.284  0.0230  0.5881  4.0774
16875TIP3    H272041   4.959   6.712   2.259 -0.5574  2.9966  0.2314
16876TIP3   OH272042   6.288   6.636   2.465  0.3917 -0.1716 -0.0341
16876TIP3    H172043   6.355   6.588   2.515  2.2225  1.2255 -1.0103
16876TIP3    H272044   6.334   6.665   2.386 -1.7259 -0.1247 -1.3041
16877TIP3   OH272045   1.722   5.958  12.068 -0.7807 -0.2596  0.1637
16877TIP3    H172046   1.705   5.971  11.974 -1.6571 -2.4685 -0.0531
16877TIP3    H272047   1.785   5.886  12.071 -1.3813 -0.7707  1.2593
16878TIP3   OH272048   1.300   2.647  11.808 -0.1421 -0.5622  0.7643
16878TIP3    H172049   1.333   2.581  11.749 -0.4655 -0.6121  0.6361
16878TIP3    H272050   1.331   2.730  11.772 -1.5362 -0.4664 -0.3108
16879TIP3   OH272051   1.878   4.929  15.893 -0.1446 -0.3689 -0.1532
16879TIP3    H172052   1.963   4.890  15.872  0.2498 -0.9621  2.1999
16879TIP3    H272053   1.899   5.017  15.925  0.1495 -1.6546  3.7958
16880TIP3   OH272054   5.866   6.436   1.134 -0.0526  0.6319  0.3169
16880TIP3    H172055   5.898   6.392   1.213 -1.0221  2.8194  2.0269
16880TIP3    H272056   5.782   6.394   1.116 -0.3342  0.8235  1.1229
16881TIP3   OH272057   0.348   4.890  16.678  0.4177 -0.1342 -0.4234
16881TIP3    H172058   0.292   4.854  16.747 -1.1087 -1.5254 -2.3034
16881TIP3    H272059   0.331   4.984  16.681 -2.2388 -0.5120 -1.0304
16882TIP3   OH272060   5.759   4.803  15.283 -0.4983  0.1011 -0.0063
16882TIP3    H172061   5.800   4.750  15.350 -1.7420  0.6484  1.2534
16882TIP3    H272062   5.819   4.876  15.269 -0.3402  0.1103  0.7108
16883TIP3   OH272063   5.022   4.781   2.483 -0.2204  0.1547  0.7898
16883TIP3    H172064   4.977   4.827   2.554 -0.5793  2.8963 -1.0472
16883TIP3    H272065   4.987   4.820   2.403  1.8596 -1.1182 -0.8603
16884TIP3   OH272066   1.540   0.738   5.726 -0.5259  0.6241 -0.1413
16884TIP3    H172067   1.474   0.798   5.761 -0.6137  0.1127  0.5801
16884TIP3    H272068   1.490   0.678   5.669 -0.8404 -0.3085  1.0839
16885TIP3   OH272069   5.386   2.848  17.322  0.0217 -0.4554  0.6854
16885TIP3    H172070   5.293   2.833  17.311  0.1194 -1.1901  0.8392
16885TIP3    H272071   5.428   2.792  17.257  0.3907 -0.8585  1.2630
16886TIP3   OH272072   0.961   3.236  13.731 -0.5001 -0.0332 -0.0659
16886TIP3    H172073   1.029   3.169  13.723 -1.6818 -1.4435  0.8823
16886TIP3    H272074   0.911   3.229  13.649  1.0540  1.7552 -1.2453
16887TIP3   OH272075   1.419   2.441   6.039  0.3164  0.2581  0.3809
16887TIP3    H172076   1.457   2.515   5.992 -1.5092 -0.0619 -1.8114
16887TIP3    H272077   1.341   2.476   6.081  0.2492 -0.1147  0.5731
16888TIP3   OH272078   4.516   5.394  14.713 -0.2978  0.1585  0.5375
16888TIP3    H172079   4.438   5.443  14.738 -1.1577 -1.1229  0.4282
16888TIP3    H272080   4.506   5.379  14.619 -1.1072 -2.0002  0.9218
16889TIP3   OH272081   4.737   0.368  16.251  0.0131 -0.2569  0.4372
16889TIP3    H172082   4.765   0.285  16.290  0.0692 -0.6964 -0.5243
16889TIP3    H272083   4.689   0.343  16.172  0.9165  0.6636 -0.4176
16890TIP3   OH272084   6.366   0.267  13.805  0.1994  0.2754 -0.5621
16890TIP3    H172085   6.343   0.276  13.898  0.4845 -1.0093 -0.3404
16890TIP3    H272086   6.421   0.343  13.787  2.4831 -0.8448  1.1146
16891TIP3   OH272087   0.604   6.374  13.795 -0.0776  0.1961 -0.2419
16891TIP3    H172088   0.670   6.407  13.856  0.4787 -1.3103  0.0157
16891TIP3    H272089   0.553   6.312  13.846 -1.1471  0.6813 -0.6908
16892TIP3   OH272090   3.276   1.190  16.743  0.1063 -0.1636  0.0839
16892TIP3    H172091   3.186   1.165  16.759 -0.0880  0.2448 -0.3490
16892TIP3    H272092   3.311   1.120  16.688  0.1438 -0.4677  0.4870
16893TIP3   OH272093   4.665   6.093  15.877  0.0452 -0.2786  0.1411
16893TIP3    H172094   4.635   6.033  15.945  1.5762 -0.3157  0.8118
16893TIP3    H272095   4.643   6.180  15.909 -3.6726 -0.3963 -1.5463
16894TIP3   OH272096   3.360   5.962  14.718 -0.7064  0.1807 -0.0992
16894TIP3    H172097   3.452   5.940  14.727 -1.3176 -2.0619  1.6848
16894TIP3    H272098   3.318   5.920  14.793 -3.1439  1.4222 -0.6606
16895TIP3   OH272099   4.477   2.058  14.603 -0.6735 -0.7388  0.2046
16895TIP3    H172100   4.535   2.133  14.591  0.1939 -1.2972  0.7948
16895TIP3    H272101   4.391   2.097  14.616 -0.3586  0.1236 -0.2029
16896TIP3   OH272102   1.055   5.378   6.459 -0.4843 -0.4130 -0.3041
16896TIP3    H172103   0.962   5.404   6.461 -0.1823  0.7032  0.1702
16896TIP3    H272104   1.053   5.283   6.469 -1.5475 -0.3230  0.5750
16897TIP3   OH272105   0.877   4.213   3.155 -0.2423 -0.1916 -0.8583
16897TIP3    H172106   0.903   4.163   3.078 -0.7105 -2.6736  0.4896
16897TIP3    H272107   0.899   4.304   3.133 -0.7946 -0.7089 -4.0508
16898TIP3   OH272108   0.013   2.402  16.580  0.2816  0.2515 -0.3674
16898TIP3    H172109   0.037   2.415  16.672  0.3036 -1.6099 -0.0774
16898TIP3    H272110  -0.081   2.421  16.577 -0.3372 -2.2456  0.6607
16899TIP3   OH272111   3.738   3.936  12.227  0.0075  0.2691  0.3352
16899TIP3    H172112   3.713   3.852  12.189 -0.4706  0.1244  0.9522
16899TIP3    H272113   3.739   3.996  12.153 -0.9337 -0.0011  0.0814
16900TIP3   OH272114   2.315   0.124  12.161  0.0388 -0.1868 -0.3400
16900TIP3    H172115   2.228   0.090  12.181  0.5372 -0.6225  1.2572
16900TIP3    H272116   2.303   0.219  12.154 -0.5875 -0.2603 -0.3576
16901TIP3   OH272117   2.141   4.836  15.854  0.0652  0.0950  0.3840
16901TIP3    H172118   2.167   4.875  15.937  0.7290  0.8609 -0.1764
16901TIP3    H272119   2.219   4.840  15.799  0.1151 -1.8470  0.2279
16902TIP3   OH272120   5.639   2.077  13.409  0.9295 -0.5016  0.5017
16902TIP3    H172121   5.639   2.000  13.467 -0.3707 -1.2717 -0.4576
16902TIP3    H272122   5.558   2.123  13.431  0.6007 -0.6126 -0.4587
16903TIP3   OH272123   4.315   1.738  16.222 -0.6378 -0.4364  0.6013
16903TIP3    H172124   4.238   1.754  16.168 -0.4743 -0.0052  0.4856
16903TIP3    H272125   4.284   1.681  16.292 -1.2900  0.4949  1.0921
16904TIP3   OH272126   5.341   6.091   3.602  0.2813  0.1814 -0.0629
16904TIP3    H172127   5.429   6.053   3.610 -0.2128 -0.6437  2.3475
16904TIP3    H272128   5.317   6.076   3.510  2.3614 -0.2017 -0.6033
16905TIP3   OH272129   3.534   3.792   2.564 -0.0457 -0.2217  0.2462
16905TIP3    H172130   3.548   3.856   2.634  0.5523 -1.0053  0.8489
16905TIP3    H272131   3.467   3.832   2.509  0.1123  0.8029  0.7703
16906TIP3   OH272132   5.728   5.909   4.886 -0.8522  0.5657  0.8400
16906TIP3    H172133   5.705   5.961   4.809 -0.7872  0.1170  0.5151
16906TIP3    H272134   5.676   5.828   4.877  1.2724 -0.7533 -0.2382
16907TIP3   OH272135   4.425   5.624  13.977 -0.1976 -0.5760  0.0690
16907TIP3    H172136   4.442   5.693  13.914 -1.1446 -0.3689  0.0405
16907TIP3    H272137   4.391   5.669  14.054 -0.8406 -1.0097  0.0439
16908TIP3   OH272138   1.821   2.369  12.549  0.4522  0.3782  0.3212
16908TIP3    H172139   1.729   2.344  12.555  0.2321  0.7867 -0.9486
16908TIP3    H272140   1.870   2.291  12.574 -0.2432 -0.1279  0.1214
16909TIP3   OH272141   5.911   5.181  17.232 -0.0483  0.3316  0.5994
16909TIP3    H172142   5.819   5.188  17.258 -0.7216 -0.1926 -1.5240
16909TIP3    H272143   5.957   5.157  17.313 -1.8078  0.2657  1.6174
16910TIP3   OH272144   6.330   1.159   0.583  0.6947  0.0723 -0.1419
16910TIP3    H172145   6.331   1.229   0.648  1.3093  1.0595 -1.1667
16910TIP3    H272146   6.276   1.193   0.512  1.8424 -0.0440 -1.1042
16911TIP3   OH272147   2.650   2.397  14.354 -0.0687 -0.3689  0.3133
16911TIP3    H172148   2.689   2.484  14.346 -1.2252  0.2679  1.3395
16911TIP3    H272149   2.558   2.414  14.372  0.0886 -1.7726  2.7707
16912TIP3   OH272150   5.610   0.367  15.594 -0.2183  0.0693 -0.1687
16912TIP3    H172151   5.586   0.308  15.522 -1.6159 -0.9340  1.0725
16912TIP3    H272152   5.701   0.391  15.575 -0.4636 -0.3740 -2.1133
16913TIP3   OH272153   1.958   3.966  16.369 -0.3335 -0.6231  0.5387
16913TIP3    H172154   1.942   3.927  16.283 -1.4367 -0.8522  0.8379
16913TIP3    H272155   2.052   3.951  16.385  0.5732  1.7823 -1.7684
16914TIP3   OH272156   3.162   4.843   3.885  0.0075  0.4382 -0.3801
16914TIP3    H172157   3.246   4.819   3.922 -1.0558 -3.3430  0.0325
16914TIP3    H272158   3.118   4.894   3.953  0.8360 -0.1515  0.6052
16915TIP3   OH272159   2.425   2.680   1.675  0.4198  0.1560 -0.1885
16915TIP3    H172160   2.407   2.773   1.691  0.7197  0.1914 -0.0438
16915TIP3    H272161   2.362   2.655   1.608 -0.6586  0.0860  0.8229
16916TIP3   OH272162   0.442   4.625  11.605  0.2024 -0.2703  0.6132
16916TIP3    H172163   0.369   4.669  11.561  0.0896 -0.6403  0.4219
16916TIP3    H272164   0.448   4.668  11.690  0.3534  0.3792  0.2842
16917TIP3   OH272165   4.619   0.747  10.582  0.1511  0.0449 -0.2018
16917TIP3    H172166   4.642   0.668  10.630  0.6405  0.7502  0.7450
16917TIP3    H272167   4.546   0.720  10.527  0.9046 -1.3086 -0.6029
16918TIP3   OH272168   6.550   5.422   2.633  0.3588 -0.3342 -0.4954
16918TIP3    H172169   6.623   5.402   2.692 -0.2742 -2.3858 -0.3278
16918TIP3    H272170   6.574   5.380   2.550 -0.4331 -0.6772 -0.5595
16919TIP3   OH272171   5.475   2.009   4.867 -0.1039 -0.0680  0.1259
16919TIP3    H172172   5.560   1.969   4.850  0.0381  0.7350 -1.1772
16919TIP3    H272173   5.491   2.070   4.939  0.5559  0.4775 -0.4791
16920TIP3   OH272174   0.777   0.247  14.090 -0.9279  0.1588  0.2226
16920TIP3    H172175   0.784   0.334  14.051  0.7719  0.5916  1.3955
16920TIP3    H272176   0.812   0.188  14.022 -0.0098  0.6653  0.2298
16921TIP3   OH272177   1.830   4.558  10.834 -0.4978 -0.0851 -0.1036
16921TIP3    H172178   1.787   4.642  10.824 -0.9160 -0.1212  1.1668
16921TIP3    H272179   1.759   4.496  10.848 -0.1323 -0.4459  0.1677
16922TIP3   OH272180   6.490   5.219  16.280 -0.2987 -0.2833 -0.6285
16922TIP3    H172181   6.398   5.204  16.256 -0.1137 -0.7734 -1.0527
16922TIP3    H272182   6.538   5.204  16.198  0.1527  0.0207 -0.4208
16923TIP3   OH272183   5.870   5.380  16.068  0.3897  0.4187 -0.4021
16923TIP3    H172184   5.963   5.399  16.054  0.6872  0.2962  1.2247
16923TIP3    H272185   5.828   5.466  16.072  0.5749  0.5055 -0.3248
16924TIP3   OH272186   1.448   2.298   1.172  0.7507  0.3878 -0.0351
16924TIP3    H172187   1.471   2.387   1.148  1.7595  0.1303 -0.0718
16924TIP3    H272188   1.396   2.307   1.252  1.1936  0.9890  0.1914
16925TIP3   OH272189   3.124   6.106  11.138 -0.6291 -0.3479 -0.2497
16925TIP3    H172190   3.040   6.114  11.093 -0.7272  1.7277  0.2090
16925TIP3    H272191   3.140   6.012  11.143 -2.0664 -0.7279 -1.9077
16926TIP3   OH272192   0.898   1.089   1.037 -0.2394 -0.3000 -0.6620
16926TIP3    H172193   0.814   1.120   1.005 -0.6199  1.7415  2.0185
16926TIP3    H272194   0.890   0.993   1.035 -2.5548 -0.1543 -0.5951
16927TIP3   OH272195   2.895   6.344  11.531 -0.0722 -0.6549 -0.4185
16927TIP3    H172196   2.936   6.369  11.614 -0.8478 -2.0735  0.4436
16927TIP3    H272197   2.809   6.311  11.557 -0.2838 -1.2295 -1.7851
16928TIP3   OH272198   0.033   5.247   0.866 -0.1488  0.1444  0.1168
16928TIP3    H172199  -0.048   5.232   0.819 -0.7605 -2.6978  1.8320
16928TIP3    H272200   0.101   5.207   0.812 -0.1104  1.0902 -0.5486
16929TIP3   OH272201   5.478   0.001   4.940 -0.4107 -0.2357 -1.0563
16929TIP3    H172202   5.487  -0.030   4.850  1.0324 -3.6976  0.1077
16929TIP3    H272203   5.561   0.043   4.960 -0.0635 -0.9882 -0.8720
16930TIP3   OH272204   4.792   1.287   0.825 -0.1530 -0.3318 -0.4667
16930TIP3    H172205   4.878   1.289   0.781  0.2539 -2.8168  0.0484
16930TIP3    H272206   4.737   1.235   0.766 -1.3239  1.2129 -0.7723
16931TIP3   OH272207   1.110   4.145   5.366  0.5504  0.3764  0.6587
16931TIP3    H172208   1.026   4.136   5.411  0.3172  1.3472  0.4389
16931TIP3    H272209   1.120   4.062   5.319 -0.6008  0.4947  0.1590
16932TIP3   OH272210   1.238   5.690   5.328  0.0807 -0.2497 -0.0393
16932TIP3    H172211   1.314   5.642   5.363 -0.5471 -0.1662  1.5521
16932TIP3    H272212   1.197   5.629   5.267  2.0748  0.1502 -1.9078
16933TIP3   OH272213   0.207   3.433  13.963  0.4189 -0.3985  0.4328
16933TIP3    H172214   0.178   3.344  13.945  0.2627 -0.3966  0.6648
16933TIP3    H272215   0.130   3.476  14.001  0.9002 -0.5762  1.6734
16934TIP3   OH272216   2.107   0.302   5.826 -0.6302  0.2279 -0.5933
16934TIP3    H172217   2.147   0.388   5.813 -0.9518  0.4189 -0.3315
16934TIP3    H272218   2.016   0.313   5.799 -0.1284 -0.6680 -2.9258
16935TIP3   OH272219   0.881   0.884   5.545 -0.5347  0.4135 -0.0491
16935TIP3    H172220   0.906   0.871   5.454 -0.2236  1.7095 -0.1646
16935TIP3    H272221   0.926   0.814   5.593  0.4479  0.5772 -0.7110
16936TIP3   OH272222   4.019   1.123   5.067  0.1943  0.1604 -0.2363
16936TIP3    H172223   4.082   1.189   5.097  0.5347  0.3110 -1.2575
16936TIP3    H272224   3.964   1.170   5.005 -0.3731 -0.2017 -0.0058
16937TIP3   OH272225   5.391   0.051  13.055  0.2045 -0.2090  0.3193
16937TIP3    H172226   5.295   0.058  13.057  0.1620 -0.1758 -0.9280
16937TIP3    H272227   5.411  -0.028  13.105 -0.7185 -1.9974 -1.9684
16938TIP3   OH272228   1.035   3.866  15.268 -0.5775 -0.4819 -0.1891
16938TIP3    H172229   0.942   3.850  15.253 -0.7682  0.3466  0.0312
16938TIP3    H272230   1.070   3.886  15.181 -0.3329 -2.0300 -0.4658
16939TIP3   OH272231   4.737   4.622   4.785  0.0466 -0.5241 -0.2553
16939TIP3    H172232   4.750   4.531   4.809  0.8268 -0.8099 -1.6753
16939TIP3    H272233   4.814   4.645   4.734 -0.3732  0.7826 -0.3441
16940TIP3   OH272234   4.983   0.258  12.554 -0.2086  0.2141  0.5502
16940TIP3    H172235   4.966   0.322  12.486  0.1683  0.7665  0.9637
16940TIP3    H272236   4.943   0.177  12.523 -1.1608  0.7914  0.2722
16941TIP3   OH272237   0.553   3.331   5.876  0.2619  0.0578 -0.5700
16941TIP3    H172238   0.499   3.345   5.954 -0.0908  1.0246 -0.9614
16941TIP3    H272239   0.619   3.268   5.903 -0.4195 -0.3318  0.2373
16942TIP3   OH272240   3.354   3.602  17.149 -0.3142 -0.1362 -0.1107
16942TIP3    H172241   3.372   3.545  17.074  2.1960  0.1893  0.1553
16942TIP3    H272242   3.318   3.682  17.109  1.9244  0.4381 -1.1833
16943TIP3   OH272243   2.361   5.798   5.460  0.4384 -0.2764  0.6523
16943TIP3    H172244   2.446   5.822   5.424  1.1327 -3.4707 -0.1235
16943TIP3    H272245   2.339   5.715   5.418 -2.8252  0.1232  1.2654
16944TIP3   OH272246   3.117   2.385  11.341 -0.1192 -0.4171  0.0857
16944TIP3    H172247   3.210   2.382  11.319 -0.4042 -1.0783 -1.0731
16944TIP3    H272248   3.073   2.406  11.258 -1.1151 -1.5139  0.3188
16945TIP3   OH272249   3.354   3.637   0.558 -0.6190 -0.1161  0.0684
16945TIP3    H172250   3.343   3.584   0.637  0.3368  0.5363  0.6541
16945TIP3    H272251   3.355   3.573   0.486 -1.4877 -0.7166  0.5589
16946TIP3   OH272252   3.151   3.887   0.353 -0.4227 -0.0919  0.0380
16946TIP3    H172253   3.216   3.892   0.422 -0.5295 -0.4389  0.1687
16946TIP3    H272254   3.201   3.882   0.272 -0.3003  0.6356  0.0652
16947TIP3   OH272255   5.064   6.571   4.851  0.4557  0.2301  0.6476
16947TIP3    H172256   5.072   6.653   4.803  0.6073 -0.0209  0.2339
16947TIP3    H272257   5.093   6.504   4.789  1.4792 -0.0227  1.3619
16948TIP3   OH272258   4.872   2.165   3.708  0.0378 -0.2274  0.1265
16948TIP3    H172259   4.946   2.206   3.753  0.4192 -0.1152 -0.6023
16948TIP3    H272260   4.832   2.236   3.658  1.7377 -1.0453 -2.5398
16949TIP3   OH272261   4.566   4.544  11.583 -0.5556  0.2730 -0.3913
16949TIP3    H172262   4.472   4.525  11.595 -1.5892  4.6917  0.2012
16949TIP3    H272263   4.605   4.526  11.669 -0.9572 -0.9068 -0.4357
16950TIP3   OH272264   5.321   3.993   4.879  0.8878 -0.1048 -0.1461
16950TIP3    H172265   5.318   4.034   4.792 -1.5744 -0.5583 -0.3478
16950TIP3    H272266   5.336   3.900   4.862  0.0425 -0.2541 -0.1586
16951TIP3   OH272267   4.535   4.439   4.160 -0.2036 -0.0157  0.2244
16951TIP3    H172268   4.562   4.531   4.160 -0.6128  0.1043  0.4660
16951TIP3    H272269   4.516   4.420   4.068 -0.1209  0.1396  0.1748
16952TIP3   OH272270   4.076   5.892   4.475 -0.5379 -0.0129 -0.1325
16952TIP3    H172271   4.110   5.828   4.412 -0.0584 -1.2140  1.2855
16952TIP3    H272272   4.149   5.906   4.536 -1.4665 -0.0002  0.9948
16953TIP3   OH272273   3.353   5.646  13.466 -0.6547 -0.7206 -0.1329
16953TIP3    H172274   3.262   5.622  13.483 -0.7516  1.0953  2.3370
16953TIP3    H272275   3.404   5.580  13.511 -0.7296 -1.4577 -1.1021
16954TIP3   OH272276   3.017   4.683   5.713  0.3246  0.4620  0.4655
16954TIP3    H172277   2.961   4.649   5.642  0.2172  1.7933 -0.1226
16954TIP3    H272278   3.097   4.710   5.669  1.7393 -1.9563  1.3873
16955TIP3   OH272279   1.290   1.750   4.751 -0.1826  0.0661 -0.2559
16955TIP3    H172280   1.227   1.821   4.765 -0.0951  0.1383 -0.2177
16955TIP3    H272281   1.245   1.671   4.779  0.1773  0.2736  0.9847
16956TIP3   OH272282   0.196   3.156  14.799  0.0737 -0.0604  0.5318
16956TIP3    H172283   0.268   3.175  14.739  0.9220 -0.5497  1.3671
16956TIP3    H272284   0.145   3.237  14.801  0.0235 -0.0311 -0.8305
16957TIP3   OH272285   2.918   1.989   0.691 -0.5919 -0.1548 -0.6057
16957TIP3    H172286   2.868   1.908   0.679 -1.6165  0.0730  1.5894
16957TIP3    H272287   2.859   2.047   0.739  1.0815  0.8896  0.3022
16958TIP3   OH272288   5.122   6.107  10.604  0.4958  0.8549  0.1078
16958TIP3    H172289   5.109   6.200  10.623  0.4671  0.6751  1.0146
16958TIP3    H272290   5.206   6.086  10.644 -0.3836  0.0518  1.6319
16959TIP3   OH272291   6.445   1.036  11.311  0.1685 -0.7532 -0.2781
16959TIP3    H172292   6.442   1.109  11.248  0.5490 -0.3598  0.1479
16959TIP3    H272293   6.354   1.023  11.337  0.0189 -0.8604 -0.8448
16960TIP3   OH272294   0.464   0.229  16.261  0.5837  0.0978 -0.4037
16960TIP3    H172295   0.474   0.259  16.351  2.9724  0.5363 -0.7324
16960TIP3    H272296   0.440   0.136  16.269  0.3466  0.2481  0.6807
16961TIP3   OH272297   1.322   4.504  14.022  0.1628 -0.1701  0.0465
16961TIP3    H172298   1.402   4.556  14.028 -0.4854  0.8164  0.4061
16961TIP3    H272299   1.253   4.564  14.050 -0.5837 -1.2910  0.6722
16962TIP3   OH272300   0.294   1.169   6.032 -0.0306 -0.1353  0.1806
16962TIP3    H172301   0.327   1.120   6.108 -0.2942  0.6527  0.8161
16962TIP3    H272302   0.199   1.158   6.037 -0.3254  2.3666  1.7329
16963TIP3   OH272303   1.826   4.088   4.521 -0.3554 -0.3220 -0.3302
16963TIP3    H172304   1.742   4.132   4.503  0.3819  1.3335  0.0884
16963TIP3    H272305   1.884   4.119   4.451 -0.3465 -2.3559 -1.2940
16964TIP3   OH272306   4.053   0.138  13.875 -0.2552  0.2793  0.1070
16964TIP3    H172307   4.060   0.061  13.931 -1.1134  0.5355  0.5857
16964TIP3    H272308   4.102   0.206  13.921 -0.3050  0.2763  0.1653
16965TIP3   OH272309   6.322   6.041   3.618 -0.0888 -0.0951  0.2863
16965TIP3    H172310   6.372   5.966   3.588 -0.2742  0.7610 -2.4666
16965TIP3    H272311   6.355   6.115   3.566  0.0249  1.7776  2.7924
16966TIP3   OH272312   2.071   6.294   0.744  0.0564 -0.7366 -0.0681
16966TIP3    H172313   2.026   6.242   0.678 -0.1141  0.2570 -0.7733
16966TIP3    H272314   2.013   6.292   0.820 -0.9273  0.0497 -0.7657
16967TIP3   OH272315   2.484   3.416  13.545 -0.4455 -0.3099 -0.3001
16967TIP3    H172316   2.442   3.358  13.481 -0.1069  2.1317 -2.9158
16967TIP3    H272317   2.514   3.357  13.614 -3.6629 -2.7491 -0.7256
16968TIP3   OH272318   4.912   1.204   6.374 -0.3281 -0.1715 -0.0897
16968TIP3    H172319   4.869   1.136   6.322 -0.8646 -0.1199  0.2763
16968TIP3    H272320   4.892   1.285   6.327 -1.3997 -0.0461  0.5558
16969TIP3   OH272321   2.727   6.624  13.027  0.3016  0.8962  0.5697
16969TIP3    H172322   2.755   6.533  13.028 -0.7179  0.5373 -0.4047
16969TIP3    H272323   2.765   6.663  13.106 -0.4776 -0.7517  1.8068
16970TIP3   OH272324   5.226   4.619   0.524 -0.0138 -0.0089  0.3105
16970TIP3    H172325   5.259   4.547   0.471  0.6020 -0.8585  1.7689
16970TIP3    H272326   5.153   4.654   0.475  0.7687 -0.4921 -1.2627
16971TIP3   OH272327   2.722   6.539  15.206  0.2942 -0.0251 -0.0669
16971TIP3    H172328   2.771   6.485  15.269  2.6519 -0.2813 -1.9597
16971TIP3    H272329   2.684   6.476  15.145  1.5891  0.3051 -1.2730
16972TIP3   OH272330   0.874   3.527   0.011  0.6642  0.4829 -0.2089
16972TIP3    H172331   0.843   3.617  -0.003 -4.3242 -1.0276 -0.5236
16972TIP3    H272332   0.910   3.502  -0.074 -1.7612  0.9784 -1.4799
16973TIP3   OH272333   0.254   0.499   4.266  0.1361  0.1236 -0.0424
16973TIP3    H172334   0.191   0.445   4.313 -2.5425  1.8406 -1.4311
16973TIP3    H272335   0.259   0.580   4.317  0.5208  0.3482 -0.4329
16974TIP3   OH272336   1.404   5.980  15.798  0.0895 -0.0441 -0.3243
16974TIP3    H172337   1.318   6.021  15.788  0.5952  1.5131  1.2994
16974TIP3    H272338   1.388   5.888  15.778 -1.9778  0.1929 -0.0487
16975TIP3   OH272339   1.081   1.052   4.303  0.3423 -0.2001 -0.0063
16975TIP3    H172340   1.003   1.108   4.308  0.1434 -0.4595 -0.2101
16975TIP3    H272341   1.057   0.972   4.349  0.0208 -0.8244 -1.2253
16976TIP3   OH272342   6.208   1.860   3.584  0.1595  0.2283 -0.6517
16976TIP3    H172343   6.182   1.888   3.672 -0.2909 -1.3774 -0.2424
16976TIP3    H272344   6.302   1.844   3.592 -0.0092 -0.6757 -0.2022
16977TIP3   OH272345   1.566   4.516  13.794  0.6958 -0.4899  0.1623
16977TIP3    H172346   1.571   4.436  13.846  2.1766  0.6382  1.8738
16977TIP3    H272347   1.558   4.586  13.859  0.9355  0.8683 -1.2158
16978TIP3   OH272348   2.574   1.363   3.914 -0.6431  0.4009  0.0953
16978TIP3    H172349   2.628   1.442   3.912  0.6826 -0.4666 -0.1559
16978TIP3    H272350   2.534   1.363   4.001 -1.4606  1.8345 -0.2508
16979TIP3   OH272351   1.037   3.481   5.251 -0.7169 -0.0516 -0.3631
16979TIP3    H172352   1.047   3.444   5.339  1.0388  0.6331 -0.2390
16979TIP3    H272353   1.017   3.405   5.196  3.4973 -1.5158 -0.2311
16980TIP3   OH272354   0.328   5.160   3.548 -0.3907 -0.7731 -0.3784
16980TIP3    H172355   0.410   5.118   3.573 -0.6675 -0.6250  0.8724
16980TIP3    H272356   0.261   5.115   3.600 -0.8389  0.3962  0.1082
16981TIP3   OH272357   4.278   2.239  14.665 -0.4789  0.0109 -0.5257
16981TIP3    H172358   4.202   2.190  14.633  0.1400 -0.6314 -1.0635
16981TIP3    H272359   4.258   2.330  14.644 -1.3032 -0.0952 -0.2415
16982TIP3   OH272360   2.928   0.988  12.279  0.5512 -0.4005 -0.2731
16982TIP3    H172361   2.867   1.044  12.230  1.9346  0.4385 -1.1015
16982TIP3    H272362   2.907   1.005  12.371 -0.6995 -0.4149 -0.5288
16983TIP3   OH272363   1.803   1.352   2.527 -0.1071  0.0369  0.5471
16983TIP3    H172364   1.776   1.261   2.540  1.5308 -0.4616  0.6622
16983TIP3    H272365   1.887   1.346   2.481 -0.2648  1.5151  0.0080
16984TIP3   OH272366   2.865   1.937  14.114 -0.1574  0.3020  0.3831
16984TIP3    H172367   2.899   2.026  14.123  0.5014 -0.0051  1.0257
16984TIP3    H272368   2.783   1.938  14.163  1.1007 -0.0941  2.6592
16985TIP3   OH272369   5.573   2.671   1.259  0.2232 -0.2252  0.4915
16985TIP3    H172370   5.665   2.644   1.251 -0.1243 -1.2587 -0.2428
16985TIP3    H272371   5.568   2.753   1.209  0.3404 -1.2139 -1.2349
16986TIP3   OH272372   4.421   3.573   5.761 -0.0908  0.1773  0.5685
16986TIP3    H172373   4.340   3.612   5.794 -1.6657 -1.6926 -0.7944
16986TIP3    H272374   4.436   3.497   5.817 -2.0492 -2.2459 -1.8987
16987TIP3   OH272375   5.980   4.659   1.542  0.1778 -0.0217  0.4019
16987TIP3    H172376   6.006   4.731   1.600  0.5444  0.1211  0.0634
16987TIP3    H272377   6.014   4.581   1.585  0.8715  0.1272  0.1498
16988TIP3   OH272378   6.161   5.658   5.040 -0.2274 -0.1657  0.5004
16988TIP3    H172379   6.246   5.693   5.013  0.0091 -2.2350 -1.7868
16988TIP3    H272380   6.099   5.730   5.025  0.9736  1.0567  1.2883
16989TIP3   OH272381   0.314   1.361   3.800  0.1432 -0.6121 -0.6141
16989TIP3    H172382   0.282   1.376   3.711  0.8896 -1.1551 -0.9861
16989TIP3    H272383   0.338   1.268   3.801 -1.4196 -1.0496  0.6740
16990TIP3   OH272384   4.220   2.497   5.393  0.0207 -0.2555 -0.0525
16990TIP3    H172385   4.139   2.524   5.350  1.0949 -0.0022 -1.9913
16990TIP3    H272386   4.197   2.416   5.439 -0.6843 -1.8390 -2.9779
16991TIP3   OH272387   4.613   0.691   2.351 -0.0052 -0.7729  0.5116
16991TIP3    H172388   4.612   0.677   2.256  0.7458 -0.8869  0.5105
16991TIP3    H272389   4.550   0.628   2.386 -1.8305  0.6482 -0.0641
16992TIP3   OH272390   6.623   2.228  12.073  0.3955 -0.1900  0.1936
16992TIP3    H172391   6.549   2.176  12.043  1.2107 -1.2432 -0.0422
16992TIP3    H272392   6.601   2.318  12.047 -0.4875 -0.5779 -0.4662
16993TIP3   OH272393   6.422   0.079   3.260 -0.0832  0.1446  0.4163
16993TIP3    H172394   6.478   0.096   3.336  0.5136  0.2807 -0.0388
16993TIP3    H272395   6.342   0.042   3.297  1.3196 -2.7159  0.9399
16994TIP3   OH272396   1.539   5.912  12.290  0.0151 -0.2039  0.1482
16994TIP3    H172397   1.594   5.944  12.218 -0.6145  0.3319 -0.1156
16994TIP3    H272398   1.515   5.823  12.264  1.2510 -0.6745  0.5685
16995TIP3   OH272399   2.196   0.931   4.597 -0.2025 -0.5582  0.3454
16995TIP3    H172400   2.204   0.982   4.516  1.3030 -2.1730 -0.6160
16995TIP3    H272401   2.127   0.868   4.578  1.5450 -2.3150 -0.5758
16996TIP3   OH272402   0.504   0.869  14.246 -0.8696  0.2364  0.5026
16996TIP3    H172403   0.557   0.903  14.318 -0.2315  0.3245 -0.0053
16996TIP3    H272404   0.449   0.802  14.287 -1.0821  0.8451  1.2224
16997TIP3   OH272405   4.513   0.265  16.592 -0.8245  0.3134  0.3015
16997TIP3    H172406   4.497   0.290  16.501  1.8507 -0.6778 -0.5649
16997TIP3    H272407   4.550   0.344  16.632  1.7216 -0.2614 -0.6810
16998TIP3   OH272408   2.691   2.976   4.742  0.3133  0.1747 -0.0657
16998TIP3    H172409   2.678   2.933   4.827  1.9972  0.0871  0.1791
16998TIP3    H272410   2.753   2.919   4.696  0.0523  0.6563 -1.0388
16999TIP3   OH272411   2.781   4.150  15.418 -0.1633 -0.3329  0.0607
16999TIP3    H172412   2.863   4.170  15.463 -0.7480  1.8245  0.2538
16999TIP3    H272413   2.714   4.156  15.486 -0.3981 -4.1618  0.4039
17000TIP3   OH272414   3.255   1.280  14.339  0.0069 -0.0751 -0.0558
17000TIP3    H172415   3.185   1.223  14.372 -0.6192  1.3560  1.2287
17000TIP3    H272416   3.300   1.227  14.274 -2.2161 -1.0957 -0.8852
17001TIP3   OH272417   6.116   0.254   1.437 -0.3645  0.0876 -0.3579
17001TIP3    H172418   6.157   0.285   1.357  0.2735 -1.9212 -0.8685
17001TIP3    H272419   6.039   0.310   1.448  0.8456  1.9668 -1.0255
17002TIP3   OH272420   3.003   4.320   4.788 -0.1501 -0.3234  0.5956
17002TIP3    H172421   2.923   4.355   4.750  0.5976  0.1143 -0.6411
17002TIP3    H272422   2.999   4.345   4.880 -1.2191  0.0761  0.4563
17003TIP3   OH272423   2.133   2.714  13.976 -0.6374 -0.1991  0.1419
17003TIP3    H172424   2.154   2.738  14.066  1.0516 -0.2311 -0.2093
17003TIP3    H272425   2.207   2.662  13.948 -1.0652 -0.0441 -1.3368
17004TIP3   OH272426   5.578   6.294  12.032 -0.3994 -0.2984 -0.4493
17004TIP3    H172427   5.654   6.348  12.010 -0.5691  0.2861  0.3470
17004TIP3    H272428   5.563   6.311  12.125 -2.6233  1.0078 -0.9812
17005TIP3   OH272429   5.308   5.006   1.574 -0.3572 -0.6820  0.2878
17005TIP3    H172430   5.298   5.051   1.491  1.5567  0.8167  0.7900
17005TIP3    H272431   5.301   5.075   1.640 -1.5461 -1.7867  1.4019
17006TIP3   OH272432   1.948   2.510  15.366  0.2606  0.1795 -0.0292
17006TIP3    H172433   1.888   2.437  15.380 -0.2588  0.8037  1.2159
17006TIP3    H272434   2.012   2.502  15.437 -0.1972  1.2977  0.5286
17007TIP3   OH272435   0.990   2.823   6.363 -0.0163 -0.4497 -0.6800
17007TIP3    H172436   1.001   2.917   6.348  3.4044 -0.6086 -0.0451
17007TIP3    H272437   0.975   2.816   6.457  2.3420 -0.5633 -0.2451
17008TIP3   OH272438   6.634   2.874  15.575 -0.3428  0.0427 -0.4687
17008TIP3    H172439   6.661   2.791  15.535 -0.7478  0.5497 -1.8378
17008TIP3    H272440   6.614   2.851  15.666  2.5282 -0.7806  0.0531
17009TIP3   OH272441   3.156   0.761  16.548  0.3338 -0.6641 -0.1563
17009TIP3    H172442   3.237   0.765  16.599  0.0231  1.0962  0.2539
17009TIP3    H272443   3.100   0.827  16.587  0.3194  1.3036 -3.1555
17010TIP3   OH272444   5.073   0.074   0.515  0.1049 -0.0189  0.2743
17010TIP3    H172445   5.140   0.113   0.570 -0.1017  0.6842  0.0378
17010TIP3    H272446   4.997   0.065   0.573 -0.0423  0.5139  0.1711
17011TIP3   OH272447   3.282   3.814   3.368 -0.5194 -0.1905  0.0974
17011TIP3    H172448   3.202   3.866   3.377 -2.3895 -2.5728 -1.4476
17011TIP3    H272449   3.281   3.784   3.277  1.7847 -0.8807  0.2368
17012TIP3   OH272450   4.616   2.206   3.036 -0.2123 -0.2432 -0.3272
17012TIP3    H172451   4.683   2.145   3.006  0.0637 -0.6711  1.0679
17012TIP3    H272452   4.616   2.276   2.971  1.4072 -0.3692 -0.5045
17013TIP3   OH272453   3.292   0.547  15.453  0.5842 -0.6467  0.3852
17013TIP3    H172454   3.275   0.593  15.370  2.1557  2.4511  1.6378
17013TIP3    H272455   3.378   0.507  15.441  0.4908 -0.8152  0.2744
17014TIP3   OH272456   1.258   0.746  13.990  0.0162 -0.0506  0.4713
17014TIP3    H172457   1.258   0.658  13.953  2.4186  0.0207  0.1755
17014TIP3    H272458   1.205   0.797  13.929 -0.2419 -0.9837 -0.1077
17015TIP3   OH272459   2.066   3.420  11.236 -0.0913  0.2414 -0.0861
17015TIP3    H172460   2.112   3.440  11.318  0.8350  1.7335 -0.9161
17015TIP3    H272461   2.136   3.414  11.171 -0.6624 -2.3180 -0.5813
17016TIP3   OH272462   1.302   0.246  14.856 -0.3046 -0.2365  0.1121
17016TIP3    H172463   1.350   0.322  14.823  1.6381 -0.9268  1.1519
17016TIP3    H272464   1.261   0.277  14.937  1.2009 -0.4602  1.0016
17017TIP3   OH272465   3.014   1.626  12.600  0.3171 -0.1767  0.2048
17017TIP3    H172466   2.934   1.676  12.586  1.1191  1.0353 -0.1749
17017TIP3    H272467   2.984   1.535  12.609 -1.0709  0.2243 -0.1421
17018TIP3   OH272468   0.377   2.461   1.354  0.0961 -0.2664  0.1833
17018TIP3    H172469   0.466   2.498   1.358  0.8592 -2.0181  0.0851
17018TIP3    H272470   0.357   2.436   1.444  0.0769 -0.7059  0.0589
17019TIP3   OH272471   5.295   5.775  11.457 -0.4642 -0.6250 -0.2831
17019TIP3    H172472   5.326   5.799  11.370  1.0275  0.8428  0.5840
17019TIP3    H272473   5.266   5.858  11.495 -1.4474 -1.3033  0.4990
17020TIP3   OH272474   1.363   5.066  11.949  0.2492 -0.4528  0.2041
17020TIP3    H172475   1.290   5.025  11.903 -1.4093  0.8113  1.5423
17020TIP3    H272476   1.441   5.024  11.913 -1.1969 -3.3092  0.0833
17021TIP3   OH272477   1.341   3.104  13.942  0.1335  0.4411 -0.1098
17021TIP3    H172478   1.329   3.195  13.969  0.4720  0.2465  0.7418
17021TIP3    H272479   1.436   3.093  13.934  0.1202  0.0565  0.2024
17022TIP3   OH272480   6.010   3.167  13.852  0.9676 -0.0045 -0.1840
17022TIP3    H172481   6.038   3.258  13.858 -0.7800  0.4756  1.6723
17022TIP3    H272482   5.944   3.166  13.783 -0.7922  0.7259  1.3810
17023TIP3   OH272483   6.486   5.941  13.193  0.1152  0.2091  0.0500
17023TIP3    H172484   6.465   5.864  13.141  0.7527  0.3687 -0.4598
17023TIP3    H272485   6.579   5.932  13.214 -0.3043 -0.2536  1.8660
17024TIP3   OH272486   2.519   1.289   4.466  0.2571 -0.2519 -0.2525
17024TIP3    H172487   2.584   1.320   4.402  1.1947  0.2625  0.9197
17024TIP3    H272488   2.520   1.355   4.535 -1.3724 -0.3485 -0.0936
17025TIP3   OH272489   1.129   3.321  15.419  0.3619  0.2295 -0.3379
17025TIP3    H172490   1.042   3.322  15.379 -0.0534  1.5514  0.5564
17025TIP3    H272491   1.113   3.320  15.513  1.3312 -0.6368 -0.1638
17026TIP3   OH272492   2.477   3.318  15.931 -0.4837  0.1482  0.1329
17026TIP3    H172493   2.398   3.317  15.878  0.0629  0.6209 -0.7111
17026TIP3    H272494   2.539   3.264  15.883 -0.6001 -1.0798  1.3095
17027TIP3   OH272495   2.415   0.808  15.495 -0.0067 -0.2549 -0.4702
17027TIP3    H172496   2.510   0.817  15.488 -0.1117  1.4199 -0.3051
17027TIP3    H272497   2.393   0.734  15.439  1.3190 -0.1841 -1.1177
17028TIP3   OH272498   0.003   5.404   2.856  0.1048  0.2059 -0.0894
17028TIP3    H172499   0.098   5.398   2.867 -0.0671 -1.5381  0.7104
17028TIP3    H272500  -0.022   5.480   2.908  0.9001 -0.2272  0.9653
17029TIP3   OH272501   0.170   3.180  13.779 -0.3393 -0.3279  0.0917
17029TIP3    H172502   0.197   3.138  13.860 -0.8605  0.2694  0.5877
17029TIP3    H272503   0.252   3.203  13.735 -0.0455 -0.1549  0.7160
17030TIP3   OH272504   2.844   1.002  12.534 -0.3635  0.0935 -0.3652
17030TIP3    H172505   2.900   1.049  12.597  0.7709 -1.4465 -0.1709
17030TIP3    H272506   2.756   1.010  12.571 -0.0602  1.1827  0.1820
17031TIP3   OH272507   4.610   0.693   1.316  0.1682 -0.2191  0.3098
17031TIP3    H172508   4.538   0.739   1.273  1.6746  1.1023 -0.9562
17031TIP3    H272509   4.689   0.726   1.272  1.4388 -3.1624  0.1681
17032TIP3   OH272510   4.994   1.841  13.666 -0.3362  0.0723  0.2634
17032TIP3    H172511   5.055   1.914  13.655  1.5082 -1.0918  2.0710
17032TIP3    H272512   4.909   1.878  13.645  0.5141  2.7616  1.1461
17033TIP3   OH272513   2.181   2.493   2.311  0.6784  0.3184  0.2323
17033TIP3    H172514   2.190   2.436   2.235  3.9927  0.1704  0.6037
17033TIP3    H272515   2.264   2.541   2.315 -0.3948  2.1912  2.3191
17034TIP3   OH272516   3.296   0.198   4.590 -0.3952  0.1230 -0.0594
17034TIP3    H172517   3.386   0.220   4.612  0.1858 -0.4782 -1.7089
17034TIP3    H272518   3.300   0.166   4.500 -1.8698 -2.2345  0.6222
17035TIP3   OH272519   4.663   5.907   4.090  0.2609  1.1072 -0.1144
17035TIP3    H172520   4.692   5.860   4.168 -0.0536 -1.9067 -1.6678
17035TIP3    H272521   4.575   5.937   4.111 -0.2597 -0.6471  0.3643
17036TIP3   OH272522   5.695   3.790   5.515 -0.5982  0.6499  0.0818
17036TIP3    H172523   5.781   3.831   5.511 -0.1666 -0.2710 -2.7273
17036TIP3    H272524   5.636   3.854   5.473 -0.7852  0.2694 -0.2427
17037TIP3   OH272525   1.357   4.111  12.754 -0.1715 -0.5614  0.5441
17037TIP3    H172526   1.408   4.031  12.768  0.3079  0.0728  3.0243
17037TIP3    H272527   1.420   4.182  12.768 -1.0106  0.2364  0.3683
17038TIP3   OH272528   4.677   1.724   4.182 -0.4950  0.0032 -0.3591
17038TIP3    H172529   4.687   1.681   4.267 -0.6459 -2.5688 -1.5715
17038TIP3    H272530   4.767   1.741   4.154 -0.4454  0.9652  0.3151
17039TIP3   OH272531   0.373   0.541  11.632 -0.2153  0.3430 -0.2204
17039TIP3    H172532   0.298   0.594  11.659 -0.4685 -0.6141  1.0601
17039TIP3    H272533   0.336   0.456  11.611  0.5820 -0.4397  1.3628
17040TIP3   OH272534   0.700   3.083   1.603 -0.4748  0.0154 -0.0568
17040TIP3    H172535   0.791   3.090   1.574 -0.1151 -0.9670  0.7803
17040TIP3    H272536   0.653   3.047   1.528 -0.4433  1.7027 -0.9350
17041TIP3   OH272537   2.669   0.071  15.992 -0.1383 -0.3291  0.1482
17041TIP3    H172538   2.716   0.064  16.075 -0.8296  1.6858  0.7804
17041TIP3    H272539   2.735   0.097  15.928  0.0019  0.3872  0.5779
17042TIP3   OH272540   5.673   4.465  16.738  0.0553  0.4169 -0.2608
17042TIP3    H172541   5.708   4.376  16.748  0.4962  0.5104 -0.8905
17042TIP3    H272542   5.579   4.455  16.745  0.1585  0.0649  0.8426
17043TIP3   OH272543   4.090   3.969   4.439 -0.0925  0.0477 -0.4463
17043TIP3    H172544   4.164   4.027   4.460  0.8977 -1.1277 -0.5794
17043TIP3    H272545   4.042   3.961   4.522 -2.1822  3.5703 -1.0917
17044TIP3   OH272546   1.479   3.610   6.091  0.5511  0.5199 -0.3834
17044TIP3    H172547   1.458   3.593   6.183 -1.2361 -0.6770 -0.9484
17044TIP3    H272548   1.545   3.679   6.093  0.2164  0.8326  1.7792
17045TIP3   OH272549   1.572   4.674   1.520 -0.1339 -0.1913 -0.4584
17045TIP3    H172550   1.609   4.586   1.517  0.7106  0.1268 -0.0065
17045TIP3    H272551   1.485   4.666   1.483 -0.5424 -1.4525  0.7286
17046TIP3   OH272552   0.986   1.748   4.182  0.0249 -0.7316 -0.0247
17046TIP3    H172553   0.903   1.735   4.136  0.6984 -0.9262 -1.2181
17046TIP3    H272554   0.961   1.758   4.274 -1.4219  0.3688 -0.4946
17047TIP3   OH272555   5.139   0.480  13.553  0.2158 -0.7384 -0.7375
17047TIP3    H172556   5.131   0.509  13.462  3.0602 -0.2399 -0.9000
17047TIP3    H272557   5.187   0.398  13.548 -0.7455 -1.3991  0.2755
17048TIP3   OH272558   1.705   5.448   0.376  0.0142  0.5535 -0.5066
17048TIP3    H172559   1.649   5.371   0.363  0.3180  0.2781 -0.2257
17048TIP3    H272560   1.660   5.499   0.442  0.4721 -0.0577  0.2962
17049TIP3   OH272561   3.548   0.379  17.231 -0.3122  0.3238  0.8137
17049TIP3    H172562   3.500   0.406  17.153  0.2762 -1.8193 -0.3572
17049TIP3    H272563   3.487   0.324  17.279  0.8323 -2.4671 -0.7126
17050TIP3   OH272564   2.252   2.412   5.993 -0.0050  0.3177 -0.1875
17050TIP3    H172565   2.288   2.362   6.066  1.5983 -0.6720 -1.5666
17050TIP3    H272566   2.209   2.347   5.938  2.2990  0.3065 -2.1280
17051TIP3   OH272567   4.182   2.486   6.221  0.0919 -0.4405  0.0543
17051TIP3    H172568   4.092   2.466   6.249  0.4254 -0.5967  1.0730
17051TIP3    H272569   4.237   2.440   6.285  0.8953  1.7052  0.9894
17052TIP3   OH272570   6.127   3.638   1.534  0.4551 -0.3681  0.2829
17052TIP3    H172571   6.033   3.647   1.514  0.5905  0.2340 -0.1135
17052TIP3    H272572   6.145   3.545   1.521 -0.3777 -0.7588  1.6693
17053TIP3   OH272573   6.107   3.760  11.870  0.0224  0.2495  0.0256
17053TIP3    H172574   6.093   3.684  11.926 -1.2374  0.3839 -0.0652
17053TIP3    H272575   6.025   3.809  11.877  0.4099  1.0312 -0.7789
17054TIP3   OH272576   6.558   4.352  10.823 -0.2534  0.3226  0.0690
17054TIP3    H172577   6.577   4.444  10.802 -1.0665  0.6957  0.9115
17054TIP3    H272578   6.644   4.313  10.838  0.0517  1.2456  0.8698
17055TIP3   OH272579   0.322   5.516   5.783  0.2477 -0.1141 -0.0206
17055TIP3    H172580   0.394   5.568   5.819  0.6920  0.0377 -1.0938
17055TIP3    H272581   0.318   5.541   5.690  0.0047 -1.4769 -0.3992
17056TIP3   OH272582   4.026   2.712  14.528 -1.0032  0.2339 -0.1006
17056TIP3    H172583   4.099   2.755  14.575 -1.9060  0.6058  1.0107
17056TIP3    H272584   3.992   2.781  14.470  0.4688 -0.3883 -1.7892
17057TIP3   OH272585   3.042   0.507   4.976  0.1781  0.3816  0.1260
17057TIP3    H172586   3.134   0.519   5.000 -0.0835  2.1983  0.4243
17057TIP3    H272587   2.995   0.518   5.058 -0.3730  0.9415 -0.2550
17058TIP3   OH272588   1.965   1.465  14.543 -0.2170 -0.3546  0.8474
17058TIP3    H172589   1.935   1.552  14.516 -1.0536 -0.8661  0.0925
17058TIP3    H272590   1.885   1.416  14.561  0.1059 -1.7771 -1.2887
17059TIP3   OH272591   3.283   5.690   4.268  0.0138  0.8876  0.6129
17059TIP3    H172592   3.244   5.603   4.268  1.0852  0.3948  0.3872
17059TIP3    H272593   3.363   5.680   4.319  2.0139  0.8639 -2.2948
17060TIP3   OH272594   3.421   4.992  16.123 -1.1358 -0.2207  0.1682
17060TIP3    H172595   3.418   5.010  16.217  1.9116 -1.0294  0.5489
17060TIP3    H272596   3.363   4.917  16.110 -1.7235  0.0130  1.3756
17061TIP3   OH272597   4.290   4.786  14.869 -0.4495 -0.3731 -0.2735
17061TIP3    H172598   4.257   4.838  14.796  1.1756 -0.3234 -1.0024
17061TIP3    H272599   4.276   4.841  14.946  1.9858  1.5882 -1.1116
17062TIP3   OH272600   2.744   4.297   4.706  0.5707 -0.2961  0.2236
17062TIP3    H172601   2.732   4.211   4.746 -2.2726 -0.2001 -0.2384
17062TIP3    H272602   2.737   4.281   4.612  1.2747  0.2971  0.0596
17063TIP3   OH272603   5.772   0.709   4.589 -0.3157  0.1887  0.0300
17063TIP3    H172604   5.681   0.702   4.560 -0.6764  0.9067  0.9536
17063TIP3    H272605   5.817   0.753   4.517  0.0317 -2.8845 -1.8413
17064TIP3   OH272606   2.559   0.075  12.286  0.2172  0.0234  0.8371
17064TIP3    H172607   2.548   0.148  12.347 -1.7441  0.5049  0.0061
17064TIP3    H272608   2.476   0.073  12.238  1.3105 -0.9846 -1.0965
17065TIP3   OH272609   0.319   6.064   4.608 -0.0695 -0.2343  0.1880
17065TIP3    H172610   0.286   5.974   4.608 -0.8978  0.0564 -0.5595
17065TIP3    H272611   0.247   6.116   4.642  1.0190 -0.0185  2.3631
17066TIP3   OH272612   4.163   0.344  14.023 -0.2706 -0.2234  0.7291
17066TIP3    H172613   4.231   0.407  13.999 -1.3981  0.3489 -1.2286
17066TIP3    H272614   4.158   0.348  14.119  2.0907  0.0383  0.8828
17067TIP3   OH272615   3.440   1.283  14.563  0.0076 -0.0985  0.3146
17067TIP3    H172616   3.447   1.193  14.531  0.8209  0.4902 -1.2627
17067TIP3    H272617   3.381   1.277  14.638  0.6936 -2.0633  0.7692
17068TIP3   OH272618   2.335   3.859  11.158  0.1814  0.8648 -0.2609
17068TIP3    H172619   2.345   3.837  11.065 -0.3682  1.3623 -0.4411
17068TIP3    H272620   2.328   3.774  11.201  1.1402  0.6014 -0.5834
17069TIP3   OH272621   0.682   6.303   0.016 -0.2862  0.3668  0.3946
17069TIP3    H172622   0.607   6.265  -0.029 -0.2875  0.4641  0.3137
17069TIP3    H272623   0.752   6.302  -0.049 -0.2594  0.4119  0.4213
17070TIP3   OH272624   0.147   3.605   4.135 -0.3854 -0.2411 -0.2566
17070TIP3    H172625   0.179   3.556   4.211 -0.3385  1.8257  1.1081
17070TIP3    H272626   0.183   3.557   4.060  3.0154 -0.1154  1.1051
17071TIP3   OH272627   6.579   0.429  13.437  0.2614  0.8300 -0.1720
17071TIP3    H172628   6.561   0.523  13.430 -1.1299  0.4849 -1.9784
17071TIP3    H272629   6.568   0.409  13.530  1.1938  2.5415  0.3505
17072TIP3   OH272630   3.791   1.389  11.792 -0.0234  0.2911  0.4316
17072TIP3    H172631   3.696   1.380  11.802 -0.1853  1.9598  0.7294
17072TIP3    H272632   3.817   1.451  11.861  1.1703  0.3836 -0.0732
17073TIP3   OH272633   5.296   2.216  16.242  0.2286  0.5418 -0.0646
17073TIP3    H172634   5.290   2.228  16.337  0.1845 -1.6634  0.2686
17073TIP3    H272635   5.378   2.169  16.229  0.8881  1.9462 -1.2955
17074TIP3   OH272636   5.139   5.579   5.923  0.1438  0.7900  0.5032
17074TIP3    H172637   5.076   5.517   5.960  0.4370  0.7089  0.8609
17074TIP3    H272638   5.207   5.588   5.989 -0.5955  2.5769  1.0763
17075TIP3   OH272639   3.840   1.446   0.105  0.1914 -0.5238 -0.1989
17075TIP3    H172640   3.778   1.489   0.046  1.0664  0.8821 -0.1224
17075TIP3    H272641   3.805   1.464   0.192  0.7573  0.3893 -0.1491
17076TIP3   OH272642   0.056   5.630   3.093  0.4662 -0.5365 -0.8771
17076TIP3    H172643   0.135   5.615   3.145 -0.0016 -0.0768  0.0011
17076TIP3    H272644  -0.015   5.599   3.150 -0.2828  2.2056 -0.1890
17077TIP3   OH272645   6.625   3.329  16.154 -0.4258 -0.2209 -0.5038
17077TIP3    H172646   6.567   3.405  16.152  0.3931  0.4914  0.7095
17077TIP3    H272647   6.578   3.264  16.207 -0.6895 -0.1601 -0.6633
17078TIP3   OH272648   0.840   0.185   0.326  0.2301  0.2966  0.2669
17078TIP3    H172649   0.864   0.243   0.399 -0.3396  0.4498  0.3381
17078TIP3    H272650   0.907   0.117   0.327 -0.2823 -0.2151  1.5216
17079TIP3   OH272651   2.127   4.838  13.599 -0.0352 -0.1915  0.1224
17079TIP3    H172652   2.036   4.810  13.607  0.1325 -1.2018 -1.2137
17079TIP3    H272653   2.159   4.843  13.689 -0.7460 -2.0592  0.5063
17080TIP3   OH272654   1.421   4.411  15.694  0.5521  0.1404 -0.3091
17080TIP3    H172655   1.502   4.384  15.738  0.2964 -1.3228 -0.6886
17080TIP3    H272656   1.447   4.427  15.603  0.6594  0.9600 -0.1350
17081TIP3   OH272657   3.192   1.931  14.428  0.3274 -0.1020  0.1471
17081TIP3    H172658   3.286   1.945  14.419  0.5451 -1.3937  0.3047
17081TIP3    H272659   3.163   2.001  14.486  1.2105  0.2105  0.2308
17082TIP3   OH272660   5.805   3.727   5.049 -0.1478 -0.7962 -0.1377
17082TIP3    H172661   5.790   3.760   4.960  1.6701  3.0691  0.7912
17082TIP3    H272662   5.888   3.681   5.044  0.8441  0.9236 -0.2024
17083TIP3   OH272663   0.417   4.653  16.567  0.3999 -0.8161 -0.2911
17083TIP3    H172664   0.405   4.742  16.598 -0.1488  0.0932 -2.8375
17083TIP3    H272665   0.377   4.597  16.633 -0.6016  0.9296  0.6147
17084TIP3   OH272666   0.372   3.034   1.588  0.3252  0.3589  1.2596
17084TIP3    H172667   0.415   3.066   1.509 -0.0013  0.3688  1.0873
17084TIP3    H272668   0.317   2.962   1.559  0.9275 -0.2517  1.6263
17085TIP3   OH272669   3.594   6.672  15.779  0.2491  0.1537  0.3395
17085TIP3    H172670   3.539   6.687  15.702  0.4407 -1.3570 -0.1167
17085TIP3    H272671   3.633   6.758  15.797 -0.2037  0.6514 -0.9164
17086TIP3   OH272672   4.442   5.909   3.848 -0.4458  0.0126 -0.0536
17086TIP3    H172673   4.425   5.837   3.909 -0.7524  0.3824  0.2970
17086TIP3    H272674   4.496   5.869   3.779 -0.7973 -0.6040  0.0239
17087TIP3   OH272675   2.829   4.198  15.136 -0.3317 -0.4037 -0.4254
17087TIP3    H172676   2.736   4.197  15.158 -0.2144 -0.0098  0.1213
17087TIP3    H272677   2.873   4.220  15.219  0.0800  1.9076 -1.1787
17088TIP3   OH272678   6.083   1.100   1.781  0.1888 -0.5118  0.0551
17088TIP3    H172679   6.145   1.172   1.768 -0.2798 -0.3380 -1.4274
17088TIP3    H272680   6.067   1.066   1.693  1.0248 -2.9993  0.7660
17089TIP3   OH272681   4.389   3.671  14.945 -0.4112  0.5555  0.7288
17089TIP3    H172682   4.466   3.723  14.969  1.5240 -0.6803 -2.1756
17089TIP3    H272683   4.412   3.581  14.968 -1.7265  0.3662  1.3873
17090TIP3   OH272684   5.333   5.883   1.673 -0.2125  0.1158  0.3285
17090TIP3    H172685   5.340   5.969   1.715 -2.0670  0.3588  0.2383
17090TIP3    H272686   5.253   5.889   1.620 -0.6139 -1.7986  0.6504
17091TIP3   OH272687   6.183   3.828  16.809 -0.0776  0.4992  0.0886
17091TIP3    H172688   6.230   3.906  16.839 -0.2096  1.4057 -1.9013
17091TIP3    H272689   6.106   3.862  16.763  0.0821 -0.7656 -1.1962
17092TIP3   OH272690   2.695   2.241   1.127  0.0684  0.3193 -0.4199
17092TIP3    H172691   2.767   2.256   1.066 -0.4425  1.1479 -0.8450
17092TIP3    H272692   2.666   2.152   1.109  0.2566  0.3786 -1.0383
17093TIP3   OH272693   4.486   1.984  13.511  0.2616  0.4429  0.3206
17093TIP3    H172694   4.537   1.926  13.454  0.7093  0.7846  0.3722
17093TIP3    H272695   4.402   1.939  13.521 -0.6469  1.3220 -2.3300
17094TIP3   OH272696   0.964   3.669   3.382 -0.1187 -0.4336  0.2913
17094TIP3    H172697   1.040   3.722   3.358 -0.1158  0.3731  1.9384
17094TIP3    H272698   0.914   3.662   3.301  0.1663  1.6358 -0.1424
17095TIP3   OH272699   2.234   1.911  14.499  0.3622  0.0483  0.1656
17095TIP3    H172700   2.282   1.848  14.445  0.6828  0.0577  0.4354
17095TIP3    H272701   2.240   1.875  14.588  1.3788  0.9457  0.4784
17096TIP3   OH272702   1.820   2.779   4.277  0.4323 -0.0490  0.1962
17096TIP3    H172703   1.915   2.777   4.289  0.4322  1.3113  0.6034
17096TIP3    H272704   1.791   2.692   4.303  1.8329 -1.5674 -2.8128
17097TIP3   OH272705   2.450   2.528   5.259  0.0788  0.4083  0.5286
17097TIP3    H172706   2.391   2.585   5.309 -1.3979 -1.2053  0.7125
17097TIP3    H272707   2.454   2.569   5.173 -0.7819  0.9182  0.7094
17098TIP3   OH272708   2.571   6.421   0.891  0.2439  0.0764  1.1136
17098TIP3    H172709   2.559   6.482   0.963  1.9295  1.1563  0.5440
17098TIP3    H272710   2.666   6.410   0.884  0.2116  0.6931 -1.4766
17099TIP3   OH272711   4.094   4.315  13.650  0.1079 -0.0282  0.1668
17099TIP3    H172712   4.012   4.298  13.696 -0.1894 -0.7386 -0.5977
17099TIP3    H272713   4.118   4.231  13.611  0.2207  0.5801 -1.1575
17100TIP3   OH272714   6.080   4.148   2.383 -0.5334 -0.2097  0.3437
17100TIP3    H172715   6.004   4.134   2.440  0.1593 -2.5766  0.7792
17100TIP3    H272716   6.155   4.118   2.434  0.4902  0.3797 -0.7592
17101TIP3   OH272717   2.474   3.984  11.976  0.8457 -0.3295  0.0169
17101TIP3    H172718   2.455   3.967  12.068  1.6884 -0.4150  0.1801
17101TIP3    H272719   2.549   4.044  11.978  1.0821 -0.6026 -0.6187
17102TIP3   OH272720   0.825   3.842   2.965 -0.1379 -0.5733  0.3479
17102TIP3    H172721   0.745   3.794   2.943 -0.5466 -0.4757  1.5692
17102TIP3    H272722   0.794   3.930   2.989  0.3310 -0.5481  0.8778
17103TIP3   OH272723   5.717   5.981  13.191 -0.4321 -0.0411 -0.2931
17103TIP3    H172724   5.781   5.917  13.158 -0.5622 -0.2782 -0.0835
17103TIP3    H272725   5.664   5.933  13.254 -0.2017  0.4130  0.2520
17104TIP3   OH272726   0.902   4.545  16.702 -0.2255  0.5227  0.2532
17104TIP3    H172727   0.874   4.524  16.613  0.5273  1.6778 -0.2801
17104TIP3    H272728   0.831   4.512  16.757 -0.1412 -1.3190 -0.6663
17105TIP3   OH272729   2.779   6.526   2.326 -0.0406 -0.3153 -0.7644
17105TIP3    H172730   2.721   6.509   2.400 -2.7918  0.0662 -2.6855
17105TIP3    H272731   2.785   6.621   2.321 -1.0516 -0.2901 -1.8375
17106TIP3   OH272732   3.628   2.876   4.502  0.5645 -0.2052 -0.8366
17106TIP3    H172733   3.673   2.908   4.580 -0.8861  0.7300 -0.3437
17106TIP3    H272734   3.600   2.788   4.525  0.2140  0.0359 -0.3107
17107TIP3   OH272735   1.544   2.841  12.282  0.2247  0.6909  0.1538
17107TIP3    H172736   1.521   2.856  12.190 -0.5417 -1.0864  0.0199
17107TIP3    H272737   1.636   2.817  12.280  0.5470  1.8587  0.0127
17108TIP3   OH272738   4.723   5.665  15.644 -0.7350  0.2679  0.3836
17108TIP3    H172739   4.803   5.667  15.592 -1.6529  0.5025 -1.0903
17108TIP3    H272740   4.747   5.705  15.728  0.7285  0.1198  0.0489
17109TIP3   OH272741   2.587   3.223   5.719 -0.1289  0.2269 -0.3003
17109TIP3    H172742   2.504   3.176   5.712  1.3703 -2.5909 -0.6799
17109TIP3    H272743   2.585   3.288   5.648 -2.1425  0.5482  0.0010
17110TIP3   OH272744   0.519   6.690   4.262  0.4527 -0.0674  0.2900
17110TIP3    H172745   0.512   6.779   4.295  1.4926  0.4192 -0.7202
17110TIP3    H272746   0.429   6.665   4.240  0.1114  0.5974  0.8864
17111TIP3   OH272747   4.665   3.358  11.935  0.1565  0.1117 -0.3431
17111TIP3    H172748   4.615   3.391  12.009  1.2731 -0.5320  0.7274
17111TIP3    H272749   4.756   3.380  11.955  0.4426  0.3147 -1.7431
17112TIP3   OH272750   2.621   6.285   2.275 -0.0230  0.6342  0.6939
17112TIP3    H172751   2.676   6.347   2.226  0.4741 -0.4831 -0.2225
17112TIP3    H272752   2.550   6.338   2.310  1.0385  1.9226  0.9629
17113TIP3   OH272753   0.524   3.097  16.629 -0.3946  0.1275 -0.2104
17113TIP3    H172754   0.605   3.121  16.582 -1.5259  1.9903 -1.3469
17113TIP3    H272755   0.554   3.040  16.700  1.9310  0.7326 -0.5988
17114TIP3   OH272756   3.531   3.461  12.234  0.6810  0.1824  0.0682
17114TIP3    H172757   3.619   3.490  12.210 -0.2649  1.4486 -2.1273
17114TIP3    H272758   3.472   3.526  12.196 -1.2661 -1.1343  0.6575
17115TIP3   OH272759   1.693   6.682   5.407  0.3890 -0.4044  0.0691
17115TIP3    H172760   1.668   6.755   5.351  0.7684 -2.0739 -2.4417
17115TIP3    H272761   1.777   6.708   5.445  0.6040  0.3945 -0.9191
17116TIP3   OH272762   6.701   3.980   0.460 -1.0896 -0.0334  0.0685
17116TIP3    H172763   6.697   4.054   0.519  0.4718 -0.1774  0.3931
17116TIP3    H272764   6.687   3.903   0.516  1.2411 -0.2370  0.4878
17117TIP3   OH272765   0.265   6.640  15.590  0.1523 -0.4047  0.0496
17117TIP3    H172766   0.244   6.725  15.552  0.1174 -0.9415 -1.1859
17117TIP3    H272767   0.230   6.576  15.528  0.7462 -1.3245  0.6288
17118TIP3   OH272768   5.305   3.585  14.278 -0.5032 -0.0544  0.1495
17118TIP3    H172769   5.340   3.624  14.358  2.6675  1.4433 -1.7573
17118TIP3    H272770   5.239   3.647  14.248 -0.8877 -0.0451  0.9965
17119TIP3   OH272771   5.029   2.576  12.893  0.4947 -0.8930 -0.0356
17119TIP3    H172772   4.942   2.542  12.917 -0.6055  1.6477 -0.0789
17119TIP3    H272773   5.025   2.587  12.798  0.7439 -0.5117 -0.0062
17120TIP3   OH272774   2.570   6.128   5.773 -0.0553 -0.1689  0.1145
17120TIP3    H172775   2.615   6.131   5.857 -0.3711  1.5113  0.2607
17120TIP3    H272776   2.624   6.072   5.718  0.7053 -0.4435  1.1288
17121TIP3   OH272777   4.866   5.307   0.613 -0.4350 -0.4917 -0.6668
17121TIP3    H172778   4.889   5.327   0.522  0.8017 -1.8899 -0.7144
17121TIP3    H272779   4.915   5.227   0.632 -1.8479 -1.0623  0.7623
17122TIP3   OH272780   1.962   2.563  13.414  0.4917 -0.8043 -0.3834
17122TIP3    H172781   1.915   2.598  13.490  0.0657  0.6816 -1.2889
17122TIP3    H272782   1.914   2.484  13.390 -0.6248 -0.1658 -0.3301
17123TIP3   OH272783   4.384   5.224  16.391  0.1220  0.2302 -0.4535
17123TIP3    H172784   4.477   5.237  16.409 -0.3747  1.7564  1.3212
17123TIP3    H272785   4.341   5.240  16.475 -1.7109 -1.0592 -1.0861
17124TIP3   OH272786   1.901   4.325   1.687 -0.6708  0.4488  0.6694
17124TIP3    H172787   1.945   4.240   1.689  0.6436  1.1192  2.4170
17124TIP3    H272788   1.954   4.378   1.628 -0.4819  0.5576  0.9340
17125TIP3   OH272789   0.102   5.294  16.645 -0.1879 -0.0440  0.0120
17125TIP3    H172790   0.035   5.321  16.583 -0.1350 -0.6371 -0.3152
17125TIP3    H272791   0.091   5.199  16.653 -1.2556  0.1826  2.1509
17126TIP3   OH272792   0.672   6.435   1.126 -0.1891 -0.2237  0.1153
17126TIP3    H172793   0.648   6.358   1.177 -0.9135  0.3386  0.6537
17126TIP3    H272794   0.620   6.506   1.164  0.9159  0.6630  0.0304
17127TIP3   OH272795   3.418   5.219   5.456  0.3072  0.0788  0.2426
17127TIP3    H172796   3.351   5.155   5.431  1.8916 -1.4919 -0.2167
17127TIP3    H272797   3.455   5.184   5.537 -0.0087  1.4220  0.9964
17128TIP3   OH272798   5.037   1.748   2.509  0.1166 -0.5325 -0.2614
17128TIP3    H172799   5.098   1.810   2.468 -0.7562  0.6045  0.0924
17128TIP3    H272800   5.067   1.662   2.480  0.9412  0.0953 -1.3645
17129TIP3   OH272801   4.586   0.602   0.459 -0.6136  0.1594 -0.2894
17129TIP3    H172802   4.583   0.698   0.458 -0.2717  0.1831  0.2628
17129TIP3    H272803   4.631   0.581   0.541  1.2660 -0.4336 -1.4144
17130TIP3   OH272804   2.257   2.959   1.179  0.5164 -0.2138 -0.2076
17130TIP3    H172805   2.258   2.889   1.244  1.0208 -0.2662 -0.2676
17130TIP3    H272806   2.227   3.036   1.227  1.3441 -0.1390  0.2176
17131TIP3   OH272807   4.274   6.437   6.442 -0.2183  0.1169 -0.1401
17131TIP3    H172808   4.335   6.428   6.516  1.4282 -0.0380 -1.4591
17131TIP3    H272809   4.295   6.364   6.385  0.0478  1.4286 -1.7982
17132TIP3   OH272810   3.576   2.240   4.808  0.7087  0.0062  0.2805
17132TIP3    H172811   3.504   2.300   4.824 -0.2326 -0.6821 -1.1279
17132TIP3    H272812   3.587   2.193   4.891 -1.0676 -0.4793  0.2946
17133TIP3   OH272813   4.383   0.210   3.112 -0.0898 -0.6068 -0.3246
17133TIP3    H172814   4.350   0.284   3.060  2.7659  0.7597 -0.3545
17133TIP3    H272815   4.372   0.238   3.202  1.7087  0.2707 -0.3407
17134TIP3   OH272816   4.995   5.956   5.202  0.3554 -0.1899 -0.5405
17134TIP3    H172817   4.915   5.994   5.168  0.6270  0.3210 -0.6191
17134TIP3    H272818   5.065   6.014   5.171  0.7458 -0.5800 -0.4055
17135TIP3   OH272819   2.014   5.801   5.707 -0.4881  0.0840  0.0185
17135TIP3    H172820   2.051   5.875   5.658 -0.0092  1.6125  2.4790
17135TIP3    H272821   2.090   5.748   5.731 -0.8589 -1.4818 -1.9983
17136TIP3   OH272822   4.244   6.177  10.738  0.4372 -0.6905 -0.4367
17136TIP3    H172823   4.190   6.253  10.759 -0.3349 -0.9372 -1.4644
17136TIP3    H272824   4.331   6.213  10.722  0.3023 -0.1491  0.0109
17137TIP3   OH272825   4.616   3.914   2.364  0.0837  0.0634 -0.1704
17137TIP3    H172826   4.600   3.826   2.332 -0.7212  0.7439 -1.7399
17137TIP3    H272827   4.545   3.967   2.328  0.7307  1.4310  0.4513
17138TIP3   OH272828   3.022   0.839  10.993  0.6011 -0.5684  0.1682
17138TIP3    H172829   3.103   0.874  11.032  1.1113 -0.4519 -0.9530
17138TIP3    H272830   3.042   0.748  10.974  0.5172 -0.5049 -0.2329
17139TIP3   OH272831   3.512   4.569   4.929 -0.3992 -0.1319  0.2190
17139TIP3    H172832   3.420   4.568   4.955 -0.0669 -0.0913  1.4725
17139TIP3    H272833   3.536   4.477   4.922 -0.0271 -0.1878  1.8748
17140TIP3   OH272834   5.437   6.134   6.476 -0.6122  0.0198  0.1541
17140TIP3    H172835   5.498   6.061   6.469 -0.7650 -0.2986  1.6646
17140TIP3    H272836   5.484   6.200   6.527 -0.9019  0.4833 -0.1689
17141TIP3   OH272837   4.599   1.343   4.483  0.1493  0.8243  0.1268
17141TIP3    H172838   4.546   1.263   4.482  1.6558 -0.2606  1.1692
17141TIP3    H272839   4.651   1.336   4.563  2.3907  1.4116 -1.1808
17142TIP3   OH272840   3.454   6.375   1.922 -0.5253  0.1254 -0.0556
17142TIP3    H172841   3.363   6.406   1.924 -1.3336 -2.0078 -0.8476
17142TIP3    H272842   3.461   6.325   1.841  1.3026  0.0015  0.1268
17143TIP3   OH272843   0.441   1.857   2.069  0.4582  0.3142 -0.3265
17143TIP3    H172844   0.406   1.770   2.089 -0.0174  0.6503  0.3119
17143TIP3    H272845   0.384   1.918   2.115  1.1705  0.9384 -0.2474
17144TIP3   OH272846   1.307   6.686   2.168 -0.0456 -0.0208 -0.5428
17144TIP3    H172847   1.251   6.751   2.126  1.2490  0.5149 -1.5050
17144TIP3    H272848   1.247   6.629   2.215 -1.3601  0.7138 -1.2883
17145TIP3   OH272849   2.942   3.979  11.059 -0.3825 -0.1305  0.2320
17145TIP3    H172850   2.930   3.917  10.987  1.5177 -1.0750  0.6755
17145TIP3    H272851   3.031   4.012  11.048 -0.8157  1.3633  0.9246
17146TIP3   OH272852   1.635   1.121  14.768 -0.2804 -0.2933 -0.3951
17146TIP3    H172853   1.576   1.168  14.827  0.1962  1.5785 -1.3433
17146TIP3    H272854   1.721   1.160  14.783  0.1131 -0.7651 -1.3378
17147TIP3   OH272855   4.919   2.056   1.045  0.4082  0.1906 -1.0525
17147TIP3    H172856   4.968   2.086   0.969  2.1335 -0.4767 -0.2550
17147TIP3    H272857   4.832   2.035   1.011  0.8835  0.7091 -2.6661
17148TIP3   OH272858   1.290   1.240   5.986 -0.5382 -0.1943  0.7974
17148TIP3    H172859   1.243   1.266   6.066 -3.0731 -1.5756 -0.1356
17148TIP3    H272860   1.350   1.172   6.015 -0.9339 -0.1920  1.6623
17149TIP3   OH272861   1.431   5.600  13.915 -0.5250 -0.3674 -0.2197
17149TIP3    H172862   1.402   5.536  13.850  1.6405 -0.5251 -1.1382
17149TIP3    H272863   1.522   5.620  13.889  0.1471  0.1629  2.3134
17150TIP3   OH272864   0.391   1.907  17.222 -0.3518  0.6120 -0.1227
17150TIP3    H172865   0.395   1.929  17.129  1.6582  1.5427  0.1367
17150TIP3    H272866   0.432   1.821  17.228 -1.9836 -0.2190 -0.2607
17151TIP3   OH272867   3.332   4.149  15.649 -1.0128 -0.1909 -0.0443
17151TIP3    H172868   3.273   4.135  15.575 -1.9124 -2.0794  0.9680
17151TIP3    H272869   3.398   4.080  15.640 -0.4046  0.3388  0.2504
17152TIP3   OH272870   0.971   1.215   4.644 -0.1622 -0.0296  0.1308
17152TIP3    H172871   0.904   1.233   4.710  0.7328 -0.4551  1.1907
17152TIP3    H272872   0.925   1.166   4.576 -1.5013  1.8863 -0.4389
17153TIP3   OH272873   3.603   1.900   2.935 -0.1087 -0.6926  0.1546
17153TIP3    H172874   3.514   1.934   2.928 -0.0954 -0.9511 -1.8348
17153TIP3    H272875   3.609   1.868   3.025 -0.5016  3.3581  1.8167
17154TIP3   OH272876   3.723   5.408  13.142 -0.2997  0.0685 -0.0383
17154TIP3    H172877   3.795   5.395  13.205 -0.4753  0.0072  0.1508
17154TIP3    H272878   3.711   5.503  13.140 -1.0779  0.0087  0.9157
17155TIP3   OH272879   5.225   2.951   5.295  0.3634  0.2931  0.3383
17155TIP3    H172880   5.169   2.992   5.229  2.3819  1.3683 -0.8131
17155TIP3    H272881   5.247   2.866   5.258  0.7305  0.5064  0.0632
17156TIP3   OH272882   2.474   3.582   2.499  0.4188 -0.5565 -0.4272
17156TIP3    H172883   2.538   3.583   2.427  0.3359 -0.2797 -0.4977
17156TIP3    H272884   2.399   3.534   2.464  0.4139 -0.4988 -0.4970
17157TIP3   OH272885   5.817   0.048   5.885  0.1276  0.0598 -0.6431
17157TIP3    H172886   5.842   0.047   5.793 -2.1171 -0.0506 -1.3155
17157TIP3    H272887   5.862  -0.027   5.923  1.5916  0.4728 -1.4686
17158TIP3   OH272888   1.536   1.665   5.508 -0.4475  0.5303  0.2692
17158TIP3    H172889   1.441   1.681   5.505 -0.5278  0.3167  1.3030
17158TIP3    H272890   1.551   1.626   5.594  0.3481 -1.0168 -0.5365
17159TIP3   OH272891   5.662   6.392  15.957 -0.0726 -0.2567  0.7254
17159TIP3    H172892   5.640   6.321  16.016 -0.0354  0.0125  1.0653
17159TIP3    H272893   5.587   6.451  15.961 -0.1251 -0.3006  0.4083
17160TIP3   OH272894   0.066   4.668  15.124 -0.2443  0.2781 -0.4607
17160TIP3    H172895   0.139   4.668  15.186 -0.1830  1.3034 -0.5174
17160TIP3    H272896   0.040   4.760  15.117 -1.6216 -0.0756 -0.3582
17161TIP3   OH272897   5.080   6.320  16.536 -0.3310  0.1845 -0.0086
17161TIP3    H172898   5.166   6.279  16.543 -0.6878 -0.5295  0.3471
17161TIP3    H272899   5.079   6.358  16.448  0.1922 -0.1640 -0.1694
17162TIP3   OH272900   6.056   0.313   6.006 -0.1236  0.0661  0.7018
17162TIP3    H172901   5.965   0.324   6.033 -0.6158  0.0299 -0.8520
17162TIP3    H272902   6.057   0.338   5.914  1.2477 -0.8350  0.4450
17163TIP3   OH272903   4.931   1.742  14.651 -0.5552  0.2644  1.0569
17163TIP3    H172904   4.964   1.655  14.629  3.0686  1.8128 -0.4126
17163TIP3    H272905   4.914   1.784  14.566  0.2548  1.7947  1.5990
17164TIP3   OH272906   5.398   6.471  16.030  0.0750  0.4762 -0.1448
17164TIP3    H172907   5.360   6.385  16.045  0.4516  0.2578 -0.4301
17164TIP3    H272908   5.322   6.528  16.014 -0.2959  0.5718  1.7805
17165TIP3   OH272909   1.363   4.275  13.065 -0.3056  0.7309  0.0177
17165TIP3    H172910   1.450   4.299  13.098 -1.0940 -1.1138  3.9427
17165TIP3    H272911   1.378   4.194  13.016  0.2952  0.9662 -0.2049
17166TIP3   OH272912   4.488   1.785  12.328  0.1562  0.1032  0.2656
17166TIP3    H172913   4.511   1.754  12.240  0.7874  3.2879 -0.8394
17166TIP3    H272914   4.397   1.757  12.339 -1.2254  2.5271 -3.0371
17167TIP3   OH272915   3.086   6.559   1.529  0.0098 -0.1296 -0.1104
17167TIP3    H172916   3.054   6.588   1.443 -0.0991 -1.9903 -0.7274
17167TIP3    H272917   3.176   6.530   1.513 -0.1009 -0.7358  0.3485
17168TIP3   OH272918   1.833   4.964   1.867  0.1231  0.2960  0.3308
17168TIP3    H172919   1.891   4.888   1.862  1.0828  1.0598 -0.3855
17168TIP3    H272920   1.751   4.934   1.826 -0.3353 -1.0488  2.0875
17169TIP3   OH272921   2.569   5.275  14.471  0.0395  0.3245  0.8221
17169TIP3    H172922   2.538   5.230  14.550 -0.9575 -2.3229 -0.9426
17169TIP3    H272923   2.492   5.322  14.438  0.2931  0.9239  1.0637
17170TIP3   OH272924   1.973   0.560  15.645 -0.0833 -0.0032  0.4193
17170TIP3    H172925   2.043   0.619  15.618 -0.9939  0.7473 -0.4102
17170TIP3    H272926   1.897   0.590  15.595 -0.4575 -2.2067 -0.4359
17171TIP3   OH272927   5.354   1.078  12.478 -0.0015 -0.1848  0.2840
17171TIP3    H172928   5.389   1.056  12.392 -2.2982 -1.1842 -0.4784
17171TIP3    H272929   5.425   1.055  12.539  0.7174 -2.0388 -1.1473
17172TIP3   OH272930   6.596   1.897   5.515 -0.3935 -0.6353 -0.2525
17172TIP3    H172931   6.623   1.873   5.427  0.2499 -1.7633  0.2248
17172TIP3    H272932   6.605   1.992   5.519 -1.1496 -0.4907 -1.6236
17173TIP3   OH272933   6.198   1.054  16.155  0.0282  0.8512  0.1421
17173TIP3    H172934   6.124   1.032  16.213  2.1477 -3.0376  1.7604
17173TIP3    H272935   6.267   1.083  16.215  1.3522 -0.4922 -0.6692
17174TIP3   OH272936   0.335   4.448  12.244  0.2679 -0.3541  0.1933
17174TIP3    H172937   0.415   4.458  12.296 -0.2239 -0.0049  0.9049
17174TIP3    H272938   0.268   4.422  12.308 -0.0219 -1.4143 -0.5233
17175TIP3   OH272939   4.608   0.573  15.361 -0.6261 -0.3990 -0.4193
17175TIP3    H172940   4.533   0.561  15.419 -0.9302  1.8725 -0.2630
17175TIP3    H272941   4.586   0.522  15.283 -1.4934 -1.2280  0.3495
17176TIP3   OH272942   6.550   1.364   6.374  0.0372 -0.1681 -0.3904
17176TIP3    H172943   6.578   1.276   6.351 -1.7819 -1.0151  0.3930
17176TIP3    H272944   6.627   1.403   6.417  0.1671 -2.2970  1.5428
17177TIP3   OH272945   3.467   5.947  17.354 -0.3174 -0.6154 -0.5058
17177TIP3    H172946   3.515   6.027  17.332  1.6286 -1.5751 -0.0140
17177TIP3    H272947   3.506   5.918  17.437 -2.0493 -1.2588  0.1278
17178TIP3   OH272948   5.504   5.496   4.321  0.7563 -0.8046 -0.2918
17178TIP3    H172949   5.593   5.460   4.330  1.6986  1.1669 -1.0873
17178TIP3    H272950   5.503   5.572   4.379  0.3268  0.4135 -1.8278
17179TIP3   OH272951   0.011   3.610  12.297  0.3050  0.3985 -0.0223
17179TIP3    H172952   0.065   3.605  12.375 -1.2786  0.0208  1.1086
17179TIP3    H272953  -0.077   3.587  12.327 -0.6311  1.6165 -1.6335
17180TIP3   OH272954   1.033   6.507  15.090 -0.0412  0.1370  0.0862
17180TIP3    H172955   1.114   6.497  15.139 -1.0464 -0.9675  1.5747
17180TIP3    H272956   1.006   6.418  15.069 -1.3677  0.4476  0.4335
17181TIP3   OH272957   6.515   6.251   5.949  0.0175  0.0277  0.0782
17181TIP3    H172958   6.480   6.227   5.863  1.9717 -0.5796 -0.6102
17181TIP3    H272959   6.544   6.342   5.938  0.2529 -0.0453  0.0865
17182TIP3   OH272960   4.921   6.022  12.640 -0.3437 -0.3734 -0.5084
17182TIP3    H172961   5.001   6.023  12.691  1.3490  3.2688 -2.8262
17182TIP3    H272962   4.887   6.111  12.646 -1.8162 -0.6594 -3.0509
17183TIP3   OH272963   0.652   4.578   3.625  0.1089 -0.2888  0.0332
17183TIP3    H172964   0.614   4.583   3.713 -1.0419  0.0975 -0.4661
17183TIP3    H272965   0.602   4.510   3.581  0.2560 -0.0453 -0.5225
17184TIP3   OH272966   3.160   5.120  14.474  0.1878  0.8209  0.1430
17184TIP3    H172967   3.067   5.140  14.460  0.5080  0.6249 -2.6675
17184TIP3    H272968   3.166   5.104  14.569 -2.9097 -0.6174  0.2356
17185TIP3   OH272969   3.959   5.325   2.689 -0.4046  0.1095  1.0612
17185TIP3    H172970   3.982   5.316   2.596 -0.5049  0.8973  0.9522
17185TIP3    H272971   3.946   5.235   2.719  0.0634 -0.1824  0.4238
17186TIP3   OH272972   1.695   1.589   6.842 -0.3409  0.2002 -0.0630
17186TIP3    H172973   1.660   1.501   6.827 -0.5025  0.5558 -2.0074
17186TIP3    H272974   1.675   1.637   6.762  0.9975  1.6129  0.4032
17187TIP3   OH272975   6.332   6.601  15.431  0.7016 -0.2942  0.0657
17187TIP3    H172976   6.352   6.508  15.424  0.5018 -0.3693  0.5256
17187TIP3    H272977   6.246   6.605  15.472 -0.7690  0.0005 -2.7904
17188TIP3   OH272978   5.362   1.446   6.171 -0.3894 -0.1319 -0.1906
17188TIP3    H172979   5.456   1.428   6.172 -0.8550 -3.3172  2.4881
17188TIP3    H272980   5.349   1.513   6.237 -0.0272  0.2333 -0.4873
17189TIP3   OH272981   4.171   6.428  13.237  0.4312  0.2514  0.9271
17189TIP3    H172982   4.228   6.466  13.303  1.9651 -1.9935  1.0078
17189TIP3    H272983   4.176   6.488  13.163  1.9531  0.7199  1.3858
17190TIP3   OH272984   3.157   5.549   1.751  0.1549  0.0787  0.2550
17190TIP3    H172985   3.238   5.561   1.801  0.1333  0.6099  0.1690
17190TIP3    H272986   3.115   5.636   1.752 -1.3832 -0.6010  1.9501
17191TIP3   OH272987   5.660   6.571  15.417  0.4456  0.4007  0.1856
17191TIP3    H172988   5.708   6.649  15.444 -0.5830  1.4542 -0.8690
17191TIP3    H272989   5.674   6.566  15.322 -1.5648  0.8181 -0.1747
17192TIP3   OH272990   0.772   4.102  17.353 -0.1004 -0.4435 -0.2618
17192TIP3    H172991   0.692   4.154  17.363 -0.5643 -0.9410 -1.2223
17192TIP3    H272992   0.748   4.016  17.386  0.7523 -0.0088  1.5931
17193TIP3   OH272993   3.387   0.970   2.478 -0.0171  0.7445 -0.3707
17193TIP3    H172994   3.340   1.028   2.537 -0.6119  0.5759 -0.6710
17193TIP3    H272995   3.433   1.028   2.417 -0.3151  0.9101 -0.4410
17194TIP3   OH272996   2.366   2.277   5.389  0.3221  0.2903 -0.4399
17194TIP3    H172997   2.356   2.343   5.321 -3.6109 -0.0262 -0.4112
17194TIP3    H272998   2.403   2.201   5.345 -0.8271  0.5637 -1.9482
17195TIP3   OH272999   4.577   0.670   3.909 -0.4841  0.0994 -0.0255
17195TIP3    H173000   4.565   0.576   3.898 -1.3099  0.2300 -0.3000
17195TIP3    H273001   4.571   0.684   4.003 -1.2715 -0.0062 -0.0588
17196TIP3   OH273002   6.688   1.968   1.397  0.1506  0.4122  0.4801
17196TIP3    H173003   6.617   1.979   1.461 -0.0994 -0.3472  0.3439
17196TIP3    H273004   6.655   2.012   1.318 -0.0353  0.3305  0.5112
17197TIP3   OH273005   1.691   1.013  11.382 -0.0628 -0.2230 -0.0704
17197TIP3    H173006   1.709   1.105  11.401 -0.7423 -0.3092  1.0659
17197TIP3    H273007   1.756   0.989  11.316  0.4526  0.9235 -0.0027
17198TIP3   OH273008   5.462   5.688  11.911  0.0412  0.5985  0.4359
17198TIP3    H173009   5.492   5.616  11.966  0.0151  0.9428  0.9060
17198TIP3    H273010   5.375   5.661  11.882 -0.4647  0.9502  1.5742
17199TIP3   OH273011   6.264   4.277  16.484 -0.6770  0.6968 -0.0915
17199TIP3    H173012   6.241   4.369  16.499  0.7858  1.0789  0.0131
17199TIP3    H273013   6.253   4.236  16.570 -0.6247  0.9569  0.0419
17200TIP3   OH273014   2.051   4.439   1.151  0.5073  0.2955 -0.1296
17200TIP3    H173015   2.092   4.514   1.108  1.9184 -0.0452  0.5504
17200TIP3    H273016   1.959   4.445   1.127  0.9344  1.1019 -1.7517
17201TIP3   OH273017   0.530   2.581  15.814 -0.5441  0.6976  0.0089
17201TIP3    H173018   0.515   2.675  15.818  1.5387  1.0681  0.6812
17201TIP3    H273019   0.523   2.551  15.905  1.7759  0.8107  0.2965
17202TIP3   OH273020   0.329   1.519   5.043 -0.7975  0.0702  0.0964
17202TIP3    H173021   0.289   1.546   4.961 -0.9142  1.2514  0.5253
17202TIP3    H273022   0.287   1.574   5.110  0.7913  0.6356  0.6801
17203TIP3   OH273023   0.484   0.274  13.229 -0.6826  0.3145  0.1474
17203TIP3    H173024   0.427   0.351  13.231 -0.1233  0.7384 -0.1235
17203TIP3    H273025   0.487   0.244  13.320 -0.1505  1.1740  0.4245
17204TIP3   OH273026   5.656   3.990   3.773  0.1293  0.1799 -0.0324
17204TIP3    H173027   5.722   4.009   3.840 -0.2258 -0.9320  0.6500
17204TIP3    H273028   5.572   3.999   3.818 -0.0760 -3.1469  0.4493
17205TIP3   OH273029   0.229   3.845   1.229 -0.0661 -0.0636  0.8447
17205TIP3    H173030   0.178   3.926   1.240 -0.2334 -0.0979  0.3299
17205TIP3    H273031   0.198   3.808   1.147 -1.0270 -1.4144  1.7850
17206TIP3   OH273032   5.609   5.569  15.089 -0.2260 -0.4392 -0.2507
17206TIP3    H173033   5.673   5.540  15.153  2.5857  0.4553 -2.4423
17206TIP3    H273034   5.646   5.649  15.052 -2.6393  0.1390 -1.6640
17207TIP3   OH273035   1.013   0.545  10.797  0.0038 -0.2141  0.0916
17207TIP3    H173036   1.042   0.455  10.790 -0.4454 -0.4689  1.2333
17207TIP3    H273037   0.920   0.539  10.818  0.1923  0.4774  1.2290
17208TIP3   OH273038   2.565   5.752  15.066  0.1212 -0.1692  0.2928
17208TIP3    H173039   2.518   5.754  14.983  1.1811  1.2605 -0.3366
17208TIP3    H273040   2.544   5.836  15.108  1.5542  0.2278  0.2789
17209TIP3   OH273041   3.649   2.635  16.870  0.2717 -0.0498 -0.0585
17209TIP3    H173042   3.583   2.696  16.838  1.4901  0.4772 -1.6870
17209TIP3    H273043   3.683   2.676  16.950  0.8355  1.2749 -0.9444
17210TIP3   OH273044   2.706   1.596   3.958 -0.0560 -0.2948 -0.3977
17210TIP3    H173045   2.643   1.651   4.004 -0.5633 -1.6985  0.6555
17210TIP3    H273046   2.746   1.654   3.893  0.6801  1.7944  1.7692
17211TIP3   OH273047   5.213   1.996  13.465 -1.2757  0.2791 -0.3002
17211TIP3    H173048   5.229   2.008  13.371 -1.0928 -0.4522 -0.3638
17211TIP3    H273049   5.276   2.055  13.507 -1.2627  0.5071 -0.6363
17212TIP3   OH273050   3.289   6.329   0.698 -0.4346 -0.7338  0.1800
17212TIP3    H173051   3.284   6.389   0.773  0.4296  2.1743 -1.9397
17212TIP3    H273052   3.199   6.324   0.666 -0.5456 -0.7758  0.4911
17213TIP3   OH273053   4.840   4.765  15.308  0.5305  0.2702  0.0045
17213TIP3    H173054   4.912   4.828  15.298  0.6690  0.1209  0.0671
17213TIP3    H273055   4.808   4.750  15.219 -1.0695  2.2524  0.1596
17214TIP3   OH273056   5.957   6.183   5.949  0.6633 -0.4299 -0.3968
17214TIP3    H173057   5.883   6.208   6.004  1.1073 -0.7377  0.3533
17214TIP3    H273058   6.020   6.143   6.010  1.9952  0.9706 -0.7905
17215TIP3   OH273059   5.720   1.743   3.860 -0.6829  0.2775  0.1364
17215TIP3    H173060   5.735   1.836   3.878 -1.0250  0.4492 -0.4132
17215TIP3    H273061   5.636   1.723   3.902 -0.3465  0.0726  0.7196
17216TIP3   OH273062   0.650   3.633   2.628 -0.1266  0.5653 -0.4301
17216TIP3    H173063   0.687   3.622   2.715 -0.2042 -0.4090 -0.5021
17216TIP3    H273064   0.555   3.634   2.642 -0.2079 -1.1545 -0.6217
17217TIP3   OH273065   3.493   1.321   3.893 -0.1201 -0.2516 -0.3103
17217TIP3    H173066   3.579   1.346   3.926  0.0088 -2.0836  0.8454
17217TIP3    H273067   3.448   1.405   3.877  1.7288  0.7330 -0.6589
17218TIP3   OH273068   1.238   0.549   3.872  0.2901  0.1221  0.8304
17218TIP3    H173069   1.176   0.518   3.938  0.4014  0.2907  1.0174
17218TIP3    H273070   1.322   0.510   3.897  0.2576 -0.1020  0.5804
17219TIP3   OH273071   0.393   0.079  12.652 -0.0802  0.8919 -0.1509
17219TIP3    H173072   0.403   0.050  12.561 -0.3520 -0.6658  0.2778
17219TIP3    H273073   0.478   0.062  12.692 -0.2272  0.7453  0.0982
17220TIP3   OH273074   4.245   4.065  16.895  0.2654 -0.0557 -0.0792
17220TIP3    H173075   4.319   4.124  16.881  0.3528 -0.1242  0.0892
17220TIP3    H273076   4.272   3.982  16.856  1.2108 -0.7627  1.9633
17221TIP3   OH273077   4.506   2.454  12.483  0.1655  0.3042 -0.1380
17221TIP3    H173078   4.479   2.365  12.460 -0.1159  0.0573  1.1045
17221TIP3    H273079   4.576   2.474  12.420 -0.0838 -0.6081 -0.7307
17222TIP3   OH273080   2.806   5.263   2.736 -0.2128 -0.2958 -0.0379
17222TIP3    H173081   2.833   5.178   2.700 -2.9396 -1.7360  1.0384
17222TIP3    H273082   2.754   5.304   2.667  0.9876  0.5083 -0.5054
17223TIP3   OH273083   5.092   5.171   2.528  0.1544 -0.3548  0.2964
17223TIP3    H173084   5.062   5.262   2.526  2.5057  0.5021 -0.5486
17223TIP3    H273085   5.102   5.151   2.621 -1.5326 -0.2110  0.5364
17224TIP3   OH273086   2.107   4.812  15.267 -0.5884  0.2016  0.4091
17224TIP3    H173087   2.136   4.774  15.350  1.2663  1.5091  0.4110
17224TIP3    H273088   2.118   4.906  15.278  0.0416  0.3810 -1.4459
17225TIP3   OH273089   0.379   0.279  11.472  0.3519 -0.1801 -0.5256
17225TIP3    H173090   0.400   0.362  11.428  0.8689 -0.3589 -0.6144
17225TIP3    H273091   0.357   0.219  11.401 -3.3030  0.7358 -0.3762
17226TIP3   OH273092   0.493   6.364   1.355 -0.3145 -0.2166  0.3500
17226TIP3    H173093   0.421   6.423   1.377 -0.4138  0.2476 -1.0859
17226TIP3    H273094   0.459   6.312   1.282  0.1694 -1.2871  0.8784
17227TIP3   OH273095   2.238   2.894   3.950 -0.2073  0.8900  0.3505
17227TIP3    H173096   2.277   2.809   3.970 -0.0974  1.1915  1.4733
17227TIP3    H273097   2.144   2.877   3.950 -0.1674  0.6506 -0.0262
17228TIP3   OH273098   1.760   5.329   5.742  0.4905  0.0214  0.2657
17228TIP3    H173099   1.747   5.415   5.781  0.0861  0.9431 -1.7742
17228TIP3    H273100   1.765   5.269   5.816  0.3258  1.7323  1.7126
17229TIP3   OH273101   3.039   3.137   0.488 -0.5333  0.1413 -0.4179
17229TIP3    H173102   3.129   3.165   0.505 -0.8516  0.6778  0.4354
17229TIP3    H273103   3.046   3.042   0.474  0.2018  0.2238 -0.6596
17230TIP3   OH273104   3.058   1.886   2.212 -0.7081  0.2323 -0.7457
17230TIP3    H173105   3.101   1.821   2.155 -1.8894 -0.3356 -1.0152
17230TIP3    H273106   3.130   1.925   2.261 -0.0272 -1.9921  0.1729
17231TIP3   OH273107   3.406   2.108   2.737  0.1699  0.1513  0.4429
17231TIP3    H173108   3.439   2.162   2.809  0.5823  0.5423 -0.0345
17231TIP3    H273109   3.314   2.131   2.730  0.3363  0.7792  0.2609
17232TIP3   OH273110   5.599   0.688   4.344  0.0546  0.0683 -0.1080
17232TIP3    H173111   5.625   0.777   4.367 -1.4554  0.9875 -1.7393
17232TIP3    H273112   5.632   0.676   4.255  0.6048 -1.1821  0.2432
17233TIP3   OH273113   0.939   5.234   4.262  0.0828 -0.1734  0.0861
17233TIP3    H173114   0.878   5.170   4.300 -0.7140  0.4340 -0.1302
17233TIP3    H273115   0.971   5.193   4.182  1.4306 -1.2809  1.1416
17234TIP3   OH273116   1.030   5.672   4.570  0.1561 -0.2733 -0.2898
17234TIP3    H173117   0.936   5.669   4.553 -0.3524 -0.5844  2.1446
17234TIP3    H273118   1.049   5.765   4.585  0.3088 -0.1760 -1.0593
17235TIP3   OH273119   0.709   1.034  14.844  0.2589 -0.0289 -0.4837
17235TIP3    H173120   0.642   1.019  14.777  2.1582 -0.2997 -2.4498
17235TIP3    H273121   0.764   0.955  14.841  2.5450  1.4869 -1.3271
17236TIP3   OH273122   1.316   5.462  13.120 -0.0621 -0.2382 -0.4683
17236TIP3    H173123   1.343   5.401  13.189 -1.4572  0.8095  1.0715
17236TIP3    H273124   1.378   5.534  13.126 -0.5660  0.1543  0.1568
17237TIP3   OH273125   3.989   0.641  14.086  0.2699  0.3726 -0.3383
17237TIP3    H173126   3.978   0.568  14.025  1.1496  0.7734 -1.0012
17237TIP3    H273127   4.079   0.634  14.117 -0.3072 -0.0968  1.3173
17238TIP3   OH273128   4.099   4.850   1.899  0.0309 -0.1278  0.4840
17238TIP3    H173129   4.132   4.807   1.978  0.6270 -2.3180 -0.8712
17238TIP3    H273130   4.004   4.855   1.913  0.0627 -0.9943  1.1078
17239TIP3   OH273131   1.343   5.938  11.580 -0.4401 -0.0325 -0.4499
17239TIP3    H173132   1.404   5.880  11.534 -1.4439 -0.2367 -1.5616
17239TIP3    H273133   1.328   6.010  11.518 -0.8632  0.3235  0.0638
17240TIP3   OH273134   3.542   4.823   1.969 -0.0764  0.1829 -0.3651
17240TIP3    H173135   3.587   4.796   1.890  2.3748  0.0736  0.9688
17240TIP3    H273136   3.565   4.757   2.034 -1.1779  0.8159  0.7283
17241TIP3   OH273137   5.495   0.474   1.903 -0.4704  0.1323 -0.5912
17241TIP3    H173138   5.400   0.463   1.899 -0.5807  1.1258 -1.1216
17241TIP3    H273139   5.525   0.455   1.814 -0.4238  1.7214 -0.9519
17242TIP3   OH273140   4.658   1.638  11.791  0.1235 -0.1775 -0.5154
17242TIP3    H173141   4.719   1.592  11.734  0.0453 -0.2576 -0.5339
17242TIP3    H273142   4.576   1.641  11.742 -0.4059 -1.6507  0.2257
17243TIP3   OH273143   2.269   1.631  17.384  0.2618  0.1723 -0.6734
17243TIP3    H173144   2.225   1.570  17.442  1.6708  0.0877  0.3727
17243TIP3    H273145   2.202   1.694  17.358 -0.7794 -0.7776 -0.3183
17244TIP3   OH273146   5.974   6.492   5.141  0.1251  0.1537 -0.4779
17244TIP3    H173147   5.907   6.439   5.097 -0.3579 -0.2067  0.6444
17244TIP3    H273148   5.959   6.476   5.235  3.2396 -1.8190 -0.1588
17245TIP3   OH273149   3.814   5.593  15.722 -0.0596 -0.0673 -0.1648
17245TIP3    H173150   3.727   5.555  15.733 -0.1143  0.1918  0.3554
17245TIP3    H273151   3.873   5.518  15.717 -0.3879 -0.2619 -1.2696
17246TIP3   OH273152   4.413   1.973   4.954 -0.2022  0.4372  0.2919
17246TIP3    H173153   4.451   1.939   4.873  1.2372  0.5008  0.9139
17246TIP3    H273154   4.423   1.901   5.017 -1.7805  0.1998  0.2948
17247TIP3   OH273155   1.101   5.737   3.517  0.1886 -0.7854 -0.4189
17247TIP3    H173156   1.037   5.783   3.571  0.6420 -1.9706  1.1874
17247TIP3    H273157   1.141   5.806   3.464  0.7901  0.6908  1.8334
17248TIP3   OH273158   1.015   4.819   4.369 -0.7306  0.1898 -0.0546
17248TIP3    H173159   1.020   4.853   4.458 -1.8803  0.5028 -0.0914
17248TIP3    H273160   0.929   4.777   4.364 -1.2928  1.4044 -1.4171
17249TIP3   OH273161   0.224   1.478  16.346  0.3004  0.0971  0.3778
17249TIP3    H173162   0.196   1.512  16.261  0.8509  3.2591  1.3085
17249TIP3    H273163   0.143   1.453  16.390 -0.2483  0.9081 -0.1437
17250TIP3   OH273164   0.590   1.537  16.474  0.0629 -0.1164 -0.6972
17250TIP3    H173165   0.605   1.508  16.384 -1.3102 -0.9234 -0.6828
17250TIP3    H273166   0.550   1.624  16.465 -0.5692 -0.4257 -0.8810
17251TIP3   OH273167   3.005   1.250  11.583  0.0501 -0.1991 -0.2718
17251TIP3    H173168   3.027   1.201  11.662 -0.7119 -1.6594 -0.9389
17251TIP3    H273169   3.085   1.246  11.530  0.7712  1.3030  0.6383
17252TIP3   OH273170   5.243   3.344   4.898  0.1838 -0.3375  0.1049
17252TIP3    H173171   5.329   3.375   4.868  0.8534 -2.5215 -0.4296
17252TIP3    H273172   5.263   3.266   4.951 -1.3291  0.5846  2.1527
17253TIP3   OH273173   2.625   0.432  11.533 -0.0251 -0.3247 -0.1035
17253TIP3    H173174   2.635   0.516  11.578  0.7509 -0.2762 -0.3478
17253TIP3    H273175   2.630   0.454  11.440  0.8145 -0.7094 -0.1594
17254TIP3   OH273176   4.688   1.177   3.867 -0.0141  0.6319 -0.1477
17254TIP3    H173177   4.619   1.182   3.801 -0.8537 -1.4383  0.4806
17254TIP3    H273178   4.750   1.112   3.833  0.5734  0.9983  0.2076
17255TIP3   OH273179   3.684   4.912   2.272  0.2227 -0.0222 -0.4738
17255TIP3    H173180   3.670   4.905   2.366 -1.6751  0.3657 -0.6905
17255TIP3    H273181   3.615   4.971   2.241 -0.5595 -1.8194 -2.4037
17256TIP3   OH273182   6.083   0.838  15.948 -0.1826 -0.2792  0.3258
17256TIP3    H173183   6.107   0.930  15.939  0.5316 -0.6690 -2.7681
17256TIP3    H273184   6.158   0.797  15.990  0.2430  0.2716  0.1136
17257TIP3   OH273185   3.870   5.691  14.231 -0.4431 -0.2771 -0.0754
17257TIP3    H173186   3.776   5.679  14.215 -0.3951  0.5358 -1.0836
17257TIP3    H273187   3.912   5.659  14.152  0.0776  0.0622  0.0605
17258TIP3   OH273188   2.154   3.027   0.209  0.2638  0.3335 -0.0044
17258TIP3    H173189   2.157   3.035   0.304 -0.6107  1.7289 -0.0614
17258TIP3    H273190   2.223   3.087   0.177  0.4149  0.0303 -0.2562
17259TIP3   OH273191   3.331   3.436   5.585 -0.9949 -0.6039  0.9820
17259TIP3    H173192   3.312   3.385   5.506 -1.3478  0.6912  0.2186
17259TIP3    H273193   3.312   3.375   5.657  0.4997 -2.2243  0.0983
17260TIP3   OH273194   4.157   1.831  16.726 -0.3721  0.2627  0.8652
17260TIP3    H173195   4.204   1.753  16.756  1.6436  1.3963  0.8266
17260TIP3    H273196   4.114   1.803  16.645  1.3731 -0.5134  0.1516
17261TIP3   OH273197   4.718   0.570  14.239 -0.4792 -0.2186  0.0731
17261TIP3    H173198   4.771   0.641  14.202  0.3572 -1.1683 -0.6181
17261TIP3    H273199   4.773   0.533  14.309 -0.5403 -0.7276 -0.1451
17262TIP3   OH273200   0.634   3.665  11.650 -0.2927  0.2569 -0.1633
17262TIP3    H173201   0.686   3.695  11.576 -1.5280  0.6890 -0.8786
17262TIP3    H273202   0.659   3.573  11.660  2.2154  0.9553  0.9373
17263TIP3   OH273203   2.554   0.280   4.129  0.5591  0.2071 -0.2148
17263TIP3    H173204   2.530   0.350   4.069  0.0983  1.6888  1.5810
17263TIP3    H273205   2.471   0.242   4.157  0.4744  1.7495  1.9108
17264TIP3   OH273206   5.673   5.260   0.555 -0.6460  0.3596 -0.2412
17264TIP3    H173207   5.631   5.341   0.582 -0.4679  1.2557 -2.4976
17264TIP3    H273208   5.767   5.277   0.566 -0.6369  0.1557  0.0236
17265TIP3   OH273209   0.690   3.945  16.341  0.3778  0.0198  0.0313
17265TIP3    H173210   0.661   3.951  16.250 -1.2221 -2.2668  0.3124
17265TIP3    H273211   0.780   3.912  16.335  0.2773 -0.1434 -0.7182
17266TIP3   OH273212   1.314   4.640  13.249 -0.2779 -0.5399 -0.0848
17266TIP3    H173213   1.342   4.552  13.275 -1.0961 -1.1393 -1.1476
17266TIP3    H273214   1.392   4.680  13.211  0.3472 -0.4463  1.2315
17267TIP3   OH273215   3.935   2.720   3.334  0.5597  0.1655 -0.2533
17267TIP3    H173216   3.944   2.718   3.239 -0.8655 -0.9882 -0.3941
17267TIP3    H273217   4.005   2.779   3.363  0.9471  0.6365 -2.0057
17268TIP3   OH273218   2.093   2.574  16.087  0.2745 -0.0587 -0.5778
17268TIP3    H173219   2.007   2.577  16.131  1.5736 -0.5648  2.1902
17268TIP3    H273220   2.121   2.665  16.084  0.3337 -0.0569 -0.0155
17269TIP3   OH273221   1.892   2.370   2.806 -0.2896  0.5558  0.1995
17269TIP3    H173222   1.964   2.307   2.806 -1.7769 -1.2943 -1.1893
17269TIP3    H273223   1.842   2.349   2.886  0.6503  1.8204  1.1493
17270TIP3   OH273224   6.638   3.153  16.508  0.3539  0.1238 -0.6682
17270TIP3    H173225   6.613   3.239  16.474  0.2778 -0.2500 -1.5862
17270TIP3    H273226   6.734   3.154  16.509  0.3721 -0.1182 -1.5948
17271TIP3   OH273227   0.731   1.226  12.786  0.4196  0.2518  0.4595
17271TIP3    H173228   0.642   1.220  12.752  0.3006  0.0815  0.8048
17271TIP3    H273229   0.784   1.249  12.709 -0.0051  0.9677  0.3751
17272TIP3   OH273230   0.240   0.085   1.664  0.1070  0.3957  0.3180
17272TIP3    H173231   0.239   0.178   1.688  0.8520  0.4871  0.0321
17272TIP3    H273232   0.150   0.066   1.637  0.2524  1.4010 -0.9736
17273TIP3   OH273233   0.864   1.228   0.451 -0.0207  0.3158  0.7142
17273TIP3    H173234   0.877   1.170   0.376  0.7353 -0.7448  1.6220
17273TIP3    H273235   0.877   1.316   0.416  0.2098 -0.1505 -0.4197
17274TIP3   OH273236   4.228   5.127  16.905 -0.6015  0.1766 -0.5432
17274TIP3    H173237   4.199   5.122  16.814 -0.6537 -0.0723 -0.5127
17274TIP3    H273238   4.186   5.053  16.948 -0.7245  0.3992 -0.2735
17275TIP3   OH273239   3.937   6.354  15.601  0.0029  0.0015 -0.7426
17275TIP3    H173240   3.859   6.395  15.563 -1.3362 -2.1448 -0.4904
17275TIP3    H273241   3.994   6.338  15.526 -0.1288  0.8731 -1.0444
17276TIP3   OH273242   4.586   1.620  14.682 -0.4147  0.1067  0.7747
17276TIP3    H173243   4.512   1.592  14.628 -0.6309  0.7768  0.7103
17276TIP3    H273244   4.563   1.709  14.708  0.6212  0.5289  0.2871
17277TIP3   OH273245   5.809   2.899   1.619 -0.6853 -0.9968  0.3536
17277TIP3    H173246   5.717   2.902   1.593 -0.8995  4.2213  0.7247
17277TIP3    H273247   5.807   2.872   1.710 -1.7100 -1.8749  0.0948
17278TIP3   OH273248   1.838   5.347   4.043 -0.1852 -0.1357 -0.4796
17278TIP3    H173249   1.924   5.388   4.045 -0.1926  0.0156  2.7762
17278TIP3    H273250   1.849   5.266   4.094 -2.3386  1.0098  2.0564
17279TIP3   OH273251   5.591   0.081  11.174 -0.3249 -0.4669 -0.1416
17279TIP3    H173252   5.514   0.111  11.222 -0.6882  0.3223 -1.1793
17279TIP3    H273253   5.556   0.030  11.101  0.0877  0.5130 -1.0402
17280TIP3   OH273254   6.261   6.059   0.392 -0.3412 -0.2895  0.3789
17280TIP3    H173255   6.219   6.004   0.458  0.7747 -0.9910  0.5243
17280TIP3    H273256   6.349   6.076   0.426  0.1974 -0.5210 -0.8395
17281TIP3   OH273257   5.035   1.251  15.246  0.4555 -0.1384 -0.0068
17281TIP3    H173258   4.944   1.228  15.264  0.1180  1.6349  0.7177
17281TIP3    H273259   5.038   1.346  15.257  2.7589 -0.3361  1.6885
17282TIP3   OH273260   2.872   3.287   1.770 -0.5677  0.0968  0.1097
17282TIP3    H173261   2.884   3.349   1.842 -0.8165 -1.1366  1.2613
17282TIP3    H273262   2.815   3.332   1.708 -1.9556  0.5040  1.6166
17283TIP3   OH273263   6.335   4.199  11.801 -0.4137 -0.2497  0.1184
17283TIP3    H173264   6.418   4.158  11.827 -0.7544 -2.2313 -1.6593
17283TIP3    H273265   6.360   4.262  11.733 -0.2921 -0.6090 -0.1790
17284TIP3   OH273266   4.711   2.235  12.132 -0.2398  0.3504  0.4945
17284TIP3    H173267   4.649   2.304  12.108  0.1004  0.5297  0.1057
17284TIP3    H273268   4.662   2.177  12.189 -0.9124  0.2337 -0.1949
17285TIP3   OH273269   5.461   5.005  14.035  0.0424 -0.5078 -0.1473
17285TIP3    H173270   5.413   4.989  14.116  0.0402  1.2389  0.2229
17285TIP3    H273271   5.394   5.001  13.967 -0.3856  0.4028  0.2072
17286TIP3   OH273272   1.860   3.914  12.114 -0.0905  0.4135 -0.1174
17286TIP3    H173273   1.843   3.875  12.028  0.3980 -0.0866  0.0054
17286TIP3    H273274   1.903   3.997  12.095 -3.4725  2.2494 -0.4842
17287TIP3   OH273275   6.570   2.532  11.255 -0.4138  0.2257 -0.2110
17287TIP3    H173276   6.643   2.565  11.203 -0.0321  0.2927  0.3719
17287TIP3    H273277   6.492   2.562  11.208 -0.0737  0.4454 -0.6421
17288TIP3   OH273278   1.606   4.186   4.359 -0.1155 -0.1833  0.6662
17288TIP3    H173279   1.540   4.252   4.379 -0.4956 -0.8663  1.7252
17288TIP3    H273280   1.557   4.113   4.321 -0.1833 -1.1491  2.4778
17289TIP3   OH273281   4.609   0.123  16.032  0.0103 -0.4669  0.4183
17289TIP3    H173282   4.539   0.138  15.969 -0.1639  0.3644  0.7989
17289TIP3    H273283   4.686   0.106  15.978 -0.1468  0.2027 -0.0226
17290TIP3   OH273284   4.425   3.349  11.662  0.7286  0.2810 -0.3855
17290TIP3    H173285   4.451   3.262  11.691  0.8764  0.5710  0.3832
17290TIP3    H273286   4.410   3.398  11.743  1.2330  1.1458 -0.7962
17291TIP3   OH273287   5.561   6.216  17.107 -0.0847  0.0481  0.0411
17291TIP3    H173288   5.625   6.247  17.171  0.6973  3.9020 -2.2417
17291TIP3    H273289   5.477   6.225  17.151  0.5588  0.6744  1.1989
17292TIP3   OH273290   1.673   5.708   4.070  0.1304  0.4133 -0.2138
17292TIP3    H173291   1.641   5.652   3.999 -0.0798  0.1030  0.1233
17292TIP3    H273292   1.759   5.737   4.040  0.5481 -0.6462 -0.1008
17293TIP3   OH273293   3.552   0.516   5.871  0.4637  0.0644 -0.4868
17293TIP3    H173294   3.557   0.427   5.908  1.9083  0.3931  0.1706
17293TIP3    H273295   3.611   0.515   5.797 -1.2436 -0.1328 -1.9143
17294TIP3   OH273296   6.156   0.256  11.278 -0.0136 -0.5157 -0.2459
17294TIP3    H173297   6.201   0.198  11.216 -0.7538 -1.7672  0.3479
17294TIP3    H273298   6.189   0.230  11.364 -1.2824 -0.9382  0.1304
17295TIP3   OH273299   3.633   1.316  15.006 -0.2980 -0.2895 -0.6035
17295TIP3    H173300   3.549   1.285  15.041 -0.1912 -1.0212 -0.9920
17295TIP3    H273301   3.614   1.338  14.915 -0.3717  0.8135 -0.3378
17296TIP3   OH273302   5.647   3.838   4.438  0.9234 -0.1756 -0.2577
17296TIP3    H173303   5.706   3.900   4.481  0.3171 -0.0852  0.4722
17296TIP3    H273304   5.603   3.890   4.371  0.1080  0.3097  0.6303
17297TIP3   OH273305   4.974   0.777   4.882  0.1476 -0.4671  0.2487
17297TIP3    H173306   4.983   0.686   4.855 -0.7321 -0.2867 -0.6959
17297TIP3    H273307   4.952   0.824   4.802  2.6949  0.9532  0.2705
17298TIP3   OH273308   2.659   0.793   1.954 -0.3605  0.1471 -0.0065
17298TIP3    H173309   2.653   0.851   2.030  1.2322 -0.3759  0.5432
17298TIP3    H273310   2.678   0.852   1.881 -1.2883  0.5795  0.0783
17299TIP3   OH273311   3.306   0.928  11.769  0.1890 -0.5546 -0.4013
17299TIP3    H173312   3.371   0.982  11.813 -1.6159  2.0248 -0.6542
17299TIP3    H273313   3.357   0.865  11.718  2.5584  2.0636 -1.5433
17300TIP3   OH273314   2.837   2.869   2.429  0.1653  0.0473  0.7897
17300TIP3    H173315   2.845   2.808   2.355  0.5237 -0.4377  1.2189
17300TIP3    H273316   2.772   2.933   2.400  0.6025  0.1019 -0.1071
17301TIP3   OH273317   5.232   4.647  13.109  0.2379 -0.2673  0.0015
17301TIP3    H173318   5.251   4.571  13.164 -0.2903 -0.8101 -0.5569
17301TIP3    H273319   5.209   4.610  13.024 -4.5598  0.1372  0.8192
17302TIP3   OH273320   6.358   3.394  17.099 -0.4849 -0.5769  0.5855
17302TIP3    H173321   6.393   3.395  17.188 -0.3430 -0.4700  0.5314
17302TIP3    H273322   6.392   3.475  17.060 -1.0386 -0.3242  0.6233
17303TIP3   OH273323   6.460   2.836   6.760 -0.0344  0.2875  0.9220
17303TIP3    H173324   6.494   2.915   6.801 -0.4250  0.8079  0.2469
17303TIP3    H273325   6.392   2.805   6.820  0.0814  0.4887  1.1594
17304TIP3   OH273326   5.906   4.671   2.876 -0.2543 -0.1418 -0.3569
17304TIP3    H173327   5.920   4.671   2.970  3.2737 -0.5734 -0.7505
17304TIP3    H273328   5.936   4.758   2.848 -1.3395  0.0079 -1.0801
17305TIP3   OH273329   2.192   1.514  17.141  0.2033  0.1148 -0.1779
17305TIP3    H173330   2.185   1.594  17.090  0.7917  0.8665  0.8840
17305TIP3    H273331   2.254   1.535  17.211  1.8873 -1.8386 -0.9764
17306TIP3   OH273332   1.200   0.448   1.025 -0.0630  0.1562  0.4401
17306TIP3    H173333   1.227   0.361   1.054  1.3687  1.3001  2.8617
17306TIP3    H273334   1.280   0.501   1.029 -0.6488  1.3885 -2.0533
17307TIP3   OH273335   4.848   3.721   1.663 -0.1724 -0.4458  0.5403
17307TIP3    H173336   4.926   3.685   1.705 -1.7539 -1.5433  2.7492
17307TIP3    H273337   4.847   3.682   1.576  0.9929 -1.5461  0.9873
17308TIP3   OH273338   5.392   4.066  16.506 -0.0027  0.3501 -0.1743
17308TIP3    H173339   5.301   4.070  16.477 -0.4123  0.0021  1.0143
17308TIP3    H273340   5.396   4.128  16.579 -0.6635 -3.2564  3.2677
17309TIP3   OH273341   3.137   1.891  14.171 -0.1739  0.2480 -0.2958
17309TIP3    H173342   3.045   1.895  14.146 -0.4780 -1.7541  0.2988
17309TIP3    H273343   3.136   1.889  14.267  0.5440  0.8859 -0.2616
17310TIP3   OH273344   1.419   2.986   5.390 -0.3458  0.5368  0.2801
17310TIP3    H173345   1.367   2.949   5.461 -0.0123 -1.1243 -0.2923
17310TIP3    H273346   1.363   2.979   5.313  0.7456 -1.6458 -0.4295
17311TIP3   OH273347   2.686   5.962  14.493 -0.6257  0.2520  0.3591
17311TIP3    H173348   2.763   6.017  14.479  0.2439  0.4039  4.4766
17311TIP3    H273349   2.611   6.022  14.485 -0.0348  0.9701  0.1395
17312TIP3   OH273350   5.832   0.768   5.278  0.0820  0.5660  0.3271
17312TIP3    H173351   5.856   0.788   5.369 -1.2921  0.2649  0.7795
17312TIP3    H273352   5.803   0.676   5.281  0.7464  0.3149 -0.5694
17313TIP3   OH273353   6.673   4.562   5.740  0.3021  0.6308 -0.1570
17313TIP3    H173354   6.635   4.476   5.760  1.9633  0.3258  2.1072
17313TIP3    H273355   6.765   4.544   5.720  0.4222  1.7817 -0.7214
17314TIP3   OH273356   3.135   1.546  13.476  0.3769 -0.0347  0.2311
17314TIP3    H173357   3.118   1.558  13.383  1.4450 -2.3203 -0.3368
17314TIP3    H273358   3.096   1.461  13.496 -0.5890  0.7922  2.1124
17315TIP3   OH273359   2.948   2.922  13.343 -0.0544  0.1636 -0.4704
17315TIP3    H173360   2.896   2.842  13.339  2.3062 -1.5273 -0.1636
17315TIP3    H273361   3.001   2.921  13.263  0.6837  0.9093 -0.0148
17316TIP3   OH273362   0.821   3.649   5.353  0.3805 -0.2577 -0.3476
17316TIP3    H173363   0.822   3.579   5.288 -1.2993  0.3112 -1.0323
17316TIP3    H273364   0.912   3.679   5.357  0.6179 -0.6385 -2.0900
17317TIP3   OH273365   3.738   4.243  12.601  0.0465  0.1199  0.1574
17317TIP3    H173366   3.664   4.221  12.658  0.9549 -0.3220  1.2064
17317TIP3    H273367   3.776   4.322  12.641 -0.7973  1.3155 -1.2999
17318TIP3   OH273368   4.920   0.262   4.351  0.3483  0.0468 -0.2304
17318TIP3    H173369   4.976   0.203   4.402  0.7093  0.6412  0.0784
17318TIP3    H273370   4.876   0.205   4.288  1.1448 -0.4652 -0.3442
17319TIP3   OH273371   4.397   0.949   6.220  0.8453 -0.3482  0.6260
17319TIP3    H173372   4.382   0.898   6.300  0.6540 -1.7532 -0.2826
17319TIP3    H273373   4.396   0.885   6.150 -2.0563  1.1230 -0.8891
17320TIP3   OH273374   5.931   1.945  15.112 -0.3277 -0.2463  0.0605
17320TIP3    H173375   5.889   1.927  15.196 -0.9076  1.5248  0.1878
17320TIP3    H273376   5.924   1.862  15.063 -1.2956 -0.8616  1.1885
17321TIP3   OH273377   5.865   3.854  17.180 -0.2236 -0.3366 -0.8235
17321TIP3    H173378   5.919   3.924  17.217 -0.4011  0.5620 -2.1809
17321TIP3    H273379   5.926   3.802  17.128 -0.5570  0.4973 -2.1041
17322TIP3   OH273380   4.157   1.243   1.950  0.2074 -0.0988 -0.2888
17322TIP3    H173381   4.150   1.273   1.859 -0.6705 -2.2078 -0.9762
17322TIP3    H273382   4.092   1.295   1.997 -0.2925  0.0872 -1.1494
17323TIP3   OH273383   3.532   0.682   4.423  0.0087  0.3708 -0.2304
17323TIP3    H173384   3.604   0.621   4.406  1.1967  1.6836 -0.2172
17323TIP3    H273385   3.533   0.694   4.517 -1.0744 -0.5517 -0.0893
17324TIP3   OH273386   2.107   6.167  17.130  0.0682 -0.8125  0.1401
17324TIP3    H173387   2.032   6.116  17.160 -0.9026  0.4928  0.0336
17324TIP3    H273388   2.145   6.203  17.210 -0.1688 -0.4693  0.0978
17325TIP3   OH273389   6.219   1.866  11.304  0.4001 -0.7239 -0.2472
17325TIP3    H173390   6.166   1.940  11.335  0.7602 -0.1931 -0.8883
17325TIP3    H273391   6.218   1.804  11.377 -0.8588 -0.5953 -0.1346
17326TIP3   OH273392   3.210   5.948   4.200  0.7496 -0.0281  0.0215
17326TIP3    H173393   3.259   5.969   4.120  1.7394 -0.2338  0.5527
17326TIP3    H273394   3.218   5.853   4.208  0.1118 -0.0860  0.0371
17327TIP3   OH273395   6.399   3.935  11.257 -0.0074 -0.2235 -0.3861
17327TIP3    H173396   6.414   3.997  11.328  1.8933 -0.8813 -0.1549
17327TIP3    H273397   6.410   3.987  11.177  1.2793 -0.1641 -0.1947
17328TIP3   OH273398   4.221   3.371   5.522 -0.2801 -0.1695  0.4603
17328TIP3    H173399   4.289   3.429   5.488  1.3469 -2.0594  0.2433
17328TIP3    H273400   4.254   3.345   5.608  0.3622 -2.6513 -0.4392
17329TIP3   OH273401   6.251   6.385  14.319 -0.3279 -0.1254  0.4007
17329TIP3    H173402   6.286   6.313  14.371  1.6886  0.3497 -0.2150
17329TIP3    H273403   6.207   6.342  14.246  0.2144 -0.7528  0.4303
17330TIP3   OH273404   1.736   2.948  11.057 -0.0807  0.1163  0.4327
17330TIP3    H173405   1.750   2.920  10.967 -0.2183  0.9465  0.1433
17330TIP3    H273406   1.805   3.013  11.072 -0.5261  0.5380  0.6718
17331TIP3   OH273407   4.143   2.313  15.098 -0.1627 -0.6927  0.3916
17331TIP3    H173408   4.175   2.227  15.068 -0.0978 -0.6446  0.3220
17331TIP3    H273409   4.221   2.368  15.099 -0.2476 -0.5685  0.1962
17332TIP3   OH273410   4.732   6.327  11.663  0.4228 -0.2664 -0.0562
17332TIP3    H173411   4.685   6.299  11.741  0.6035  0.0758  0.1783
17332TIP3    H273412   4.805   6.378  11.696  2.4178 -2.7867 -0.2898
17333TIP3   OH273413   5.546   6.720  12.580 -0.1183  0.8800  0.3725
17333TIP3    H173414   5.559   6.723  12.674  0.6148 -2.3836  0.4833
17333TIP3    H273415   5.626   6.680  12.545 -0.6979  1.2554 -1.5414
17334TIP3   OH273416   4.090   4.591   0.720  0.5765 -0.2036 -0.0189
17334TIP3    H173417   4.077   4.676   0.764  1.5741 -1.4463  2.9514
17334TIP3    H273418   4.176   4.598   0.680  0.7255  0.1368  0.3560
17335TIP3   OH273419   4.902   1.478   4.180 -0.2941 -1.1316 -0.2964
17335TIP3    H173420   4.865   1.506   4.264 -1.1324 -0.0336 -0.9938
17335TIP3    H273421   4.830   1.431   4.137 -0.4729 -0.1771 -1.0937
17336TIP3   OH273422   5.506   6.274   6.220 -0.4765 -0.1754 -0.2641
17336TIP3    H173423   5.487   6.215   6.293 -0.2047 -0.2302 -0.2362
17336TIP3    H273424   5.422   6.284   6.175 -0.8103  0.4179  0.4636
17337TIP3   OH273425   5.378   6.191  14.733 -0.1299 -0.2845 -0.2740
17337TIP3    H173426   5.300   6.223  14.687 -1.0579  0.0143  1.4209
17337TIP3    H273427   5.379   6.097  14.716 -1.3809 -0.4371  0.3988
17338TIP3   OH273428   0.348   1.125  11.558  0.1541 -0.2944  0.0684
17338TIP3    H173429   0.298   1.053  11.596  1.7274 -0.9766  0.9261
17338TIP3    H273430   0.319   1.128  11.466 -0.1623 -1.8083  0.0931
17339TIP3   OH273431   2.023   0.196   0.851  0.1740  0.1530  0.6310
17339TIP3    H173432   1.972   0.249   0.789  0.6066 -1.1071 -0.8671
17339TIP3    H273433   2.043   0.256   0.923 -0.2125  1.7346 -0.5204
17340TIP3   OH273434   0.828   6.401  12.533  0.2916 -0.3109  0.2354
17340TIP3    H173435   0.802   6.405  12.441 -2.2291  0.1824  0.8806
17340TIP3    H273436   0.820   6.308  12.556 -3.0349  0.0161  0.8662
17341TIP3   OH273437   4.802   5.306  12.877 -0.6439 -0.7951 -0.0027
17341TIP3    H173438   4.750   5.351  12.811 -1.3411 -0.9071  0.4667
17341TIP3    H273439   4.740   5.282  12.946  0.3071  0.7178  1.4764
17342TIP3   OH273440   1.917   6.104  17.368  0.2793  0.0249 -0.1328
17342TIP3    H173441   1.988   6.141  17.420  0.6539 -0.4930 -0.2709
17342TIP3    H273442   1.901   6.018  17.408 -2.2840  1.2652  1.8043
17343TIP3   OH273443   3.363   4.709   4.025 -0.0839 -0.4345  0.7953
17343TIP3    H173444   3.390   4.641   3.963  0.2124  1.3069 -1.0703
17343TIP3    H273445   3.340   4.660   4.104 -0.3446 -2.7506 -0.5988
17344TIP3   OH273446   5.635   4.053  13.471  0.1258  0.9315  0.1058
17344TIP3    H173447   5.676   4.104  13.401  2.1845 -0.7548 -0.0130
17344TIP3    H273448   5.552   4.023  13.433 -0.2202  2.4978 -0.4881
17345TIP3   OH273449   5.117   1.509   2.374 -0.2122 -0.0284 -0.4649
17345TIP3    H173450   5.130   1.533   2.283  1.2700  0.1018 -0.2472
17345TIP3    H273451   5.118   1.413   2.374 -0.1940 -0.0278 -0.5769
17346TIP3   OH273452   1.342   4.865   0.311  0.4065  0.0312 -0.5371
17346TIP3    H173453   1.344   4.772   0.332 -1.0895  0.0996  0.0443
17346TIP3    H273454   1.389   4.907   0.383 -1.0471 -0.0991  0.5348
17347TIP3   OH273455   3.461   5.869   2.452  0.2033 -0.0519 -0.7922
17347TIP3    H173456   3.386   5.846   2.398 -1.4559  1.4519  0.7542
17347TIP3    H273457   3.525   5.906   2.391 -0.7665 -0.2847 -1.9679
17348TIP3   OH273458   5.503   6.596   4.412 -0.6503  0.0591  0.2225
17348TIP3    H173459   5.593   6.569   4.396 -0.6293  0.8213 -1.0488
17348TIP3    H273460   5.487   6.666   4.349 -2.2436 -0.2973  0.1874
17349TIP3   OH273461   3.876   2.339  12.510  0.1934 -0.2432 -0.2450
17349TIP3    H173462   3.807   2.274  12.525  1.4464 -1.2595  1.4372
17349TIP3    H273463   3.876   2.394  12.588  0.7908  0.2254 -0.5586
17350TIP3   OH273464   0.366   3.666  16.357 -0.5263 -0.1580  0.0798
17350TIP3    H173465   0.397   3.576  16.369  1.9093  0.7160  0.9229
17350TIP3    H273466   0.365   3.679  16.262 -0.6755 -0.9938 -0.0391
17351TIP3   OH273467   4.228   5.638  16.614  0.5790 -0.4148 -0.7160
17351TIP3    H173468   4.305   5.661  16.562  1.2982 -0.7002  0.1880
17351TIP3    H273469   4.192   5.721  16.643  0.0220 -0.2421 -1.8666
17352TIP3   OH273470   3.325   6.467   6.454 -0.0639 -0.1855 -0.0455
17352TIP3    H173471   3.236   6.449   6.483 -0.2090 -1.1906 -1.0426
17352TIP3    H273472   3.318   6.550   6.407 -0.4622 -0.2106 -0.0365
17353TIP3   OH273473   6.140   6.280   1.503  0.8979 -0.0778  0.2960
17353TIP3    H173474   6.174   6.365   1.531  0.6583  0.3155 -0.5605
17353TIP3    H273475   6.127   6.231   1.584  0.7631  0.8110  0.8198
17354TIP3   OH273476   4.391   6.298  15.345 -0.0009  0.2355  0.9847
17354TIP3    H173477   4.437   6.376  15.375  0.1368  1.3541 -1.8365
17354TIP3    H273478   4.456   6.228  15.355  1.7445  1.4301 -1.0439
17355TIP3   OH273479   6.169   6.390  12.693  0.5949  0.1515  0.8481
17355TIP3    H173480   6.178   6.299  12.718 -0.1761 -0.7506 -1.8356
17355TIP3    H273481   6.248   6.410  12.643  1.4208  1.4364  2.5651
17356TIP3   OH273482   4.063   0.864  14.927  0.3437  0.6345 -0.6317
17356TIP3    H173483   4.088   0.936  14.985  1.5568  0.7691 -1.2870
17356TIP3    H273484   3.989   0.822  14.972 -1.0631  2.8701 -0.7023
17357TIP3   OH273485   0.629   2.592   2.466 -0.2011 -0.3666  0.2143
17357TIP3    H173486   0.633   2.497   2.467  1.6659 -0.3169  1.2540
17357TIP3    H273487   0.719   2.621   2.455 -0.5848  1.2781  0.9820
17358TIP3   OH273488   3.900   5.766   5.676 -0.3039  0.0538 -0.0085
17358TIP3    H173489   3.816   5.783   5.634  1.1158  0.9069 -2.7662
17358TIP3    H273490   3.888   5.683   5.721 -1.5567 -1.9693 -3.6693
17359TIP3   OH273491   3.171   5.915   5.771  0.1203 -0.7037 -0.3049
17359TIP3    H173492   3.127   5.979   5.827 -0.8411 -0.6758 -1.0730
17359TIP3    H273493   3.100   5.866   5.730  0.7798 -0.6187 -1.6190
17360TIP3   OH273494   1.444   3.430  16.517 -0.3508  0.1798  0.1593
17360TIP3    H173495   1.407   3.431  16.429 -0.6298 -1.9868  0.1816
17360TIP3    H273496   1.370   3.404  16.573  0.1559  0.1596  0.8352
17361TIP3   OH273497   3.871   1.993  15.550  0.2489 -0.0522  0.3460
17361TIP3    H173498   3.835   1.909  15.521  0.9369 -1.5597  3.4664
17361TIP3    H273499   3.964   1.975  15.564  0.2877  1.0539  1.6271
17362TIP3   OH273500   5.015   1.069   3.968  0.0197  0.3488 -0.2795
17362TIP3    H173501   4.972   0.983   3.974 -1.5021  1.1626  1.4176
17362TIP3    H273502   5.066   1.077   4.048  1.2235  0.5249 -1.0349
17363TIP3   OH273503   0.570   2.211  15.737  0.3726  0.0348  0.2603
17363TIP3    H173504   0.512   2.282  15.711  0.0327  0.4006  1.9126
17363TIP3    H273505   0.614   2.243  15.816  1.6344 -0.8653 -0.0319
17364TIP3   OH273506   1.083   1.525  17.239  0.5588  0.1461 -0.3400
17364TIP3    H173507   1.043   1.611  17.248 -2.0009 -0.7649 -1.9398
17364TIP3    H273508   1.173   1.543  17.211 -0.2345  2.3200 -1.7754
17365TIP3   OH273509   1.659   4.403   1.466 -0.4271 -0.0738  0.0662
17365TIP3    H173510   1.754   4.398   1.458 -0.2626 -1.0837  1.9266
17365TIP3    H273511   1.626   4.335   1.407 -0.0114  0.2973 -0.6046
17366TIP3   OH273512   3.779   1.527  13.912  0.0525  0.4080  0.5189
17366TIP3    H173513   3.694   1.561  13.883  0.1239  0.3002  0.1741
17366TIP3    H273514   3.821   1.496  13.831  0.0140 -0.4384  0.8141
17367TIP3   OH273515   5.029   3.527  17.008  0.4020 -0.2947  0.0499
17367TIP3    H173516   5.064   3.478  17.083  1.0754 -0.7807 -0.5651
17367TIP3    H273517   4.938   3.546  17.032 -0.5109 -3.4364 -0.3954
17368TIP3   OH273518   0.328   4.372  15.917  0.1509 -0.3351 -0.0841
17368TIP3    H173519   0.352   4.307  15.983  1.0201 -0.8807 -0.9149
17368TIP3    H273520   0.326   4.323  15.835  0.7386  0.6726 -0.7161
17369TIP3   OH273521   1.314   4.694   3.564  1.1869 -0.3492  0.2243
17369TIP3    H173522   1.303   4.761   3.632  1.2584  0.8665 -0.9123
17369TIP3    H273523   1.391   4.722   3.514  1.2755 -1.3376 -0.2270
17370TIP3   OH273524   1.399   4.900   6.448 -0.1196  0.3566  0.1683
17370TIP3    H173525   1.456   4.896   6.525  0.5302  0.9967 -0.2700
17370TIP3    H273526   1.327   4.839   6.468  0.5683 -0.2485  0.8474
17371TIP3   OH273527   5.573   4.142   1.401  0.5251  0.4913 -0.0557
17371TIP3    H173528   5.549   4.222   1.447  2.9992  1.2103  0.1322
17371TIP3    H273529   5.653   4.112   1.444  1.1147 -0.6089 -1.7978
17372TIP3   OH273530   1.512   1.061   5.466  0.1661 -0.1149 -1.0449
17372TIP3    H173531   1.506   1.083   5.559 -0.8323 -0.6201 -0.9759
17372TIP3    H273532   1.426   1.024   5.445  1.0579 -1.9339 -1.6603
17373TIP3   OH273533   2.715   0.716  13.879  0.1430 -0.3092  0.2929
17373TIP3    H173534   2.650   0.786  13.878 -1.3772 -1.6723  0.2133
17373TIP3    H273535   2.707   0.676  13.966 -0.4612 -1.6405 -0.3362
17374TIP3   OH273536   5.017   0.748   2.245  0.6178 -0.7360 -0.1936
17374TIP3    H173537   4.983   0.658   2.238 -0.3775 -0.3261 -0.8673
17374TIP3    H273538   5.038   0.772   2.155 -1.5657  0.6032 -0.4103
17375TIP3   OH273539   5.270   1.909   2.727  0.1716  0.2550 -0.4577
17375TIP3    H173540   5.280   1.917   2.632 -1.3864  0.2693 -0.6468
17375TIP3    H273541   5.337   1.847   2.754  0.1442 -0.3277 -1.6827
17376TIP3   OH273542   0.534   0.804   5.057  0.1794  0.7283 -0.2659
17376TIP3    H173543   0.463   0.865   5.076  1.3576  2.1723 -0.3544
17376TIP3    H273544   0.613   0.850   5.085  1.1907 -0.3671 -1.2342
17377TIP3   OH273545   1.268   3.714  14.152  0.6315 -0.5647 -0.1281
17377TIP3    H173546   1.309   3.744  14.070 -0.3355 -0.2748 -0.5181
17377TIP3    H273547   1.257   3.793  14.204 -1.1846 -0.3133 -0.8279
17378TIP3   OH273548   5.413   6.072   0.882  0.5912 -0.9643  0.2465
17378TIP3    H173549   5.506   6.049   0.879  0.7777 -0.3792  1.0265
17378TIP3    H273550   5.413   6.167   0.894 -0.1098 -0.9305 -0.0000
17379TIP3   OH273551   2.777   4.142  14.769  0.1274 -0.0049 -0.1214
17379TIP3    H173552   2.724   4.066  14.792 -0.3224 -0.3144 -2.0168
17379TIP3    H273553   2.714   4.207  14.738  0.6233  0.6791  0.2794
17380TIP3   OH273554   1.860   2.242   5.591  0.1405  0.5307 -0.6287
17380TIP3    H173555   1.946   2.271   5.562  0.1439 -0.2925 -1.4608
17380TIP3    H273556   1.871   2.150   5.614 -0.8261 -0.0179 -2.1912
17381TIP3   OH273557   5.749   2.330   0.106  0.0173 -0.2244 -0.5998
17381TIP3    H173558   5.772   2.423   0.105 -0.6913 -0.0437 -1.2482
17381TIP3    H273559   5.833   2.285   0.092  0.1712  0.3749 -1.7514
17382TIP3   OH273560   0.136   5.533   4.371 -0.1431 -0.2346 -0.0360
17382TIP3    H173561   0.215   5.569   4.411  0.3309 -0.8263 -0.4371
17382TIP3    H273562   0.122   5.450   4.416  0.4235 -0.9359 -1.1084
17383TIP3   OH273563   1.176   2.002   0.739  0.2356 -0.1889  0.2248
17383TIP3    H173564   1.206   2.080   0.784 -2.4238  0.6255  0.7940
17383TIP3    H273565   1.157   1.940   0.809  0.2596 -0.5360 -0.0727
17384TIP3   OH273566   6.289   2.687  17.257  0.2590 -0.1977 -0.2715
17384TIP3    H173567   6.251   2.653  17.338  1.9945 -0.3334  0.5108
17384TIP3    H273568   6.289   2.782  17.269 -0.4449 -0.1494 -0.5765
17385TIP3   OH273569   5.044   6.713  16.085  0.6227  0.4644 -0.2438
17385TIP3    H173570   5.116   6.733  16.026 -0.1866 -0.9645 -1.8065
17385TIP3    H273571   5.006   6.632  16.051 -0.8592  0.4161  1.3400
17386TIP3   OH273572   3.716   5.679  13.057  0.2286  0.0678  0.4120
17386TIP3    H173573   3.802   5.719  13.069  0.5693  0.0236 -1.5444
17386TIP3    H273574   3.675   5.732  12.988 -0.0127 -1.8443 -0.9869
17387TIP3   OH273575   4.005   6.175   4.660 -0.5632  0.1032 -0.0054
17387TIP3    H173576   4.061   6.150   4.587 -2.1859 -0.7498 -1.0149
17387TIP3    H273577   4.065   6.178   4.736  0.7260 -1.3675 -0.9028
17388TIP3   OH273578   0.088   1.745  17.009 -0.0658 -0.5130 -0.3293
17388TIP3    H173579   0.013   1.713  16.959 -0.2562 -0.0013 -0.3763
17388TIP3    H273580   0.060   1.831  17.041  0.5231 -0.2988 -0.3902
17389TIP3   OH273581   5.525   0.773   0.396 -0.7616 -0.4641  0.1684
17389TIP3    H173582   5.528   0.692   0.345  1.5931  1.0142 -2.3052
17389TIP3    H273583   5.433   0.800   0.392 -1.0337 -1.4748 -1.6300
17390TIP3   OH273584   4.710   4.495   4.438  0.1796  0.0264  0.2405
17390TIP3    H173585   4.675   4.584   4.447 -0.3957 -0.1321 -0.3640
17390TIP3    H273586   4.759   4.497   4.356 -1.1033 -0.6048 -0.5753
17391TIP3   OH273587   2.660   3.622   5.060  0.8359  0.0716 -0.4079
17391TIP3    H173588   2.585   3.657   5.013 -0.3745 -1.2877  0.4141
17391TIP3    H273589   2.678   3.539   5.016  1.1101 -0.1562  0.1329
17392TIP3   OH273590   3.908   0.749   0.182 -0.3893  1.1427 -0.0541
17392TIP3    H173591   3.828   0.801   0.179 -0.4502  1.0071 -1.9297
17392TIP3    H273592   3.957   0.776   0.104  0.2956 -0.4755 -0.2237
17393TIP3   OH273593   0.975   4.793   3.141 -0.4933  0.0032  0.5909
17393TIP3    H173594   0.966   4.889   3.140 -0.1613  0.0603  1.9502
17393TIP3    H273595   1.036   4.775   3.213  0.7079 -1.1414 -0.6463
17394TIP3   OH273596   5.802   5.795   2.892 -0.5941  0.1188 -0.6997
17394TIP3    H173597   5.825   5.868   2.950 -0.8659 -1.1737  1.1526
17394TIP3    H273598   5.847   5.814   2.810  0.8133  1.4514  0.3178
17395TIP3   OH273599   3.499   3.023  14.843 -0.3784 -0.1278 -0.3411
17395TIP3    H173600   3.488   2.942  14.893 -1.0183 -0.9628 -1.7701
17395TIP3    H273601   3.475   3.093  14.904  1.8547 -0.8297  1.4978
17396TIP3   OH273602   5.663   3.457  16.063 -0.2140 -0.0025  0.0769
17396TIP3    H173603   5.749   3.430  16.029  0.8138  1.7909  1.0920
17396TIP3    H273604   5.682   3.489  16.152 -2.3779 -2.0711  1.3905
17397TIP3   OH273605   1.451   5.542   4.842 -0.4498  0.4163 -1.4713
17397TIP3    H173606   1.452   5.637   4.853 -1.7376  0.3341 -0.4894
17397TIP3    H273607   1.424   5.508   4.927  2.2039 -0.9765 -1.0988
17398TIP3   OH273608   6.368   6.108  16.505 -0.2118 -0.6667 -0.0553
17398TIP3    H173609   6.449   6.068  16.535  0.1038 -1.3150 -1.7071
17398TIP3    H273610   6.310   6.103  16.581  0.5995 -2.0784  0.5090
17399TIP3   OH273611   2.559   6.313  15.456 -0.0224  0.3529 -0.1414
17399TIP3    H173612   2.633   6.338  15.513  1.0529  2.2876 -2.2146
17399TIP3    H273613   2.598   6.254  15.392 -1.4040 -2.4797  1.4370
17400TIP3   OH273614   1.011   3.908   1.047  0.1612  0.3680 -0.1328
17400TIP3    H173615   0.961   3.835   1.012  0.2215 -0.1360  0.7912
17400TIP3    H273616   1.040   3.957   0.970 -0.9299  0.1287 -0.7079
17401TIP3   OH273617   4.555   2.599  16.330  0.5584 -0.2488 -0.3541
17401TIP3    H173618   4.531   2.692  16.325 -1.2932 -0.6588 -0.0725
17401TIP3    H273619   4.638   2.593  16.284  0.9382  1.6178 -0.0081
17402TIP3   OH273620   3.236   3.724  12.548  0.4561 -0.3255 -0.1957
17402TIP3    H173621   3.287   3.661  12.497  1.0264 -0.0857  0.0617
17402TIP3    H273622   3.240   3.805  12.497  0.9112 -0.1232  0.1575
17403TIP3   OH273623   1.438   0.761   3.654 -0.0874  0.5358 -0.3731
17403TIP3    H173624   1.529   0.750   3.681 -0.8492 -2.0368  1.5154
17403TIP3    H273625   1.400   0.821   3.718 -0.2017 -0.0943  0.1650
17404TIP3   OH273626   4.592   6.105  17.336 -0.0936  0.3311  0.6438
17404TIP3    H173627   4.663   6.107  17.272 -0.1592 -1.3520  0.4777
17404TIP3    H273628   4.636   6.106  17.421  0.0366  1.1047  0.5802
17405TIP3   OH273629   0.472   3.163   5.390 -0.1612 -0.3087 -0.4535
17405TIP3    H173630   0.553   3.117   5.413  0.1264  0.2102 -0.3845
17405TIP3    H273631   0.465   3.232   5.457  0.3872  0.8817 -1.5793
17406TIP3   OH273632   1.054   1.053   0.213 -0.1459 -0.2273  0.3086
17406TIP3    H173633   1.046   1.011   0.299  0.1077  2.0761  1.5667
17406TIP3    H273634   0.969   1.038   0.172  0.1914 -2.5500  0.3280
17407TIP3   OH273635   5.488   1.165   5.754 -0.3098 -0.4742  0.0901
17407TIP3    H173636   5.422   1.097   5.759  0.5480 -1.2811  0.8613
17407TIP3    H273637   5.538   1.157   5.835  1.9419 -1.1694 -1.2562
17408TIP3   OH273638   3.782   4.525  15.363 -0.4089 -0.6643 -0.3410
17408TIP3    H173639   3.770   4.607  15.313  1.9969 -2.2017 -3.8538
17408TIP3    H273640   3.812   4.554  15.449 -1.1248  2.1589 -0.9236
17409TIP3   OH273641   3.106   4.327  14.746  0.2929 -0.6047  0.2620
17409TIP3    H173642   3.071   4.258  14.803 -1.5261 -0.1324 -0.2228
17409TIP3    H273643   3.029   4.377  14.720  1.2640  0.0260 -1.5211
17410TIP3   OH273644   6.304   5.815   3.326 -0.4782  0.0649  0.0118
17410TIP3    H173645   6.259   5.779   3.401  1.7753 -1.8894  0.5462
17410TIP3    H273646   6.293   5.750   3.257 -1.2579  1.1391 -0.9208
17411TIP3   OH273647   0.883   4.730  14.734  0.2749 -0.0517  0.0613
17411TIP3    H173648   0.931   4.713  14.653  1.0757  0.7479  0.3453
17411TIP3    H273649   0.791   4.728  14.708  0.4050 -2.1369 -0.3888
17412TIP3   OH273650   5.975   2.159   0.067 -0.2376  0.1793  0.1958
17412TIP3    H173651   6.064   2.192   0.052 -0.0815 -0.3190  0.0331
17412TIP3    H273652   5.985   2.064   0.073 -1.0012 -0.0789 -1.7450
17413TIP3   OH273653   6.065   0.228  13.293  0.1858 -0.6626  0.1547
17413TIP3    H173654   5.988   0.218  13.349 -0.1299  0.5488 -0.0400
17413TIP3    H273655   6.123   0.156  13.319 -1.2047 -1.9250 -0.0542
17414TIP3   OH273656   4.490   4.351  16.406  0.3218  0.6271 -0.8722
17414TIP3    H173657   4.412   4.310  16.445  0.9370  0.0854 -0.1916
17414TIP3    H273658   4.463   4.442  16.390 -0.7266  0.2420 -1.4555
17415TIP3   OH273659   1.922   5.830   4.698 -0.1334  0.6980  0.4051
17415TIP3    H173660   1.866   5.756   4.720 -0.0254 -0.5267 -2.9241
17415TIP3    H273661   1.991   5.828   4.764 -1.4580 -0.5843  1.8532
17416TIP3   OH273662   2.373   0.636  12.928 -0.2537 -0.4917 -0.0455
17416TIP3    H173663   2.342   0.571  12.992  2.0336 -0.8170  0.8004
17416TIP3    H273664   2.386   0.585  12.848 -1.3760 -0.4305 -0.2938
17417TIP3   OH273665   2.685   4.925  15.100 -0.4397  0.6395  0.3881
17417TIP3    H173666   2.670   5.018  15.121  1.1669  0.6280  1.7435
17417TIP3    H273667   2.716   4.887  15.181  2.2356 -0.3234 -0.9876
17418TIP3   OH273668   2.689   6.309  12.416  0.3264 -0.0306  0.7458
17418TIP3    H173669   2.656   6.396  12.394 -2.3246 -1.3023 -0.7606
17418TIP3    H273670   2.614   6.263  12.451  0.8649 -2.5840 -1.2118
17419TIP3   OH273671   3.104   4.900  14.995  0.1625 -0.1045  0.0676
17419TIP3    H173672   3.197   4.882  14.981  0.0751 -0.8630  0.4128
17419TIP3    H273673   3.062   4.815  14.990 -0.5344  0.2442 -0.1811
17420TIP3   OH273674   4.366   6.665   4.664 -0.4772  0.8073 -0.2778
17420TIP3    H173675   4.449   6.677   4.711 -0.1519 -0.1520 -0.5983
17420TIP3    H273676   4.299   6.685   4.730 -0.0201 -0.1227  0.5012
17421TIP3   OH273677   5.986   3.098  14.956 -0.1545 -0.3174 -0.2375
17421TIP3    H173678   5.898   3.123  14.985  0.3350 -0.9164  1.9624
17421TIP3    H273679   6.045   3.139  15.019  1.0273 -1.4440 -0.5658
17422TIP3   OH273680   3.613   6.621  11.529 -0.1258 -0.0463  0.2839
17422TIP3    H173681   3.533   6.607  11.578  1.7507  1.1612  4.1317
17422TIP3    H273682   3.618   6.716  11.518  0.3264 -0.1819 -0.8609
17423TIP3   OH273683   4.072   3.618  14.040  0.1139  0.6956 -0.4894
17423TIP3    H173684   4.112   3.603  13.955  2.0374  2.6417 -0.0079
17423TIP3    H273685   4.015   3.694  14.027 -0.7656  0.0754 -0.3599
17424TIP3   OH273686   5.182   5.139  16.373  0.5558 -0.1294 -0.4688
17424TIP3    H173687   5.240   5.114  16.445 -0.5335  0.1331  0.5320
17424TIP3    H273688   5.200   5.232  16.358 -0.0604  0.1270  0.3073
17425TIP3   OH273689   1.553   5.174   4.280 -0.3742  0.3243 -0.2306
17425TIP3    H173690   1.553   5.269   4.266  0.7503  0.2513 -0.8653
17425TIP3    H273691   1.638   5.156   4.320 -0.6341 -0.4002  0.0011
17426TIP3   OH273692   4.828   1.791  15.218 -0.2334 -0.4018 -0.0761
17426TIP3    H173693   4.747   1.831  15.249  0.4227  1.1835 -0.3299
17426TIP3    H273694   4.802   1.736  15.145 -1.1627 -0.4528  0.2846
17427TIP3   OH273695   3.582   6.264   5.156  0.4162  0.8064  0.1597
17427TIP3    H173696   3.605   6.246   5.247 -0.1104  1.0834  0.3543
17427TIP3    H273697   3.490   6.290   5.160  0.4611  1.0624 -0.4233
17428TIP3   OH273698   4.003   2.610   5.043 -0.0412  0.4297 -0.3495
17428TIP3    H173699   3.914   2.644   5.045 -0.2880 -0.2297  1.2906
17428TIP3    H273700   4.052   2.665   5.104  0.1478 -0.5005  0.3806
17429TIP3   OH273701   1.688   0.917  12.746 -0.3860 -0.6693 -0.0151
17429TIP3    H173702   1.632   0.924  12.669 -0.1752  2.2849 -0.0283
17429TIP3    H273703   1.628   0.922  12.820 -0.3760 -0.6864 -0.0054
17430TIP3   OH273704   4.785   1.456  14.578  0.0474 -0.4003 -0.9377
17430TIP3    H173705   4.814   1.465  14.487  0.7400  0.5593 -0.6345
17430TIP3    H273706   4.707   1.511  14.584 -0.4841 -1.1128 -1.1470
17431TIP3   OH273707   0.868   6.151  12.628  0.4535  0.0878  0.2159
17431TIP3    H173708   0.812   6.075  12.648 -1.3804  1.2344 -0.2816
17431TIP3    H273709   0.920   6.163  12.707 -0.0442 -1.0054  0.7401
17432TIP3   OH273710   5.677   1.948   5.664  0.3345 -0.0652 -0.3806
17432TIP3    H173711   5.708   2.034   5.635 -0.2592 -0.6566 -2.9866
17432TIP3    H273712   5.756   1.895   5.672  0.7163  0.6994  1.3518
17433TIP3   OH273713   6.002   5.030   5.741 -0.8286  0.1144 -0.2473
17433TIP3    H173714   6.057   4.995   5.671 -0.3370  0.4070 -0.0219
17433TIP3    H273715   6.056   5.099   5.781 -1.4510  0.5567 -0.1570
17434TIP3   OH273716   2.155   1.496   1.796  0.1779  0.6648 -0.5556
17434TIP3    H173717   2.067   1.534   1.803  0.1153  0.6708 -1.2989
17434TIP3    H273718   2.140   1.402   1.795  0.0740  0.6765 -1.8097
17435TIP3   OH273719   0.181   0.433   3.743  0.0592 -0.1560 -0.1590
17435TIP3    H173720   0.179   0.452   3.837 -1.1945 -0.2562 -0.1505
17435TIP3    H273721   0.203   0.517   3.702 -0.1219  0.0572  0.1803
17436TIP3   OH273722   3.772   0.560   2.861 -0.6019  0.0185  0.3089
17436TIP3    H173723   3.761   0.578   2.954 -2.8795  1.9920 -0.2405
17436TIP3    H273724   3.735   0.472   2.849  1.4194 -1.0528  1.4921
17437TIP3   OH273725   0.379   6.319  13.592 -0.0804 -0.1590 -0.5867
17437TIP3    H173726   0.392   6.224  13.601  0.8663  0.1027  1.3313
17437TIP3    H273727   0.463   6.357  13.618 -0.7382  1.2500 -0.4512
17438TIP3   OH273728   0.865   4.096   5.467  0.1043 -0.0604  0.0047
17438TIP3    H173729   0.809   4.166   5.433  1.1989  0.6201 -0.4538
17438TIP3    H273730   0.871   4.112   5.561 -3.4177 -2.2830  0.8169
17439TIP3   OH273731   2.069   6.113   2.252 -0.2139  0.2723 -0.1456
17439TIP3    H173732   2.162   6.121   2.231  0.2454 -3.0282 -0.0430
17439TIP3    H273733   2.067   6.067   2.336 -2.0088  1.8472  0.7538
17440TIP3   OH273734   1.173   0.093  11.164 -0.2884 -0.2183 -0.7667
17440TIP3    H173735   1.103   0.028  11.163  2.1179 -2.9970 -0.9763
17440TIP3    H273736   1.180   0.123  11.074 -3.0437  2.4185 -0.2646
17441TIP3   OH273737   5.504   2.250  13.752  0.1368  0.0975 -0.1017
17441TIP3    H173738   5.424   2.240  13.803 -1.0038 -0.4988 -1.9216
17441TIP3    H273739   5.512   2.344  13.738  0.6747  0.3131  1.4123
17442TIP3   OH273740   5.570   2.052  15.986  0.3309  0.2604  0.1057
17442TIP3    H173741   5.587   2.144  15.968  0.3957 -0.0219 -1.4440
17442TIP3    H273742   5.551   2.049  16.080 -2.2316  2.2321 -0.2345
17443TIP3   OH273743   2.430   3.852   2.574  0.4895  0.8510  0.1559
17443TIP3    H173744   2.406   3.760   2.565 -3.2180  1.7099 -0.5247
17443TIP3    H273745   2.496   3.867   2.507 -0.5489 -0.8554 -1.3564
17444TIP3   OH273746   5.984   0.636   1.427  0.4102 -0.4829 -0.3567
17444TIP3    H173747   5.913   0.589   1.382  1.2531 -1.7322 -0.4404
17444TIP3    H273748   5.966   0.728   1.410 -1.1956 -0.7741 -0.3679
17445TIP3   OH273749   5.943   4.629   4.381  0.0863  0.0593  0.0575
17445TIP3    H173750   5.950   4.603   4.473  0.0196  1.5989  0.5140
17445TIP3    H273751   5.926   4.547   4.335 -2.5776 -0.4202  1.7211
17446TIP3   OH273752   5.093   5.563   0.016  0.2949  0.0333 -0.0953
17446TIP3    H173753   5.024   5.500  -0.002 -0.0490  0.8416 -1.9329
17446TIP3    H273754   5.047   5.648   0.019  1.1288  0.5601 -1.1925
17447TIP3   OH273755   4.953   6.313   3.230  0.3164 -0.0981  0.4088
17447TIP3    H173756   4.937   6.401   3.197  0.7787 -0.4774 -0.8706
17447TIP3    H273757   4.930   6.255   3.157 -1.1075 -1.1301  1.6044
17448TIP3   OH273758   3.714   2.861  12.748  0.0905  0.3745  0.1946
17448TIP3    H173759   3.646   2.810  12.705  1.0073 -0.1349 -0.6893
17448TIP3    H273760   3.715   2.944  12.701 -0.6749  0.8200  0.9419
17449TIP3   OH273761   3.590   3.472  14.123  0.1889  0.1265  0.5207
17449TIP3    H173762   3.497   3.496  14.120 -0.1276 -0.7443  2.1687
17449TIP3    H273763   3.590   3.376  14.115  0.9607  0.1393  0.3221
17450TIP3   OH273764   2.458   4.412  13.937  0.0938  0.0318  0.7305
17450TIP3    H173765   2.376   4.443  13.976  0.4274  1.7020  0.1651
17450TIP3    H273766   2.517   4.487  13.940  1.6703 -1.1479  1.1999
17451TIP3   OH273767   4.114   1.856  15.578  0.3256 -0.2073  0.2767
17451TIP3    H173768   4.098   1.764  15.555  1.2296 -0.5462  0.9354
17451TIP3    H273769   4.209   1.861  15.590  0.0760  0.2729  2.4349
17452TIP3   OH273770   5.658   3.043   2.192  0.1080 -0.0322 -0.5412
17452TIP3    H173771   5.688   3.126   2.229 -1.5351  0.7307 -0.8149
17452TIP3    H273772   5.603   3.068   2.118 -1.7530 -1.2371  0.3343
17453TIP3   OH273773   2.280   1.467   5.389  0.1260  0.0234 -0.0768
17453TIP3    H173774   2.213   1.491   5.325 -1.6496  4.7460  2.9889
17453TIP3    H273775   2.362   1.493   5.348 -0.7170  0.9318 -1.2792
17454TIP3   OH273776   1.580   4.855   3.555  0.2323 -0.4497 -0.0493
17454TIP3    H173777   1.509   4.917   3.539  0.3258 -0.7725 -1.9455
17454TIP3    H273778   1.592   4.856   3.650 -1.8981  0.0363  0.2614
17455TIP3   OH273779   3.964   0.615  14.367  0.1037 -0.2701 -0.1249
17455TIP3    H173780   4.004   0.685  14.419 -2.3477  0.9509  0.2715
17455TIP3    H273781   3.969   0.647  14.277  1.0045 -0.6600 -0.2229
17456TIP3   OH273782   0.171   3.896   0.286 -0.1427  0.6410 -0.3091
17456TIP3    H173783   0.175   3.990   0.307  1.2523  0.7438 -0.9108
17456TIP3    H273784   0.078   3.880   0.267 -0.5919  1.6417  0.8948
17457TIP3   OH273785   6.580   1.374   3.809  0.2433  0.3425 -0.6137
17457TIP3    H173786   6.594   1.280   3.799  0.2659  0.2954 -0.1684
17457TIP3    H273787   6.653   1.404   3.864 -0.6360  0.3231  0.6161
17458TIP3   OH273788   1.530   2.686  17.292 -0.0783 -0.1776  0.7806
17458TIP3    H173789   1.564   2.775  17.299 -1.0587  0.2576  0.1827
17458TIP3    H273790   1.524   2.655  17.382  0.5643  0.2407  0.9711
17459TIP3   OH273791   3.156   1.766  12.813 -0.2869  0.1223  0.0334
17459TIP3    H173792   3.142   1.714  12.734 -2.7288  0.2739  0.2832
17459TIP3    H273793   3.229   1.724  12.857 -0.0058 -1.0120 -1.4502
17460TIP3   OH273794   5.451   1.845  15.159 -0.0751  0.6527  0.0463
17460TIP3    H173795   5.487   1.807  15.240 -0.7632  2.4416  1.2562
17460TIP3    H273796   5.514   1.912  15.133 -0.2643  0.6425 -0.4501
17461TIP3   OH273797   3.237   6.143  13.125 -0.0212 -0.7807  0.2228
17461TIP3    H173798   3.198   6.163  13.210 -1.4609 -0.5874 -0.4426
17461TIP3    H273799   3.247   6.048  13.125 -1.3244 -0.9395  0.1043
17462TIP3   OH273800   5.466   4.806   2.101 -0.9100 -0.0031 -0.5237
17462TIP3    H173801   5.433   4.724   2.138  1.4861 -1.0618 -0.5462
17462TIP3    H273802   5.543   4.826   2.153 -0.7768  1.6393 -1.2881
17463TIP3   OH273803   5.196   1.694  13.801  0.2512 -0.0957 -0.2469
17463TIP3    H173804   5.143   1.770  13.823  1.6028  0.6433  0.5841
17463TIP3    H273805   5.138   1.638  13.749 -2.8322 -1.3689  4.0005
17464TIP3   OH273806   3.746   5.298  15.753 -0.5451 -0.2193 -0.5213
17464TIP3    H173807   3.838   5.318  15.770 -0.1077  0.4531 -3.1696
17464TIP3    H273808   3.747   5.208  15.718 -0.8935 -0.2462 -0.4659
17465TIP3   OH273809   4.803   2.554  13.059 -0.2478 -0.3305  0.5245
17465TIP3    H173810   4.793   2.465  13.093  0.7970 -0.1949  1.2310
17465TIP3    H273811   4.777   2.611  13.132 -2.1247 -0.0320 -0.3203
17466TIP3   OH273812   5.670   3.594   4.550 -0.2877  0.2776 -0.3705
17466TIP3    H173813   5.690   3.672   4.497  0.5207  0.1832 -0.2206
17466TIP3    H273814   5.704   3.521   4.498  1.4639  0.2666  0.7038
17467TIP3   OH273815   5.184   1.045  16.918 -0.4254 -0.0686 -0.5049
17467TIP3    H173816   5.156   1.083  16.835 -0.7020 -0.8308 -0.7658
17467TIP3    H273817   5.105   1.047  16.973 -0.9483 -1.9316 -1.1345
17468TIP3   OH273818   6.362   5.901   1.793  0.2956  0.1724  0.2438
17468TIP3    H173819   6.276   5.860   1.810  0.7457 -0.4439  1.1692
17468TIP3    H273820   6.373   5.963   1.865  0.7097  0.1136  0.2325
17469TIP3   OH273821   5.572   1.211   2.152 -0.4346 -0.4833 -0.0355
17469TIP3    H173822   5.603   1.300   2.141  0.4088 -0.7365  0.2225
17469TIP3    H273823   5.596   1.166   2.071 -1.3471 -0.3497 -0.3939
17470TIP3   OH273824   5.143   1.628  11.751  0.3504  0.3152  0.5829
17470TIP3    H173825   5.117   1.628  11.843  0.4884  0.3428  0.6227
17470TIP3    H273826   5.238   1.615  11.753  0.1339 -1.5983  0.3784
17471TIP3   OH273827   4.376   4.397  14.925  0.1001 -0.1518  0.4865
17471TIP3    H173828   4.410   4.486  14.929 -0.4922  0.0660  0.8164
17471TIP3    H273829   4.292   4.405  14.880 -0.3629 -0.4049  1.2752
17472TIP3   OH273830   3.188   3.655  17.355  0.2086  0.2977  0.4304
17472TIP3    H173831   3.110   3.646  17.299  1.5135  3.0216 -2.1209
17472TIP3    H273832   3.261   3.628  17.299  1.3237 -0.0148  1.9806
17473TIP3   OH273833   5.895   6.457   4.137 -0.4126 -0.2981 -0.1821
17473TIP3    H173834   5.927   6.368   4.155  0.2932  0.2482  1.4927
17473TIP3    H273835   5.964   6.514   4.171 -1.1540  0.9032 -0.6380
17474TIP3   OH273836   1.037   0.994  17.021  0.4389  0.3875  0.4005
17474TIP3    H173837   0.957   0.963  17.065  0.2714 -0.1708 -0.2854
17474TIP3    H273838   1.105   0.933  17.050  0.3767  0.1614  0.0718
17475TIP3   OH273839   5.355   3.779   0.955  0.0503 -0.4045  0.4995
17475TIP3    H173840   5.424   3.733   1.003  0.6087  1.3717  1.4816
17475TIP3    H273841   5.277   3.725   0.969  1.2528 -2.7163 -1.0419
17476TIP3   OH273842   0.638   1.014   2.433 -0.2524  0.4173  0.7237
17476TIP3    H173843   0.597   1.077   2.492 -1.3065  1.5111 -1.0871
17476TIP3    H273844   0.569   0.951   2.413 -0.0596  0.3394  0.2833
17477TIP3   OH273845   5.959   4.063   1.262  0.5742 -0.6852 -0.0859
17477TIP3    H173846   6.011   4.141   1.279 -0.4707 -0.4578  2.4934
17477TIP3    H273847   5.902   4.055   1.339 -1.8500 -1.9960 -1.8965
17478TIP3   OH273848   3.017   3.593  13.709 -0.7489  0.8287  0.2538
17478TIP3    H173849   2.994   3.580  13.801  0.9954 -0.5750  0.5512
17478TIP3    H273850   3.110   3.573  13.705 -0.6476  1.4967 -1.7216
17479TIP3   OH273851   1.384   2.371   4.668 -0.2267  0.4934 -0.1153
17479TIP3    H173852   1.367   2.324   4.587 -2.2887 -0.1204  0.5977
17479TIP3    H273853   1.343   2.317   4.736  0.6267  1.4505  1.2239
17480TIP3   OH273854   6.169   4.753  12.911 -0.1491  0.2002  0.1257
17480TIP3    H173855   6.174   4.719  12.822  2.2326 -0.2401  0.3767
17480TIP3    H273856   6.232   4.825  12.913 -0.7708  0.7429  1.2606
17481TIP3   OH273857   4.604   4.106   3.051  0.7701  0.0288 -0.7040
17481TIP3    H173858   4.589   4.161   2.974  1.9539 -0.2211 -1.1405
17481TIP3    H273859   4.598   4.165   3.125 -1.2468  0.1248 -0.8976
17482TIP3   OH273860   2.365   2.706   4.339  0.1279  0.6792 -0.2831
17482TIP3    H173861   2.314   2.714   4.258 -0.8219  1.6424  0.3849
17482TIP3    H273862   2.310   2.652   4.396  1.0318 -0.4526 -0.4259
17483TIP3   OH273863   4.437   3.206  11.369 -0.2497  0.4374  0.0538
17483TIP3    H173864   4.413   3.119  11.402  2.4556  0.7789  3.4776
17483TIP3    H273865   4.398   3.267  11.431 -1.3763  1.7038 -1.8137
17484TIP3   OH273866   5.726   6.099  12.515  0.5906 -0.2787 -0.0733
17484TIP3    H173867   5.676   6.040  12.459  1.5227 -0.0039 -1.2316
17484TIP3    H273868   5.780   6.041  12.569 -0.7037 -0.5640  0.9703
17485TIP3   OH273869   3.224   0.769   6.542  0.2038  0.1919  0.3877
17485TIP3    H173870   3.229   0.855   6.584 -0.7575  0.0033  0.9063
17485TIP3    H273871   3.238   0.706   6.613  0.3015 -0.0990  0.1148
17486TIP3   OH273872   0.877   3.308   2.947  0.4372 -0.4054 -0.2078
17486TIP3    H173873   0.895   3.260   3.027 -0.2348 -0.1344  0.1087
17486TIP3    H273874   0.872   3.240   2.879 -2.5024 -1.0718  0.5424
17487TIP3   OH273875   4.736   0.685   5.226 -0.1772 -0.3699 -0.0223
17487TIP3    H173876   4.820   0.640   5.220  0.6816  1.1013  0.3819
17487TIP3    H273877   4.749   0.752   5.293 -0.5104  2.1905 -2.2926
17488TIP3   OH273878   6.205   3.104   1.861  0.3929  0.0267  0.0032
17488TIP3    H173879   6.210   3.009   1.867 -1.0256  0.0138  1.3022
17488TIP3    H273880   6.127   3.121   1.808 -1.5715  0.4454  2.8313
17489TIP3   OH273881   1.752   5.580  12.670 -1.0288 -0.3460  0.3253
17489TIP3    H173882   1.688   5.607  12.735 -1.0154 -1.8999  1.0348
17489TIP3    H273883   1.836   5.614  12.702 -1.4026  1.4690 -0.4752
17490TIP3   OH273884   1.184   2.550  11.343  0.3033  0.2297 -0.0972
17490TIP3    H173885   1.227   2.634  11.361  0.8468 -0.2283  0.8441
17490TIP3    H273886   1.123   2.538  11.416 -1.3347  0.7813 -1.3246
17491TIP3   OH273887   4.194   1.248  15.851  0.7222 -0.0997  0.0358
17491TIP3    H173888   4.170   1.181  15.786  1.3149 -0.0565 -0.2350
17491TIP3    H273889   4.289   1.240  15.860  0.6553 -0.0907  0.8897
17492TIP3   OH273890   5.129   0.304  10.780  0.4182  0.1298 -0.2255
17492TIP3    H173891   5.179   0.339  10.707 -0.1529 -0.5484 -0.9620
17492TIP3    H273892   5.046   0.352  10.778 -0.2037 -0.9281 -0.9877
17493TIP3   OH273893   6.394   4.241  12.937  0.4519  0.2866 -0.7496
17493TIP3    H173894   6.394   4.147  12.956  0.4447  0.1576 -1.3521
17493TIP3    H273895   6.355   4.281  13.014  4.3322  0.2409  1.4642
17494TIP3   OH273896   0.542   3.251  11.101  0.1009 -0.0992 -0.0475
17494TIP3    H173897   0.535   3.320  11.035 -0.6815 -0.1356 -0.0037
17494TIP3    H273898   0.460   3.254  11.149  0.7697  0.0919  1.1030
17495TIP3   OH273899   0.456   6.127   2.657  0.0028  0.1725  0.5945
17495TIP3    H173900   0.403   6.117   2.578  1.1116 -0.2984 -0.1131
17495TIP3    H273901   0.510   6.048   2.659 -0.5334 -0.1886  2.2393
17496TIP3   OH273902   5.037   4.703   0.817  0.0922  0.2153  0.4116
17496TIP3    H173903   5.115   4.661   0.782 -0.0397  1.3086 -1.2681
17496TIP3    H273904   4.979   4.713   0.742 -0.1517  2.7569  0.8526
17497TIP3   OH273905   3.183   1.340   1.520 -0.2938  0.3016  0.0856
17497TIP3    H173906   3.190   1.278   1.593  1.2720 -3.6551 -3.0633
17497TIP3    H273907   3.266   1.387   1.521 -0.0402 -0.1401  0.4834
17498TIP3   OH273908   4.095   2.784  16.257 -0.3707  0.2395  0.0604
17498TIP3    H173909   4.113   2.728  16.181 -1.5656 -0.0356 -0.0373
17498TIP3    H273910   4.132   2.869  16.233 -0.3354  0.0324 -0.6380
17499TIP3   OH273911   2.178   0.249   3.272 -0.3435  0.1681 -0.7093
17499TIP3    H173912   2.248   0.215   3.328 -0.1076  2.1325  0.2817
17499TIP3    H273913   2.110   0.181   3.275 -0.3707  0.1891  2.0903
17500TIP3   OH273914   3.326   3.242  14.625 -0.3160  0.2591  0.8773
17500TIP3    H173915   3.346   3.205  14.711  1.1621 -0.7457  0.1395
17500TIP3    H273916   3.254   3.304  14.641  1.9131  2.4492  3.3657
17501TIP3   OH273917   5.699   1.351  15.163  0.2464 -0.0861 -0.7106
17501TIP3    H173918   5.768   1.418  15.151 -0.6099  1.2267  1.1799
17501TIP3    H273919   5.619   1.402  15.176 -0.0806 -1.2477  3.2558
17502TIP3   OH273920   1.848   2.621   0.098 -0.2416  0.3597 -0.4808
17502TIP3    H173921   1.925   2.663   0.136 -1.8851  0.6459  2.9209
17502TIP3    H273922   1.787   2.692   0.081 -0.8766 -0.1238 -0.2789
17503TIP3   OH273923   1.673   3.830  12.305  1.0245 -0.7976  0.2504
17503TIP3    H173924   1.653   3.744  12.269  1.1050 -0.8138  0.2437
17503TIP3    H273925   1.726   3.872  12.237 -1.6989  0.5036 -1.2106
17504TIP3   OH273926   4.651   3.018   1.470 -0.6732 -0.3815  0.2877
17504TIP3    H173927   4.608   2.976   1.544  0.1101 -1.3485  0.2172
17504TIP3    H273928   4.660   3.110   1.496 -0.5050 -0.6927  1.3586
17505TIP3   OH273929   0.398   6.147   5.316  0.4591  0.2416  0.2182
17505TIP3    H173930   0.379   6.067   5.364  1.5087  0.3343  0.8111
17505TIP3    H273931   0.315   6.195   5.316  0.0726 -0.4085  0.6849
17506TIP3   OH273932   2.011   5.626   0.053 -0.4320  0.1619 -0.3083
17506TIP3    H173933   2.047   5.545   0.018  0.3926  0.1628  0.4915
17506TIP3    H273934   2.074   5.654   0.119 -1.2871  0.8364  0.2555
17507TIP3   OH273935   6.136   4.791  17.205 -0.2108 -0.1281 -0.4712
17507TIP3    H173936   6.055   4.799  17.155 -0.9627 -0.2024  0.6938
17507TIP3    H273937   6.159   4.698  17.200  1.5593  0.3573 -3.3988
17508TIP3   OH273938   0.337   5.875   1.545 -0.1198  0.2145  0.0220
17508TIP3    H173939   0.343   5.919   1.461 -1.3774  1.0075  0.3300
17508TIP3    H273940   0.282   5.798   1.528  2.2097 -1.4284 -0.5548
17509TIP3   OH273941   6.363   4.310   2.577 -0.3527 -0.0846  1.1098
17509TIP3    H173942   6.271   4.334   2.589 -0.4663 -0.7867  1.6937
17509TIP3    H273943   6.402   4.323   2.663 -0.3209 -1.5507  1.3319
17510TIP3   OH273944   0.793   5.144  17.223  0.5223 -0.4817  0.8867
17510TIP3    H173945   0.845   5.195  17.162 -1.2874  1.1972  0.6509
17510TIP3    H273946   0.797   5.054  17.188 -0.8326  0.4657 -2.0851
17511TIP3   OH273947   2.883   3.187   2.323 -0.2279  0.9565 -0.2212
17511TIP3    H173948   2.920   3.187   2.412 -1.3364  0.5625  0.2581
17511TIP3    H273949   2.794   3.221   2.334 -0.7132 -0.0077 -1.0342
17512TIP3   OH273950   1.490   0.728  14.150  0.2822 -0.2336  0.1892
17512TIP3    H173951   1.404   0.734  14.108  0.0185 -1.9765  0.3810
17512TIP3    H273952   1.487   0.790  14.223 -1.0740 -0.7505  0.5946
17513TIP3   OH273953   0.894   2.265   5.258 -0.3833 -0.4918 -0.1761
17513TIP3    H173954   0.909   2.179   5.298 -2.0954 -0.9827 -0.4689
17513TIP3    H273955   0.898   2.327   5.330  0.4367 -0.8629  0.1108
17514TIP3   OH273956   0.910   5.463  16.146 -0.0158 -0.2109  0.5610
17514TIP3    H173957   0.911   5.558  16.157 -2.4757  0.4779 -3.3287
17514TIP3    H273958   0.995   5.443  16.106  0.5565  0.2764  1.4973
17515TIP3   OH273959   2.685   1.558   5.374 -0.4141 -0.2118 -0.1400
17515TIP3    H173960   2.607   1.594   5.331 -0.0478  1.4289  0.5271
17515TIP3    H273961   2.755   1.571   5.311 -0.5379 -1.1346 -0.4893
17516TIP3   OH273962   5.410   5.903  16.960  0.3127  0.4393  0.0558
17516TIP3    H173963   5.461   5.866  17.032 -1.7380 -1.9159  0.4251
17516TIP3    H273964   5.454   5.872  16.881 -0.5250 -1.7744  0.3683
17517TIP3   OH273965   3.725   4.137   4.013 -0.3282  0.3128  0.5437
17517TIP3    H173966   3.805   4.177   3.979 -0.0265 -1.0386 -0.4060
17517TIP3    H273967   3.659   4.156   3.947 -0.2421 -0.5274  0.2103
17518TIP3   OH273968   0.907   6.140   1.012  0.6475 -0.4173 -0.2510
17518TIP3    H173969   0.927   6.158   0.920  0.3013  0.2346 -0.2051
17518TIP3    H273970   0.942   6.052   1.027 -0.0559 -0.8920 -1.2370
17519TIP3   OH273971   1.597   6.598   3.111 -0.0591  0.4661 -0.4298
17519TIP3    H173972   1.525   6.637   3.062 -0.8177  1.8139  1.6086
17519TIP3    H273973   1.557   6.531   3.165 -0.1611  2.2406  1.8509
17520TIP3   OH273974   4.007   4.035  12.318  0.4163  0.8284  0.0925
17520TIP3    H173975   4.090   4.028  12.366 -0.1588 -0.3646  0.9930
17520TIP3    H273976   3.991   3.946  12.286  0.4130  1.4484 -1.7449
17521TIP3   OH273977   5.805   1.713   5.212  0.0117 -0.1952  0.2321
17521TIP3    H173978   5.773   1.700   5.301  0.1608 -0.3756  0.2599
17521TIP3    H273979   5.735   1.679   5.156  0.3781 -1.0840  0.3043
17522TIP3   OH273980   3.038   0.080  17.149  0.2079 -0.5199 -0.0918
17522TIP3    H173981   2.999  -0.002  17.119  0.5656 -0.6618 -0.1677
17522TIP3    H273982   3.034   0.075  17.244 -2.0366  0.4471 -0.0595
17523TIP3   OH273983   5.612   3.982   0.596  0.7756 -0.7461  0.0274
17523TIP3    H173984   5.666   4.061   0.586 -0.1087 -0.3081 -1.6800
17523TIP3    H273985   5.532   4.013   0.640 -0.4049 -0.2202 -2.3286
17524TIP3   OH273986   4.307   5.226   2.072  0.3349  0.4383 -0.6258
17524TIP3    H173987   4.249   5.161   2.110  1.8865 -0.6162  0.0706
17524TIP3    H273988   4.370   5.175   2.021  1.0241  1.4628 -0.8354
17525TIP3   OH273989   1.887   6.430   0.459  0.3534  0.0592  0.6600
17525TIP3    H173990   1.881   6.336   0.439  1.5209  0.2751 -0.8621
17525TIP3    H273991   1.849   6.438   0.547 -2.8706 -1.3348 -0.4303
17526TIP3   OH273992   5.881   2.435  17.140 -0.0520  0.2064 -0.0722
17526TIP3    H173993   5.850   2.521  17.167 -1.5018  0.1934 -1.4998
17526TIP3    H273994   5.924   2.450  17.056 -2.4355 -0.7004 -1.5659
17527TIP3   OH273995   0.803   5.718   5.759 -0.1384 -0.1638 -0.1479
17527TIP3    H173996   0.825   5.769   5.836  0.1676  1.3986 -1.2223
17527TIP3    H273997   0.870   5.649   5.756  1.4741  1.3518 -0.4507
17528TIP3   OH273998   5.606   2.135  12.812 -0.0280 -0.6255 -0.6426
17528TIP3    H173999   5.535   2.199  12.811 -1.2005 -1.8668 -0.3111
17528TIP3    H274000   5.643   2.142  12.900  1.2376  1.0110 -1.2612
17529TIP3   OH274001   1.686   0.509   1.323  0.2414  0.2284  0.2802
17529TIP3    H174002   1.654   0.513   1.233  0.1281  0.0440  0.3109
17529TIP3    H274003   1.766   0.561   1.323  0.0855  0.4711  0.1388
17530TIP3   OH274004   0.779   2.000   0.036  0.0310  0.0232 -0.5030
17530TIP3    H174005   0.700   2.040   0.075 -0.2644 -1.5588  0.6154
17530TIP3    H274006   0.769   2.014  -0.058 -0.8200  1.1969 -0.2624
17531TIP3   OH274007   0.832   4.308   3.769 -0.0289  0.1939  0.2001
17531TIP3    H174008   0.781   4.254   3.829  0.6782 -0.1455  0.5139
17531TIP3    H274009   0.816   4.270   3.682 -2.1638  1.5388 -0.0659
17532TIP3   OH274010   5.776   4.725  11.483  0.3712  0.6324 -0.0534
17532TIP3    H174011   5.753   4.788  11.415  0.1154  0.4656 -0.1234
17532TIP3    H274012   5.817   4.653  11.436 -0.2579  0.2920 -0.0926
17533TIP3   OH274013   4.145   6.678   3.531 -0.4323 -0.6674  0.0022
17533TIP3    H174014   4.154   6.585   3.511 -0.7111 -0.4910 -0.9849
17533TIP3    H274015   4.058   6.685   3.571  0.0926 -1.0046  1.2800
17534TIP3   OH274016   4.807   5.415   5.288 -0.1853  0.1416  0.3317
17534TIP3    H174017   4.892   5.443   5.322 -0.0226 -1.4556  1.3435
17534TIP3    H274018   4.824   5.330   5.247 -1.4561 -0.7424  1.5327
17535TIP3   OH274019   4.239   2.319   0.476  0.3663  0.3022 -0.4032
17535TIP3    H174020   4.150   2.324   0.441  0.5890 -1.6905 -1.3558
17535TIP3    H274021   4.296   2.333   0.399  0.8814  0.4375 -0.0032
17536TIP3   OH274022   6.603   1.527  12.480 -0.2576 -0.3662 -0.1907
17536TIP3    H174023   6.600   1.471  12.558  2.0833 -2.1509 -1.2611
17536TIP3    H274024   6.561   1.475  12.411 -1.0119  0.5882 -0.4644
17537TIP3   OH274025   3.042   3.281   3.557  0.6161 -0.2548 -0.2660
17537TIP3    H174026   3.058   3.374   3.544  1.6767 -0.2822  0.7411
17537TIP3    H274027   3.032   3.246   3.468 -1.3424  1.0440 -0.6086
17538TIP3   OH274028   3.577   6.430  15.078 -0.0310  0.3679 -0.5190
17538TIP3    H174029   3.668   6.415  15.104  0.3623  0.0768 -1.9587
17538TIP3    H274030   3.558   6.359  15.016 -0.5717  1.5573 -1.7720
17539TIP3   OH274031   1.506   3.603   3.588 -0.1382 -0.2709 -0.4366
17539TIP3    H174032   1.464   3.519   3.571  0.5114 -0.5802 -0.5357
17539TIP3    H274033   1.599   3.583   3.592  0.0005  0.4003 -0.1815
17540TIP3   OH274034   5.357   6.126  16.832 -0.0338 -0.3226  0.0069
17540TIP3    H174035   5.372   6.046  16.883 -0.6675 -1.0113 -0.8458
17540TIP3    H274036   5.283   6.169  16.875 -1.8458 -1.8774 -1.3623
17541TIP3   OH274037   0.676   1.384  11.048 -0.3397 -0.0940 -0.4594
17541TIP3    H174038   0.647   1.379  10.957  2.2957 -0.5390 -1.3675
17541TIP3    H274039   0.767   1.413  11.042 -0.0694 -0.2544  2.0442
17542TIP3   OH274040   5.110   3.956   0.671  0.1387  0.0205 -0.3777
17542TIP3    H174041   5.116   4.026   0.735  0.1342  0.7963 -1.2119
17542TIP3    H274042   5.142   3.878   0.717 -0.3999  0.4380  0.7363
17543TIP3   OH274043   4.469   5.635  12.427 -0.0221  0.0722  0.0086
17543TIP3    H174044   4.524   5.626  12.505  2.0304  0.8638 -1.2601
17543TIP3    H274045   4.520   5.594  12.357 -0.0346  2.6296 -1.6314
17544TIP3   OH274046   3.474   1.165  12.279  1.0035 -0.3833 -0.2894
17544TIP3    H174047   3.472   1.260  12.268  0.1942 -0.0742  1.9697
17544TIP3    H274048   3.382   1.139  12.272  1.2419 -1.0540 -1.0962
17545TIP3   OH274049   5.282   6.417  15.290 -0.0473  0.5500  0.2590
17545TIP3    H174050   5.359   6.402  15.234 -0.5579  1.1059 -0.6179
17545TIP3    H274051   5.228   6.339  15.277  0.7665 -0.2770  1.5969
17546TIP3   OH274052   5.682   6.715  12.844 -0.0155 -0.0564  0.1710
17546TIP3    H174053   5.638   6.694  12.927 -2.8033 -2.3665 -1.6706
17546TIP3    H274054   5.720   6.632  12.816  0.6830  0.6304 -0.9666
17547TIP3   OH274055   1.872   3.608   3.699  0.0397  0.1523  0.8483
17547TIP3    H174056   1.789   3.642   3.731 -0.8744 -1.5415  0.4194
17547TIP3    H274057   1.890   3.532   3.756 -0.9170 -2.0726 -1.5944
17548TIP3   OH274058   5.829   6.145   1.727  0.2291 -0.1416  0.1132
17548TIP3    H174059   5.815   6.052   1.744  1.5928 -0.2916  0.4650
17548TIP3    H274060   5.924   6.155   1.721  0.1968  1.4608  1.4981
17549TIP3   OH274061   6.254   6.687   1.921  0.6000 -1.0488 -0.2151
17549TIP3    H174062   6.246   6.782   1.909  1.3991 -0.9174  0.2001
17549TIP3    H274063   6.233   6.650   1.836  0.0055 -0.5146 -0.3074
17550TIP3   OH274064   4.348   3.594   4.303  0.1644  0.0230  0.3648
17550TIP3    H174065   4.327   3.506   4.332 -0.5713  0.0491 -0.0669
17550TIP3    H274066   4.300   3.605   4.221 -0.3008  1.0618  0.7590
17551TIP3   OH274067   6.171   1.296  13.029  0.4469 -0.4914 -0.2124
17551TIP3    H174068   6.237   1.362  13.049 -0.4334  0.5922 -0.7668
17551TIP3    H274069   6.186   1.273  12.938  0.3458 -0.5628 -0.2115
17552TIP3   OH274070   4.121   2.085  13.509 -0.1748  0.2468 -0.3039
17552TIP3    H174071   4.088   2.128  13.430 -1.2155 -0.9979 -0.5891
17552TIP3    H274072   4.169   2.009  13.477  0.4012  0.3789  0.2297
17553TIP3   OH274073   6.500   3.825   4.190  0.7187 -0.0717 -0.2143
17553TIP3    H174074   6.486   3.845   4.283  1.4453  0.5209 -0.2185
17553TIP3    H274075   6.412   3.815   4.154  0.4350 -0.6386  0.6048
17554TIP3   OH274076   5.739   6.091   1.436 -0.0352 -0.4000 -0.2058
17554TIP3    H174077   5.686   6.074   1.358  0.3949 -1.6483 -0.2443
17554TIP3    H274078   5.726   6.014   1.491  0.0641  0.2484  0.7330
17555TIP3   OH274079   6.509   6.346   3.106 -0.2533  0.4098 -0.0020
17555TIP3    H174080   6.567   6.293   3.050  0.6415  1.6808 -0.3387
17555TIP3    H274081   6.432   6.291   3.120  0.6168 -0.9501 -0.3655
17556TIP3   OH274082   3.576   3.868  17.356 -0.7041 -0.1055  0.1652
17556TIP3    H174083   3.545   3.914  17.277 -2.3458  0.3976  1.0399
17556TIP3    H274084   3.583   3.937  17.422  3.7492  0.0982 -0.2066
17557TIP3   OH274085   0.139   2.423   3.072 -0.0596  0.6661 -0.7387
17557TIP3    H174086   0.087   2.343   3.058 -0.2328  0.4893  0.7767
17557TIP3    H274087   0.182   2.409   3.156  2.5681  0.7658 -1.9941
17558TIP3   OH274088   3.126   1.423  11.278  0.0414  0.0708 -0.0296
17558TIP3    H174089   3.175   1.408  11.197  0.1788  1.9567 -0.3476
17558TIP3    H274090   3.141   1.344  11.330 -2.2756 -2.4563 -2.8652
17559TIP3   OH274091   0.542   3.693  15.859 -0.4292 -0.2753 -0.6006
17559TIP3    H174092   0.589   3.760  15.810  2.1861 -0.4234  1.4421
17559TIP3    H274093   0.554   3.613  15.806  2.1016 -0.3864 -0.0062
17560TIP3   OH274094   5.286   1.047  17.296  0.4721 -0.2765  0.3057
17560TIP3    H174095   5.356   1.004  17.345  1.3062 -0.7365 -1.2465
17560TIP3    H274096   5.290   1.008  17.209 -0.0820  1.4838 -0.5544
17561TIP3   OH274097   0.837   0.821  11.640  0.5827 -0.8070  0.0350
17561TIP3    H174098   0.776   0.894  11.647  0.1288 -1.2697  1.3736
17561TIP3    H274099   0.915   0.851  11.687  2.0405  0.3381 -2.8815
17562TIP3   OH274100   4.473   2.577   2.901 -0.7528 -0.4290 -0.6034
17562TIP3    H174101   4.555   2.621   2.878 -2.3119  2.1702 -1.5451
17562TIP3    H274102   4.489   2.541   2.989  1.3795 -0.0829 -0.7853
17563TIP3   OH274103   3.456   6.549  11.765  0.4199  0.0289  0.2420
17563TIP3    H174104   3.547   6.553  11.795  0.2076 -0.6050  1.0165
17563TIP3    H274105   3.425   6.463  11.793  0.1253 -0.5327 -1.6750
17564TIP3   OH274106   3.055   3.498  12.758 -0.1630  0.2942 -0.0012
17564TIP3    H174107   2.996   3.525  12.687  0.2250 -0.4835 -0.6410
17564TIP3    H274108   3.002   3.441  12.814  0.4381 -2.0104 -1.6378
17565TIP3   OH274109   1.790   2.233  15.692 -0.2091  0.2220 -0.4640
17565TIP3    H174110   1.751   2.274  15.615 -0.4677  1.5924  0.3472
17565TIP3    H274111   1.785   2.139  15.675  0.2184  0.4988 -2.3324
17566TIP3   OH274112   3.970   6.382  14.329 -0.3886  0.0661  0.4638
17566TIP3    H174113   3.942   6.436  14.403 -2.8395 -0.8448  0.3150
17566TIP3    H274114   3.921   6.417  14.254 -0.9766 -1.4565  0.1030
17567TIP3   OH274115   2.007   2.806   2.605 -0.0002 -0.4199  0.7085
17567TIP3    H174116   2.088   2.792   2.556  0.4009  2.1081  0.4833
17567TIP3    H274117   2.030   2.790   2.696 -0.0633 -2.5484  0.4096
17568TIP3   OH274118   0.846   0.694  11.072  0.6971 -0.0848  0.7257
17568TIP3    H174119   0.903   0.633  11.118  1.7564 -0.6479 -1.1937
17568TIP3    H274120   0.794   0.639  11.013  1.4962  0.7729 -0.8643
17569TIP3   OH274121   0.798   0.542  14.835 -0.3639  0.2999 -0.2428
17569TIP3    H174122   0.852   0.463  14.842 -0.7676 -0.4738 -4.0035
17569TIP3    H274123   0.708   0.510  14.832 -0.5900  0.9716 -0.9637
17570TIP3   OH274124   4.702   4.788  16.530  0.0186 -0.4011 -0.4038
17570TIP3    H174125   4.611   4.783  16.560  0.1802  1.8266  0.5948
17570TIP3    H274126   4.754   4.768  16.607  0.3860  0.9646 -0.2792
17571TIP3   OH274127   5.932   5.490  12.204 -0.1339 -0.2122  0.2651
17571TIP3    H174128   6.020   5.501  12.170  0.1794  0.9284  1.3689
17571TIP3    H274129   5.944   5.473  12.297 -1.0759  0.1505  0.4680
17572TIP3   OH274130   4.588   5.894   2.968 -0.3911  0.3081  0.3106
17572TIP3    H174131   4.550   5.911   3.054 -0.2252 -1.3478  0.7486
17572TIP3    H274132   4.618   5.803   2.973  0.4285  0.4667 -1.2042
17573TIP3   OH274133   3.495   3.705  16.465  0.2964 -0.2644  0.1816
17573TIP3    H174134   3.494   3.792  16.425 -0.1249 -0.4036 -0.1223
17573TIP3    H274135   3.526   3.647  16.396  0.8970 -0.3118  0.4877
17574TIP3   OH274136   0.124   1.944  15.177  0.1484  0.3875  0.6756
17574TIP3    H174137   0.139   2.008  15.106 -0.0742  0.1448  0.4081
17574TIP3    H274138   0.204   1.892  15.179 -0.7219 -1.1261 -0.9761
17575TIP3   OH274139   5.385   6.319  14.296 -0.1513  0.3873  0.6844
17575TIP3    H174140   5.476   6.335  14.273 -0.3659 -1.8826 -2.4349
17575TIP3    H274141   5.337   6.393  14.258  0.0101 -0.9171 -2.2998
17576TIP3   OH274142   6.055   5.476   6.005 -0.5048 -0.2103 -0.1593
17576TIP3    H174143   6.039   5.531   6.083 -0.6878  1.5688 -1.3889
17576TIP3    H274144   6.103   5.401   6.039  1.5194  1.6240  1.3964
17577TIP3   OH274145   1.550   3.790  15.464 -0.1189  0.2590  0.0684
17577TIP3    H174146   1.484   3.760  15.401  1.4346  0.5620 -1.7996
17577TIP3    H274147   1.628   3.738  15.443  0.6702  0.9038  1.2780
17578TIP3   OH274148   3.293   2.232   3.852 -0.1678 -0.5454  0.0883
17578TIP3    H174149   3.282   2.207   3.944 -1.7628  2.4299  0.8145
17578TIP3    H274150   3.373   2.285   3.851 -0.3428 -0.2851 -0.1583
17579TIP3   OH274151   5.260   5.071   6.000  0.3965  0.3240 -0.6407
17579TIP3    H174152   5.355   5.080   5.988  0.8083 -0.7452  1.3120
17579TIP3    H274153   5.248   5.072   6.095 -1.1473 -2.6414 -0.6691
17580TIP3   OH274154   2.221   6.156   4.523 -0.4181  0.5382 -0.2406
17580TIP3    H174155   2.289   6.222   4.516 -1.2383  1.4043 -0.2235
17580TIP3    H274156   2.221   6.131   4.616  0.8696 -0.5766 -0.5095
17581TIP3   OH274157   0.827   0.878  16.352 -0.2730  0.3741 -0.1657
17581TIP3    H174158   0.907   0.931  16.349 -0.2892  0.3640 -0.9812
17581TIP3    H274159   0.779   0.902  16.272 -1.8362  1.5344  1.0512
17582TIP3   OH274160   5.687   1.472   2.108 -0.0794  0.3918 -0.2170
17582TIP3    H174161   5.755   1.508   2.165 -0.4842  1.7976 -0.5853
17582TIP3    H274162   5.643   1.549   2.072 -1.2461 -0.4914 -0.7276
17583TIP3   OH274163   4.522   3.707   6.593 -0.3645  0.1201  0.0409
17583TIP3    H174164   4.599   3.657   6.621  0.3066  1.8255  1.4384
17583TIP3    H274165   4.523   3.701   6.497  1.8728  0.5451 -0.0207
17584TIP3   OH274166   0.280   3.484   2.339 -0.7365  0.5148 -0.0581
17584TIP3    H174167   0.204   3.454   2.389  0.4243  0.8664  2.0429
17584TIP3    H274168   0.301   3.569   2.377  0.7182  0.4121 -0.5874
17585TIP3   OH274169   1.822   0.383  16.865 -0.4626  0.5856  0.3154
17585TIP3    H174170   1.855   0.312  16.811  1.4221  0.3409  1.6658
17585TIP3    H274171   1.824   0.460  16.808  1.2912  0.3003 -0.0607
17586TIP3   OH274172   3.402   0.786  16.675  0.0812 -0.2337  0.0920
17586TIP3    H174173   3.467   0.716  16.666  1.0829  0.5779  0.9059
17586TIP3    H274174   3.432   0.854  16.614  0.5468  0.5396  1.1683
17587TIP3   OH274175   4.127   6.616  15.706 -0.0954 -0.2449 -0.1811
17587TIP3    H174176   4.055   6.613  15.643  0.3649 -0.8767 -0.6865
17587TIP3    H274177   4.168   6.530  15.700  0.1259 -0.2223  0.7904
17588TIP3   OH274178   3.664   0.716   1.931 -0.1642  0.6712  0.3932
17588TIP3    H174179   3.678   0.622   1.938 -0.1404  0.4350 -2.1165
17588TIP3    H274180   3.581   0.725   1.884  0.5038  1.8617 -0.6209
17589TIP3   OH274181   5.208   5.852   4.082 -0.4750  0.4682  0.1420
17589TIP3    H174182   5.118   5.856   4.114 -0.8808 -1.2857 -0.6514
17589TIP3    H274183   5.200   5.839   3.987  0.6631  2.3656 -0.2803
17590TIP3   OH274184   1.061   6.576  15.913 -0.8437 -0.0740  0.2778
17590TIP3    H174185   1.126   6.516  15.949 -0.2712 -0.0890 -0.7497
17590TIP3    H274186   0.987   6.570  15.974  0.1335  0.0262  1.5343
17591TIP3   OH274187   6.042   4.582   5.540  0.2155 -0.0831 -0.3643
17591TIP3    H174188   5.978   4.521   5.575  0.4750  0.8650  2.0300
17591TIP3    H274189   6.119   4.528   5.520 -0.2144 -0.7883 -0.1318
17592TIP3   OH274190   5.814   6.635  12.481  0.1267  0.0974 -0.2711
17592TIP3    H174191   5.883   6.579  12.516  0.5441  0.3608 -0.6613
17592TIP3    H274192   5.861   6.708  12.440 -0.4252  0.9807  0.6428
17593TIP3   OH274193   1.507   6.266  15.112 -0.9347  0.5589 -0.3956
17593TIP3    H174194   1.494   6.337  15.050 -1.2248 -0.2103 -1.2235
17593TIP3    H274195   1.533   6.311  15.193 -0.8112  1.5849 -0.9780
17594TIP3   OH274196   5.487   3.084   0.719 -0.0691  0.4608  0.3178
17594TIP3    H174197   5.438   3.137   0.656  0.6139 -1.5337 -2.0363
17594TIP3    H274198   5.579   3.098   0.696  0.1046 -2.5392 -1.2169
17595TIP3   OH274199   3.977   1.988  15.883 -0.1056 -0.3030  0.1970
17595TIP3    H174200   3.965   2.044  15.806  1.2250  0.1629  0.3129
17595TIP3    H274201   3.931   2.035  15.954 -0.4929 -0.2440 -0.0905
17596TIP3   OH274202   5.342   5.389   5.477 -0.7038 -0.5470 -0.0314
17596TIP3    H174203   5.429   5.389   5.437 -0.4298 -1.1120  0.5378
17596TIP3    H274204   5.359   5.407   5.570 -1.1274 -1.3214  0.2045
17597TIP3   OH274205   1.445   0.980   2.435  0.5854  0.0628  0.4473
17597TIP3    H174206   1.508   0.917   2.398 -1.1213 -1.0439 -0.7217
17597TIP3    H274207   1.430   0.949   2.525  0.3663 -0.7334  0.1410
17598TIP3   OH274208   5.880   5.788  13.651  0.0250 -0.1969 -0.0457
17598TIP3    H174209   5.939   5.829  13.715  2.0859 -3.0041  0.0958
17598TIP3    H274210   5.799   5.773  13.700 -0.0986  1.8271  0.4442
17599TIP3   OH274211   0.892   0.734   3.107 -0.3094 -0.4264  0.0071
17599TIP3    H174212   0.911   0.828   3.111 -0.0014 -0.5105  0.7083
17599TIP3    H274213   0.871   0.717   3.015  1.8864 -0.0903 -0.6179
17600TIP3   OH274214   3.627   4.743  15.630  0.5789 -0.2547 -0.1106
17600TIP3    H174215   3.581   4.755  15.547 -0.6402  1.0089  0.7154
17600TIP3    H274216   3.594   4.812  15.686  1.5674 -0.9371  1.3682
17601TIP3   OH274217   4.321   6.606  12.361  0.0641  0.1413 -0.2131
17601TIP3    H174218   4.325   6.652  12.278 -0.5144 -1.7932 -1.3624
17601TIP3    H274219   4.227   6.601  12.381  0.1610  0.0437  0.2322
17602TIP3   OH274220   3.985   0.403   6.250 -0.2941  0.1031 -0.7702
17602TIP3    H174221   4.027   0.488   6.257  0.2314 -0.2399  0.3216
17602TIP3    H274222   4.055   0.343   6.225 -0.4377 -0.2063 -0.4357
17603TIP3   OH274223   1.612   6.530  16.008 -0.0290 -0.2567  0.2683
17603TIP3    H174224   1.609   6.625  15.996  2.8018 -0.0643  0.3075
17603TIP3    H274225   1.672   6.517  16.082 -0.1022 -2.0785  0.0541
17604TIP3   OH274226   5.334   0.947   2.384 -0.1352 -0.3384 -0.2206
17604TIP3    H174227   5.370   1.034   2.400  0.6767 -0.3510 -1.7536
17604TIP3    H274228   5.341   0.935   2.289 -1.5685 -1.5099 -0.2266
17605TIP3   OH274229   5.480   4.146  12.317  0.0023 -0.6068  0.4489
17605TIP3    H174230   5.403   4.186  12.358 -0.2620 -0.3184 -0.3101
17605TIP3    H274231   5.555   4.184  12.363 -0.3151 -1.5274  1.7667
17606TIP3   OH274232   6.191   3.553  12.605 -0.1170  0.1051  0.1101
17606TIP3    H174233   6.273   3.503  12.605 -0.5409 -0.6170  1.3882
17606TIP3    H274234   6.183   3.586  12.694 -0.9188  0.7001 -0.1708
17607TIP3   OH274235   3.890   4.585  16.450 -0.2990  0.8418  0.2926
17607TIP3    H174236   3.898   4.632  16.366 -0.0065  2.1591  1.0292
17607TIP3    H274237   3.981   4.568  16.475 -0.4117 -0.3948 -0.0999
17608TIP3   OH274238   6.023   2.088   1.928  0.0748  0.1974  0.4998
17608TIP3    H174239   5.996   2.008   1.884 -0.1427 -0.0583  1.0878
17608TIP3    H274240   6.074   2.136   1.862 -0.3706 -0.1024 -0.0687
17609TIP3   OH274241   4.486   5.703  15.506  0.1222 -0.3426 -0.6485
17609TIP3    H174242   4.425   5.636  15.538  1.5554 -2.0988 -1.4495
17609TIP3    H274243   4.568   5.685  15.552  0.2236  1.7478  0.1289
17610TIP3   OH274244   4.210   1.286  15.249 -0.0816  1.1834  0.1308
17610TIP3    H174245   4.156   1.361  15.275  0.8857  1.5367  1.2233
17610TIP3    H274246   4.251   1.257  15.331 -0.2098 -0.3660 -0.3191
17611TIP3   OH274247   3.876   5.495   0.804  0.0831 -0.0857  0.2223
17611TIP3    H174248   3.821   5.436   0.856 -0.1539  0.3224  0.4438
17611TIP3    H274249   3.915   5.439   0.737  2.3377 -1.1307  2.2862
17612TIP3   OH274250   5.050   6.114   2.096  0.0729 -0.7303 -0.3750
17612TIP3    H174251   5.074   6.085   2.184 -0.1778  0.3328  0.0559
17612TIP3    H274252   5.071   6.207   2.095  0.3301 -0.7883 -1.5360
17613TIP3   OH274253   6.413   2.086  14.210 -0.7434  0.0087 -0.1568
17613TIP3    H174254   6.458   2.148  14.153  0.8939 -1.5500 -0.6410
17613TIP3    H274255   6.475   2.013  14.221 -2.4237 -1.3750  0.6986
17614TIP3   OH274256   6.433   4.068  15.548 -0.0499  0.4109  0.1370
17614TIP3    H174257   6.504   4.116  15.592  0.7041  1.1042 -1.7251
17614TIP3    H274258   6.366   4.058  15.615  1.2059  1.0424  1.5524
17615TIP3   OH274259   0.465   6.730  12.406  0.0403  0.2977 -0.1489
17615TIP3    H174260   0.527   6.709  12.336  0.8479  1.9344  0.0312
17615TIP3    H274261   0.384   6.686  12.381 -0.2401  2.2316 -3.0329
17616TIP3   OH274262   4.193   4.536   3.608  0.6301 -0.6744  0.3582
17616TIP3    H174263   4.114   4.505   3.565  0.7785  0.9180 -1.1667
17616TIP3    H274264   4.163   4.566   3.694 -0.6843  0.9368 -0.6009
17617TIP3   OH274265   4.084   2.982   2.944  0.0086 -0.0902  0.0724
17617TIP3    H174266   4.023   2.948   3.010 -0.1254 -0.1457 -0.0793
17617TIP3    H274267   4.155   2.917   2.942 -0.2001 -0.3133 -0.1470
17618TIP3   OH274268   1.515   0.290  15.861 -0.5100  0.2155  0.1058
17618TIP3    H174269   1.554   0.250  15.939 -1.3337 -1.2814 -0.2122
17618TIP3    H274270   1.590   0.313  15.806  0.0207 -0.8188  0.3613
17619TIP3   OH274271   0.932   0.888   3.988 -0.4175 -0.0066  0.6681
17619TIP3    H174272   0.838   0.873   3.984 -0.6890  1.3819  1.1447
17619TIP3    H274273   0.967   0.811   4.031 -0.9875 -1.7430 -1.7720
17620TIP3   OH274274   5.708   3.807  14.750 -0.8119 -0.2891 -0.0780
17620TIP3    H174275   5.712   3.825  14.657 -1.3632  1.3974  0.1938
17620TIP3    H274276   5.797   3.783  14.775 -1.0549 -2.9804 -1.3976
17621TIP3   OH274277   3.916   2.862  15.649 -0.2281  0.5862  0.1541
17621TIP3    H174278   3.867   2.943  15.662  1.4746  1.8518 -0.8769
17621TIP3    H274279   4.004   2.891  15.624  0.6245 -1.5889  0.4018
17622TIP3   OH274280   2.038   2.986   5.650 -0.2954 -0.4957 -0.4224
17622TIP3    H174281   2.132   2.994   5.668 -0.2042  0.6721 -1.3147
17622TIP3    H274282   1.997   3.047   5.711 -0.3946 -0.2974 -0.6871
17623TIP3   OH274283   2.177   4.479  14.839 -0.1267 -0.3631 -1.0023
17623TIP3    H174284   2.167   4.538  14.764 -1.7133  0.6050 -0.0817
17623TIP3    H274285   2.168   4.535  14.916 -0.2468 -1.5934 -0.0864
17624TIP3   OH274286   6.038   4.138  14.830  0.0952  0.3169 -0.0405
17624TIP3    H174287   6.046   4.093  14.914  1.6225 -0.2981 -0.4787
17624TIP3    H274288   6.096   4.214  14.838  0.4658  0.1038 -0.6186
17625TIP3   OH274289   4.316   5.571   3.101  0.3820 -0.0233 -0.0188
17625TIP3    H174290   4.364   5.560   3.184 -0.7007  0.0104  0.6209
17625TIP3    H274291   4.307   5.481   3.067  0.2696 -0.0989  0.2124
17626TIP3   OH274292   5.002   4.763   5.181  0.7060  0.0100  0.7864
17626TIP3    H174293   4.910   4.779   5.161  0.4715 -0.5687  1.3737
17626TIP3    H274294   5.019   4.675   5.148  1.4261  0.6227 -0.5467
17627TIP3   OH274295   4.993   6.316  12.662  0.3412  0.0030  0.1986
17627TIP3    H174296   4.951   6.380  12.604  0.8123 -0.8591 -1.1297
17627TIP3    H274297   4.976   6.350  12.750 -0.2632  1.4337 -0.4259
17628TIP3   OH274298   1.353   4.417   1.951  0.0690  0.0542  0.2481
17628TIP3    H174299   1.273   4.469   1.942  0.3790  0.7776  1.5337
17628TIP3    H274300   1.407   4.445   1.877 -0.8066 -0.3851 -0.5892
17629TIP3   OH274301   5.354   6.028   5.512  0.2875  0.4329 -0.1837
17629TIP3    H174302   5.435   6.071   5.485  0.4743  1.1487  1.3929
17629TIP3    H274303   5.358   6.028   5.608 -1.0612 -0.5268 -0.1021
17630TIP3   OH274304   6.548   4.997   0.408 -0.6999 -0.0440  0.4093
17630TIP3    H174305   6.460   4.962   0.402 -0.2640 -1.2884  0.9154
17630TIP3    H274306   6.581   4.997   0.318 -1.1376  0.2445  0.2463
17631TIP3   OH274307   2.832   0.378  14.731  0.0453 -0.0602 -0.1492
17631TIP3    H174308   2.781   0.300  14.752 -0.7774  0.5856  0.3354
17631TIP3    H274309   2.790   0.414  14.653  0.8228 -0.4404 -0.7560
17632TIP3   OH274310   2.869   5.670  15.639  0.2303  0.3695 -0.0155
17632TIP3    H174311   2.964   5.679  15.641  0.2565  0.5364 -1.0575
17632TIP3    H274312   2.850   5.594  15.693  0.8622  0.9428  1.0320
17633TIP3   OH274313   6.221   2.946   2.893 -0.3843 -0.1677  0.0277
17633TIP3    H174314   6.313   2.960   2.916 -0.9396 -0.1222  2.4545
17633TIP3    H274315   6.211   2.851   2.892 -0.2163 -0.1842 -0.7466
17634TIP3   OH274316   4.991   4.249   2.787  0.3403 -0.2672  0.0850
17634TIP3    H174317   4.927   4.307   2.745  0.4600 -0.9944 -1.1395
17634TIP3    H274318   4.947   4.165   2.793  0.9670 -0.6188 -0.2070
17635TIP3   OH274319   4.121   0.110  13.182  0.2584 -0.1712  0.1702
17635TIP3    H174320   4.093   0.053  13.111  1.5442 -0.0551 -0.4601
17635TIP3    H274321   4.090   0.067  13.261  1.2874 -1.8259 -0.2765
17636TIP3   OH274322   5.227   4.182  15.566 -0.4002 -0.0912 -0.0868
17636TIP3    H174323   5.238   4.118  15.495 -2.7522 -0.1422 -0.4588
17636TIP3    H274324   5.167   4.140  15.627 -0.2169  0.8978  0.8051
17637TIP3   OH274325   5.505   2.763  12.756 -0.7778  0.4257 -0.2011
17637TIP3    H174326   5.515   2.757  12.851 -0.6530  0.6784 -0.1976
17637TIP3    H274327   5.416   2.734  12.740 -0.3547 -0.9507 -0.1428
17638TIP3   OH274328   2.887   0.025  13.188 -0.2439 -0.2165 -0.5091
17638TIP3    H174329   2.922   0.104  13.146 -0.7250  0.6163  0.6089
17638TIP3    H274330   2.956  -0.040  13.178  1.0420  0.9593  0.3311
17639TIP3   OH274331   2.986   0.824   0.630 -0.1661 -0.1052 -0.0331
17639TIP3    H174332   3.048   0.879   0.582  0.3088 -1.2511 -0.7661
17639TIP3    H274333   2.971   0.871   0.712  0.2686  1.0760 -0.6086
17640TIP3   OH274334   2.425   2.888  12.039 -0.1616 -0.0028 -0.1150
17640TIP3    H174335   2.445   2.981  12.036 -1.8783  0.5378  2.1990
17640TIP3    H274336   2.480   2.854  12.110 -1.4470 -0.1595  0.8395
17641TIP3   OH274337   4.030   5.206   0.872 -0.8270  0.7707  0.3377
17641TIP3    H174338   4.046   5.184   0.780 -2.6599  2.0194 -0.3383
17641TIP3    H274339   3.961   5.144   0.900  1.5061 -1.3915  1.7584
17642TIP3   OH274340   2.385   1.136  16.454  0.1222  0.1365  0.1496
17642TIP3    H174341   2.334   1.173  16.526  0.0836  1.7096 -0.6476
17642TIP3    H274342   2.408   1.212  16.400  2.5534 -0.6319  0.0075
17643TIP3   OH274343   1.630   3.920   0.205  0.5591 -0.0009  0.3549
17643TIP3    H174344   1.544   3.914   0.164  1.2722  0.6476 -1.3459
17643TIP3    H274345   1.618   3.982   0.277 -0.9348 -1.8285  1.7630
17644TIP3   OH274346   0.505   1.481  11.246  0.1187  0.0823 -0.1771
17644TIP3    H174347   0.549   1.443  11.170  0.6747  1.5577 -0.6248
17644TIP3    H274348   0.541   1.569  11.253 -0.1434  0.0731  1.6329
17645TIP3   OH274349   0.399   6.188  14.976 -0.0957  0.3168  0.5854
17645TIP3    H174350   0.385   6.216  14.885  1.2033  0.4688  0.4004
17645TIP3    H274351   0.328   6.127  14.994  0.2566 -0.6043 -0.9423
17646TIP3   OH274352   2.621   2.749   4.196  1.1756 -0.2796  0.4129
17646TIP3    H174353   2.657   2.665   4.221  0.3450 -0.3700  1.3584
17646TIP3    H274354   2.545   2.761   4.253  2.1010  1.7623  1.3239
17647TIP3   OH274355   5.802   1.812  12.546  0.5791  0.2014 -0.5329
17647TIP3    H174356   5.865   1.740  12.549 -0.2248 -0.5415 -0.6940
17647TIP3    H274357   5.854   1.890  12.528  1.3770 -0.4832 -1.2591
17648TIP3   OH274358   3.206   6.247  14.316  0.1418 -0.6380 -0.0566
17648TIP3    H174359   3.196   6.191  14.393  2.7771 -1.1440  0.0148
17648TIP3    H274360   3.262   6.197  14.257 -0.8171  0.2557 -1.8202
17649TIP3   OH274361   1.780   5.391   3.393  0.1142  0.0356  0.4866
17649TIP3    H174362   1.824   5.333   3.455 -1.0468  0.0777  1.3767
17649TIP3    H274363   1.707   5.428   3.442 -1.6821 -0.9622 -1.2871
17650TIP3   OH274364   6.375   2.472   5.571  0.1974  0.4444  0.2144
17650TIP3    H174365   6.301   2.429   5.614  0.2693  0.4260  0.3206
17650TIP3    H274366   6.422   2.515   5.643 -0.1253  1.0848  0.0529
17651TIP3   OH274367   2.808   5.451  16.817  0.4190 -0.1760  0.4135
17651TIP3    H174368   2.762   5.415  16.740  0.4309 -0.7444  0.6660
17651TIP3    H274369   2.794   5.545  16.811  1.3855 -0.0798 -0.9274
17652TIP3   OH274370   0.251   5.123   4.283 -0.7347 -0.0063 -0.0516
17652TIP3    H174371   0.231   5.155   4.195  0.8087 -3.7882 -2.0473
17652TIP3    H274372   0.347   5.117   4.285 -0.8069 -1.3381  1.3085
17653TIP3   OH274373   6.104   5.507  15.258  0.6424 -0.1142 -0.2715
17653TIP3    H174374   6.092   5.572  15.188  0.5080 -1.9799 -2.0609
17653TIP3    H274375   6.017   5.472  15.274  0.9216 -0.8495 -0.3366
17654TIP3   OH274376   0.592   4.292  14.435  0.5610 -0.6954 -0.0568
17654TIP3    H174377   0.523   4.279  14.371  1.0865  0.9174 -1.0168
17654TIP3    H274378   0.639   4.209  14.438 -1.5992 -1.9435  0.9086
17655TIP3   OH274379   0.952   6.376   3.138  0.1620 -0.0437  0.0675
17655TIP3    H174380   1.038   6.411   3.162  0.9343 -1.4374 -0.5141
17655TIP3    H274381   0.892   6.414   3.201  1.1217  1.3597  0.1829
17656TIP3   OH274382   1.611   2.935  14.361 -0.1341 -0.1104  0.4700
17656TIP3    H174383   1.548   2.972  14.422 -0.9255  1.2797 -1.1063
17656TIP3    H274384   1.564   2.930  14.278  1.1310 -1.2360 -0.2175
17657TIP3   OH274385   1.614   5.905   1.974 -0.2020 -0.1324  0.7050
17657TIP3    H174386   1.633   5.894   2.067  0.9417 -3.3217  0.2211
17657TIP3    H274387   1.520   5.888   1.966 -0.1460 -0.7333  1.2084
17658TIP3   OH274388   1.779   6.509   1.347  0.9005 -0.0528 -0.8223
17658TIP3    H174389   1.762   6.535   1.437  0.4968  1.0934 -1.2099
17658TIP3    H274390   1.800   6.416   1.352 -3.1054 -1.0953  0.0626
17659TIP3   OH274391   6.564   1.909   3.159 -0.0760  0.1147  0.0308
17659TIP3    H174392   6.637   1.955   3.200  0.5089 -0.3500 -0.4657
17659TIP3    H274393   6.535   1.847   3.226 -0.2991  0.5989  0.3855
17660TIP3   OH274394   4.298   0.100   4.379  0.2851 -0.1614  0.2370
17660TIP3    H174395   4.250   0.156   4.440  0.4000 -1.6157  1.7661
17660TIP3    H274396   4.389   0.107   4.407  0.3020 -1.0553  0.4576
17661TIP3   OH274397   3.710   4.966  17.305  0.4031 -0.0624 -0.8162
17661TIP3    H174398   3.660   5.047  17.296  0.6264  0.4948  2.1224
17661TIP3    H274399   3.644   4.897  17.305 -0.1942  0.4759  0.5944
17662TIP3   OH274400   2.556   4.329   1.226  0.2103  0.2828  0.2779
17662TIP3    H174401   2.602   4.252   1.191 -2.3849 -0.2232 -2.4588
17662TIP3    H274402   2.557   4.392   1.155 -2.7342  0.4314  0.2414
17663TIP3   OH274403   4.403   4.657   0.222 -0.1721  0.5708  0.0484
17663TIP3    H174404   4.382   4.589   0.286 -0.5310 -0.1882 -0.8577
17663TIP3    H274405   4.389   4.739   0.269  0.2129  0.0271  1.1418
17664TIP3   OH274406   2.648   4.512   4.852  0.0084 -0.0767 -0.2330
17664TIP3    H174407   2.671   4.436   4.799  0.1407  0.2993 -0.7275
17664TIP3    H274408   2.623   4.476   4.937  1.9669 -0.5232  0.1905
17665TIP3   OH274409   3.156   3.038   4.351 -0.0087 -0.6515  0.4868
17665TIP3    H174410   3.221   3.013   4.416  0.3593 -2.3726 -0.4745
17665TIP3    H274411   3.207   3.069   4.276 -0.2062 -2.3645 -0.4153
17666TIP3   OH274412   3.340   4.545  15.762 -0.0917  0.1023 -0.2902
17666TIP3    H174413   3.319   4.597  15.685 -0.2518 -2.2004 -1.9100
17666TIP3    H274414   3.426   4.508  15.743  0.2861  0.2144  1.0834
17667TIP3   OH274415   3.358   0.157   4.329  0.2515 -0.6796 -0.5640
17667TIP3    H174416   3.386   0.241   4.293  0.0854 -1.0924 -1.6694
17667TIP3    H274417   3.348   0.100   4.253 -1.2902 -1.2295  0.0204
17668TIP3   OH274418   5.173   0.046   4.418 -0.3468 -0.0241  0.4296
17668TIP3    H174419   5.125   0.012   4.494  0.1493  0.7607  1.1057
17668TIP3    H274420   5.222   0.120   4.452 -0.9028  0.9768 -0.8738
17669TIP3   OH274421   1.015   6.574  12.673  0.1854  0.2160 -0.2647
17669TIP3    H174422   0.932   6.540  12.641 -0.6745  0.8159  1.2539
17669TIP3    H274423   1.036   6.646  12.614 -1.0537  0.9106  0.1192
17670TIP3   OH274424   0.560   2.618   2.154 -0.0823  0.9118 -0.3840
17670TIP3    H174425   0.504   2.544   2.132  0.3888  0.2666  0.5468
17670TIP3    H274426   0.581   2.606   2.247 -0.1188  2.2896 -0.1723
17671TIP3   OH274427   3.567   3.920   1.305 -0.2635 -0.1283  0.0320
17671TIP3    H174428   3.527   3.870   1.375  0.8802 -0.8347  0.2096
17671TIP3    H274429   3.556   3.866   1.227 -1.5824  0.6796 -0.3686
17672TIP3   OH274430   4.645   5.598   5.616 -0.3801 -0.0692  0.0364
17672TIP3    H174431   4.668   5.617   5.707  0.0846 -0.7863  0.0758
17672TIP3    H274432   4.701   5.655   5.564 -1.5755  1.3095  0.2110
17673TIP3   OH274433   5.206   4.463   1.604 -0.7691  0.3976 -0.6035
17673TIP3    H174434   5.215   4.464   1.699 -1.2755  0.5551 -0.5560
17673TIP3    H274435   5.146   4.534   1.585  0.5984  1.4521 -1.1790
17674TIP3   OH274436   5.174   1.126   0.812 -0.2372 -0.0326 -0.2532
17674TIP3    H174437   5.107   1.058   0.810 -0.5249  0.2306  0.2037
17674TIP3    H274438   5.186   1.151   0.720  0.7020 -1.4930 -0.5726
17675TIP3   OH274439   1.995   6.735   6.128  0.1769 -0.5999  0.2627
17675TIP3    H174440   1.924   6.671   6.122 -0.8731  0.3431  1.8397
17675TIP3    H274441   2.054   6.699   6.194 -0.5951  0.1790  1.4081
17676TIP3   OH274442   2.877   2.343  17.017  0.5136 -0.1003  0.2635
17676TIP3    H174443   2.873   2.417  16.956  1.1406  0.6998  1.1641
17676TIP3    H274444   2.892   2.267  16.961  2.0617  0.7352 -0.5126
17677TIP3   OH274445   4.087   4.042  15.423 -1.0098 -0.1814 -0.6700
17677TIP3    H174446   4.094   3.999  15.338 -1.4703 -1.3615 -0.1292
17677TIP3    H274447   4.175   4.041  15.459 -0.6824  0.9316 -1.4130
17678TIP3   OH274448   4.920   4.919  13.825 -0.6076  1.0539 -0.4186
17678TIP3    H174449   4.905   4.836  13.779  2.9970  0.6153 -1.0520
17678TIP3    H274450   4.913   4.896  13.918 -0.5934  0.2471 -0.6065
17679TIP3   OH274451   1.751   3.317   0.580  0.1686  0.1824  0.8490
17679TIP3    H174452   1.785   3.388   0.635 -0.9049  0.3048  1.3943
17679TIP3    H274453   1.707   3.362   0.508 -0.6783  0.0979  1.2962
17680TIP3   OH274454   1.683   6.628  11.579  0.1280  0.2556 -0.4675
17680TIP3    H174455   1.703   6.632  11.672  1.3515 -0.1002 -0.6942
17680TIP3    H274456   1.761   6.589  11.539 -1.5756 -2.7288 -1.2405
17681TIP3   OH274457   4.557   0.058  17.160 -0.2177 -0.8854 -0.0317
17681TIP3    H174458   4.612   0.049  17.082  1.7540 -1.0332  1.2947
17681TIP3    H274459   4.589   0.137  17.203 -1.7229 -0.4330  0.3112
17682TIP3   OH274460   6.682   2.226  15.049 -0.6447 -0.0397 -0.0201
17682TIP3    H174461   6.652   2.136  15.062  1.7674 -0.9494 -0.1582
17682TIP3    H274462   6.661   2.245  14.958  0.6234 -1.2594 -0.6002
17683TIP3   OH274463   2.001   5.671  12.745  0.2374  0.6782 -0.4884
17683TIP3    H174464   2.053   5.640  12.819  0.8710  3.7292  0.4992
17683TIP3    H274465   2.065   5.682  12.674 -0.0830 -0.6725 -1.0175
17684TIP3   OH274466   4.836   4.563   5.643  0.2754  0.7568  0.3724
17684TIP3    H174467   4.782   4.492   5.676 -1.5283  1.5143 -0.7981
17684TIP3    H274468   4.906   4.520   5.595 -0.3337 -0.2359  0.3453
17685TIP3   OH274469   6.225   3.573  15.217 -0.1765  0.7273  0.1479
17685TIP3    H174470   6.305   3.600  15.262  0.8912 -0.5068 -0.9207
17685TIP3    H274471   6.195   3.496  15.265 -0.2524  0.6826  0.0301
17686TIP3   OH274472   3.006   3.055  17.103 -0.3037 -0.3032 -0.1256
17686TIP3    H174473   3.013   3.110  17.181  0.7698  1.3142 -1.3119
17686TIP3    H274474   3.091   3.065  17.059 -0.9281 -1.0827 -1.5710
17687TIP3   OH274475   5.144   4.879   2.042 -0.1785 -0.1840  0.2080
17687TIP3    H174476   5.194   4.821   2.100 -0.3917 -2.0783 -1.3801
17687TIP3    H274477   5.055   4.843   2.043 -0.7039  1.0771  0.3617
17688TIP3   OH274478   0.634   4.191   2.324  0.2002  0.0515  0.2910
17688TIP3    H174479   0.609   4.265   2.380  0.9403  1.2510 -0.8810
17688TIP3    H274480   0.690   4.231   2.257  1.0418 -1.6869 -0.0818
17689TIP3   OH274481   1.968   2.950  14.876  0.5432 -0.2609 -0.0213
17689TIP3    H174482   1.946   2.987  14.962  2.7359  1.6941 -0.1987
17689TIP3    H274483   1.904   2.989  14.817 -0.2444 -0.6807  0.5387
17690TIP3   OH274484   5.674   1.735   5.933 -0.5557  0.2041 -0.3425
17690TIP3    H174485   5.668   1.823   5.970 -0.8163  0.6723 -1.4555
17690TIP3    H274486   5.754   1.737   5.881 -0.3216 -0.3686 -0.0083
17691TIP3   OH274487   2.599   1.081  14.976 -0.3444 -0.2161 -0.2627
17691TIP3    H174488   2.550   1.154  14.940  0.8684  1.1393  0.7202
17691TIP3    H274489   2.560   1.065  15.062 -1.8191 -2.0201 -1.1831
17692TIP3   OH274490   5.309   5.920   0.598  0.2749 -0.3644  0.3479
17692TIP3    H174491   5.298   5.915   0.503 -2.3486  0.2622  0.5398
17692TIP3    H274492   5.304   6.014   0.617 -1.4967 -0.6009  1.2564
17693TIP3   OH274493   5.904   3.774  13.725  0.2680 -0.1467  0.1696
17693TIP3    H174494   5.863   3.860  13.729  0.7999  0.2576 -1.7267
17693TIP3    H274495   5.881   3.731  13.807 -1.0412  1.3380  0.6087
17694TIP3   OH274496   6.180   5.919   6.909  0.0862  0.3705  0.4523
17694TIP3    H174497   6.085   5.931   6.915  0.0881  2.2064 -1.9360
17694TIP3    H274498   6.193   5.825   6.923 -2.1509 -0.0402  0.0988
17695TIP3   OH274499   2.113   6.245   0.108 -0.0357 -0.3925  0.5546
17695TIP3    H174500   2.202   6.267   0.133  0.4732 -0.1809 -1.3376
17695TIP3    H274501   2.060   6.315   0.147  0.6567 -0.2193  1.2202
17696TIP3   OH274502   4.164   5.663   6.320  0.4495  0.1763 -0.7417
17696TIP3    H174503   4.125   5.676   6.407  1.8853  1.6301 -0.2767
17696TIP3    H274504   4.227   5.593   6.332  1.1605  0.8574 -0.4158
17697TIP3   OH274505   3.497   1.897   0.552 -0.2095  0.1270 -0.1460
17697TIP3    H174506   3.448   1.866   0.476 -0.6353 -0.3086  0.2963
17697TIP3    H274507   3.501   1.821   0.610 -1.0485  0.8167  0.8447
17698TIP3   OH274508   4.383   2.593  13.374  0.2454  0.3309  0.2520
17698TIP3    H174509   4.293   2.622  13.384  0.2644  1.4848 -2.1979
17698TIP3    H274510   4.413   2.575  13.463 -2.7192 -1.2642  1.0388
17699TIP3   OH274511   0.718   2.045   5.588  0.4093  0.1726 -0.0435
17699TIP3    H174512   0.680   1.958   5.583  0.1646  0.1734  1.3438
17699TIP3    H274513   0.740   2.056   5.681 -0.0281  1.7751 -0.1004
17700TIP3   OH274514   3.068   1.354   0.219  0.1930  0.4950  0.4448
17700TIP3    H174515   2.973   1.343   0.214  0.3462 -0.5323 -0.8842
17700TIP3    H274516   3.087   1.352   0.312 -0.8727 -1.6755  0.6876
17701TIP3   OH274517   3.165   1.918   4.355  0.8056  0.2462  0.6124
17701TIP3    H174518   3.155   1.839   4.302 -0.3785  0.2663  0.7754
17701TIP3    H274519   3.242   1.902   4.408  2.2702  0.3770 -1.3509
17702TIP3   OH274520   0.099   0.802  13.372  0.2582  0.8306  0.2875
17702TIP3    H174521   0.135   0.771  13.289  0.0355 -0.9138  0.8041
17702TIP3    H274522   0.066   0.889  13.352 -2.6573 -0.6670 -2.3558
17703TIP3   OH274523   5.446   5.933  15.676  0.2174  0.0007 -0.5722
17703TIP3    H174524   5.493   5.996  15.622  1.0154 -0.0347  0.0480
17703TIP3    H274525   5.376   5.900  15.620  0.4634  0.6318 -1.2666
17704TIP3   OH274526   3.227   6.747   0.155  0.1535 -0.4754 -0.3937
17704TIP3    H174527   3.233   6.668   0.209  2.2339 -0.0174  0.1062
17704TIP3    H274528   3.315   6.760   0.121 -0.5244  0.7435 -1.7991
17705TIP3   OH274529   2.298   3.294   0.839  0.2786 -0.0279 -0.1145
17705TIP3    H174530   2.279   3.316   0.930  0.7057 -0.9325  0.1979
17705TIP3    H274531   2.307   3.199   0.838 -0.2580 -0.0887 -1.2055
17706TIP3   OH274532   0.375   5.986  14.312  0.6619 -0.4370  0.0125
17706TIP3    H174533   0.408   6.074  14.327  1.5635 -0.8702  0.6414
17706TIP3    H274534   0.452   5.934  14.289  0.4154 -1.4253  1.3183
17707TIP3   OH274535   6.309   3.452   4.781 -0.1070  0.2452 -0.5986
17707TIP3    H174536   6.294   3.527   4.723 -0.5749  0.1675 -0.5876
17707TIP3    H274537   6.264   3.379   4.738 -0.1035  0.0933 -0.3481
17708TIP3   OH274538   5.957   4.330  10.623 -0.2788 -0.2459  0.0313
17708TIP3    H174539   5.987   4.275  10.551  0.0281  0.7260 -0.6013
17708TIP3    H274540   5.862   4.336  10.611 -0.3870 -1.0574  0.4183
17709TIP3   OH274541   2.338   6.000   3.297 -0.8683  1.0483  0.2990
17709TIP3    H174542   2.255   5.955   3.282 -1.0995  1.7857 -0.6666
17709TIP3    H274543   2.314   6.081   3.342 -0.8150  1.8239 -1.0219
17710TIP3   OH274544   4.378   3.413  11.135  0.1419 -0.4497 -0.4431
17710TIP3    H174545   4.356   3.371  11.218  0.1248  0.8185  0.2110
17710TIP3    H274546   4.355   3.348  11.069 -0.4403 -1.2408  0.5104
17711TIP3   OH274547   2.297   1.066   2.951  0.0962  0.0164 -0.0204
17711TIP3    H174548   2.353   0.989   2.965  0.3036  0.2866  0.6648
17711TIP3    H274549   2.311   1.120   3.028  0.7457  1.2439 -0.9666
17712TIP3   OH274550   6.348   0.964   0.936 -0.3580  0.1152 -0.3187
17712TIP3    H174551   6.280   0.992   0.875 -1.2170 -1.5292 -0.1839
17712TIP3    H274552   6.326   1.007   1.018 -1.6112 -0.8298 -0.1264
17713TIP3   OH274553   6.395   3.345  14.220 -0.6645 -0.2279 -0.1325
17713TIP3    H174554   6.372   3.342  14.313 -0.1734  0.7260  0.0357
17713TIP3    H274555   6.410   3.438  14.203  0.6604 -0.5549 -0.8288
17714TIP3   OH274556   4.054   0.596  15.371  0.3247 -0.0653  0.4865
17714TIP3    H174557   4.111   0.663  15.410  1.6435 -1.3953  0.9594
17714TIP3    H274558   4.110   0.519  15.365 -1.1920 -1.1638  0.0678
17715TIP3   OH274559   0.689   0.719   1.854 -0.4728  0.3722  0.2066
17715TIP3    H174560   0.652   0.805   1.875 -2.0201 -0.4423  1.0139
17715TIP3    H274561   0.677   0.668   1.934 -0.2081 -0.7918 -0.4689
17716TIP3   OH274562   6.344   2.349  14.728  0.3516 -0.0042 -0.0148
17716TIP3    H174563   6.314   2.351  14.637  0.5201 -0.6298 -0.0878
17716TIP3    H274564   6.325   2.437  14.762  0.4510  0.2849 -0.7025
17717TIP3   OH274565   2.876   0.225   0.282 -0.3775  0.8835  0.5706
17717TIP3    H174566   2.969   0.237   0.263 -0.1956 -1.2338 -0.1025
17717TIP3    H274567   2.856   0.137   0.251 -2.1752  0.5768  2.4003
17718TIP3   OH274568   0.705   2.791   1.221  0.4907  0.6589  0.0887
17718TIP3    H174569   0.726   2.769   1.312  2.4703 -1.2793 -0.7590
17718TIP3    H274570   0.714   2.886   1.217  1.6361  0.6551  1.6214
17719TIP3   OH274571   3.544   6.744  14.632 -0.1900 -0.0576  0.1692
17719TIP3    H174572   3.534   6.676  14.566 -1.1213 -0.2774  0.5250
17719TIP3    H274573   3.490   6.714  14.706 -0.6736  1.0867  0.3020
17720TIP3   OH274574   6.467   3.297   3.487  0.6014  0.3821  0.2578
17720TIP3    H174575   6.383   3.321   3.449  0.5856 -1.4492 -1.0022
17720TIP3    H274576   6.492   3.217   3.440  2.8613  0.6770  0.8695
17721TIP3   OH274577   3.235   1.291  17.103  1.0012 -0.2600  0.6105
17721TIP3    H174578   3.315   1.342  17.119 -0.4944  2.6242 -0.4415
17721TIP3    H274579   3.178   1.313  17.178 -0.2068  0.8774 -0.5893
17722TIP3   OH274580   5.347   6.623   3.738 -0.1525  0.1884 -0.6190
17722TIP3    H174581   5.288   6.548   3.740  0.4396 -0.2921  1.1588
17722TIP3    H274582   5.297   6.695   3.776  0.0970  0.0012  0.0879
17723TIP3   OH274583   4.352   5.761   2.384  0.7459 -0.2099  0.1903
17723TIP3    H174584   4.370   5.761   2.478  0.2785 -1.1776  0.2911
17723TIP3    H274585   4.372   5.851   2.356 -0.2502  0.4432  1.4388
17724TIP3   OH274586   0.274   2.549   0.648  0.0589  0.5633  0.6699
17724TIP3    H174587   0.348   2.545   0.708  0.8738 -1.4454 -0.3792
17724TIP3    H274588   0.284   2.473   0.591 -2.5482  0.4956  0.1519
17725TIP3   OH274589   0.825   2.202   2.275  0.0520  0.0398 -0.1079
17725TIP3    H174590   0.882   2.191   2.199 -1.2246  0.6000 -1.2003
17725TIP3    H274591   0.771   2.123   2.276 -0.2647  0.2538 -0.0835
17726TIP3   OH274592   4.287   5.292   0.962 -0.2883  0.0179 -0.7694
17726TIP3    H174593   4.233   5.243   0.901 -0.8397 -0.7609  0.3254
17726TIP3    H274594   4.249   5.276   1.047  2.3757 -1.6025  0.2488
17727TIP3   OH274595   6.305   1.265   4.762  0.6654 -0.4281 -0.2371
17727TIP3    H174596   6.350   1.250   4.679  0.0349 -1.3849 -0.4257
17727TIP3    H274597   6.212   1.271   4.738  0.6004  0.7224  0.2349
17728TIP3   OH274598   4.758   0.352   2.934  0.2476  0.0758 -0.6044
17728TIP3    H174599   4.727   0.262   2.924 -1.0583  0.2505  1.3718
17728TIP3    H274600   4.777   0.360   3.028  1.5404  1.5089 -0.9533
17729TIP3   OH274601   1.164   4.576  16.239  0.2424 -0.7934  0.0070
17729TIP3    H174602   1.177   4.588  16.333  1.2658 -2.8821  0.2023
17729TIP3    H274603   1.232   4.629  16.199 -0.2850  0.2209  0.4251
17730TIP3   OH274604   5.258   3.561  14.814 -0.3546  0.3568  0.4776
17730TIP3    H174605   5.284   3.631  14.873  0.1152  0.4704  0.1379
17730TIP3    H274606   5.219   3.607  14.739  0.4952  0.2892 -0.0156
17731TIP3   OH274607   5.486   3.701  14.908 -0.1819 -0.2798  0.6005
17731TIP3    H174608   5.549   3.681  14.976  1.5084  1.1143 -0.4748
17731TIP3    H274609   5.537   3.744  14.839 -2.1110 -0.0954 -0.8105
17732TIP3   OH274610   6.197   0.321   1.193  0.2575 -0.1508 -0.3450
17732TIP3    H174611   6.224   0.279   1.111  0.9324 -0.4775  0.0322
17732TIP3    H274612   6.132   0.386   1.166  1.8298  1.0717 -1.3986
17733TIP3   OH274613   6.124   6.156   0.669  0.1202  0.2472  0.0849
17733TIP3    H174614   6.134   6.061   0.668 -2.3320 -0.0748 -1.5681
17733TIP3    H274615   6.104   6.178   0.760 -1.4625 -1.1295  0.1071
17734TIP3   OH274616   4.868   0.967   4.704 -0.3424  0.2054  0.0902
17734TIP3    H174617   4.942   1.023   4.682 -0.2672 -0.0855 -0.4066
17734TIP3    H274618   4.807   0.976   4.631  0.7225 -2.1886 -1.2246
17735TIP3   OH274619   5.552   0.744  11.789 -0.1515 -0.2365  0.0204
17735TIP3    H174620   5.594   0.830  11.793  1.2017 -0.8033 -1.0278
17735TIP3    H274621   5.466   0.762  11.751  0.5225  0.5475 -1.2218
17736TIP3   OH274622   6.306   2.239   0.470 -0.0718  0.8272  1.1475
17736TIP3    H174623   6.229   2.197   0.431  0.9025 -1.0659  1.1397
17736TIP3    H274624   6.348   2.169   0.521  2.6569  1.2454 -0.3291
17737TIP3   OH274625   0.904   1.612   1.885 -0.1371  0.3183  0.5109
17737TIP3    H174626   0.983   1.644   1.927  0.3061 -0.6043  0.3903
17737TIP3    H274627   0.906   1.517   1.896 -1.5672  0.3276  1.0962
17738TIP3   OH274628   1.024   2.059   2.566 -0.8284  0.3850 -0.2070
17738TIP3    H174629   1.112   2.072   2.528 -0.3989 -0.2712  0.5333
17738TIP3    H274630   0.972   2.130   2.529 -0.4859 -0.3124 -2.1920
17739TIP3   OH274631   6.447   4.420  16.303 -0.1176  0.4388  0.5035
17739TIP3    H174632   6.387   4.492  16.320 -0.7992 -0.3310  1.5185
17739TIP3    H274633   6.401   4.342  16.334 -0.5357 -0.8691 -2.9230
17740TIP3   OH274634   6.204   1.295  11.464 -0.3016  0.4694  0.0055
17740TIP3    H174635   6.131   1.235  11.479 -0.0885  0.1544 -0.1915
17740TIP3    H274636   6.229   1.324  11.551  0.7134 -1.0949  0.2841
17741TIP3   OH274637   5.508   4.945  15.664 -0.0960 -0.0408  0.1834
17741TIP3    H174638   5.566   4.926  15.738 -1.9309  0.4990  1.8416
17741TIP3    H274639   5.495   5.039  15.667 -1.8122 -0.2548  0.4725
17742TIP3   OH274640   3.044   1.470  16.217 -0.0277  0.7737 -0.0091
17742TIP3    H174641   3.024   1.558  16.248 -0.6534  0.4367  0.5727
17742TIP3    H274642   3.077   1.424  16.294 -0.5396  0.2550 -0.0844
17743TIP3   OH274643   4.194   6.630   2.706 -0.0461 -0.7582  0.2179
17743TIP3    H174644   4.107   6.605   2.738  0.2466 -2.0129  0.1186
17743TIP3    H274645   4.245   6.549   2.712  1.0228 -0.1153 -0.0303
17744TIP3   OH274646   2.296   5.722   1.664 -0.2371  0.2507  0.1714
17744TIP3    H174647   2.356   5.684   1.729  0.4255  0.6020 -0.2262
17744TIP3    H274648   2.333   5.808   1.646  0.2319 -0.2875 -1.5380
17745TIP3   OH274649   5.631   5.412   1.315 -0.1217  0.5133  0.0003
17745TIP3    H174650   5.629   5.438   1.223 -0.6949  0.4012 -0.0197
17745TIP3    H274651   5.636   5.494   1.363 -0.4387  0.6007 -0.1123
17746TIP3   OH274652   3.552   1.049   3.445  0.3581 -0.2569  0.2227
17746TIP3    H174653   3.603   1.095   3.379  0.5060 -0.5108  0.1595
17746TIP3    H274654   3.568   1.096   3.526 -0.0899  0.2632  0.0169
17747TIP3   OH274655   4.742   4.468  16.976  0.0981  0.1579  0.2353
17747TIP3    H174656   4.782   4.545  17.018  0.2646 -0.3493  1.0191
17747TIP3    H274657   4.730   4.405  17.047  3.3635 -2.0131 -0.8919
17748TIP3   OH274658   5.475   0.245   0.181  0.0911  0.2941  0.2624
17748TIP3    H174659   5.385   0.265   0.207  0.5462  0.1146  2.1880
17748TIP3    H274660   5.485   0.283   0.094 -1.1899  2.2848  0.9099
17749TIP3   OH274661   1.450   1.274  12.680 -0.1675  0.4852 -0.2132
17749TIP3    H174662   1.451   1.359  12.637  0.7948  0.3294 -0.5102
17749TIP3    H274663   1.520   1.279  12.745 -1.1002  0.4475  0.8181
17750TIP3   OH274664   2.723   1.643  10.614 -0.3681  0.2082 -0.3782
17750TIP3    H174665   2.635   1.623  10.648 -1.3261  1.0289 -2.2137
17750TIP3    H274666   2.774   1.564  10.634 -0.9237  0.4419  2.4606
17751TIP3   OH274667   3.569   3.520  16.250 -0.2667  0.3308  0.9610
17751TIP3    H174668   3.663   3.503  16.261 -0.5922 -0.7805  2.2761
17751TIP3    H274669   3.538   3.446  16.197 -0.2576  1.1774 -0.2597
17752TIP3   OH274670   0.269   3.159  15.374  0.2299  0.2976 -0.3002
17752TIP3    H174671   0.208   3.148  15.301  0.9914  0.9234 -1.0356
17752TIP3    H274672   0.259   3.078  15.425 -0.9007  0.2054 -0.6316
17753TIP3   OH274673   0.512   2.737  11.494  0.6226  0.4309 -0.4273
17753TIP3    H174674   0.421   2.706  11.493  0.8502 -0.2357 -0.8471
17753TIP3    H274675   0.505   2.830  11.516 -0.1732  0.4263 -0.6313
17754TIP3   OH274676   2.854   3.190  12.574 -0.2052 -0.9925  0.0425
17754TIP3    H174677   2.900   3.137  12.509  1.3590 -1.2132  1.2653
17754TIP3    H274678   2.836   3.129  12.646  2.7554  0.2643  2.0311
17755TIP3   OH274679   0.564   3.643   0.077  0.5330  0.0595 -0.0340
17755TIP3    H174680   0.539   3.595   0.156 -0.6829  1.1289  0.2671
17755TIP3    H274681   0.575   3.576   0.010 -0.8467 -0.6644  0.4314
17756TIP3   OH274682   6.400   6.504  12.529 -0.1525  0.3898  0.2348
17756TIP3    H174683   6.484   6.489  12.573  0.2968  2.4463  0.1928
17756TIP3    H274684   6.405   6.451  12.449  1.3153  0.7903  0.0215
17757TIP3   OH274685   0.633   4.196   5.722  0.1083 -0.1043 -0.2595
17757TIP3    H174686   0.643   4.120   5.665  1.4984 -0.7088  0.7408
17757TIP3    H274687   0.552   4.180   5.770  0.5283 -1.1132  0.1436
17758TIP3   OH274688   0.968   1.928  13.759 -0.4112  0.2688 -0.3468
17758TIP3    H174689   1.019   1.873  13.819 -1.7599  0.8510  1.4195
17758TIP3    H274690   0.889   1.876  13.741  0.1605 -0.0728 -1.9908
17759TIP3   OH274691   0.386   6.731   5.885  0.2303  0.4467  0.2173
17759TIP3    H174692   0.385   6.794   5.957 -0.5777  0.3360  0.3085
17759TIP3    H274693   0.479   6.716   5.868  0.4287  0.9144  0.8485
17760TIP3   OH274694   0.281   0.855   0.569  0.2422  0.6179 -0.0036
17760TIP3    H174695   0.242   0.941   0.580  1.4720  1.0465  1.2878
17760TIP3    H274696   0.279   0.817   0.657  2.2270  0.4629  0.0087
17761TIP3   OH274697   3.558   3.951  13.282 -0.2852  0.1423 -0.4344
17761TIP3    H174698   3.494   3.978  13.348 -0.3856  0.1002 -0.5147
17761TIP3    H274699   3.605   3.879  13.323 -1.5758 -1.1189 -1.0931
17762TIP3   OH274700   5.226   1.016  11.260 -0.0171  0.0137  0.1822
17762TIP3    H174701   5.247   1.086  11.198  0.4278 -1.8437 -1.8647
17762TIP3    H274702   5.277   0.941  11.230 -1.4914 -1.5907  1.4994
17763TIP3   OH274703   3.098   0.241  15.096 -0.2761  0.0128  0.5558
17763TIP3    H174704   3.004   0.234  15.113 -0.4487  0.6571 -0.0722
17763TIP3    H274705   3.135   0.268  15.180 -0.5570 -0.8825  0.9812
17764TIP3   OH274706   0.835   2.061   3.204 -0.0993  0.2388  0.5128
17764TIP3    H174707   0.752   2.063   3.252 -0.3650  0.1247  0.0663
17764TIP3    H274708   0.899   2.031   3.268 -0.5689 -0.5654  0.6234
17765TIP3   OH274709   5.183   2.170   5.120  0.2642  0.0973  0.3935
17765TIP3    H174710   5.155   2.096   5.174  0.0200 -0.9935 -1.1393
17765TIP3    H274711   5.252   2.212   5.171  1.1487 -1.8275  0.9022
17766TIP3   OH274712   1.726   3.687  11.590  0.2921 -0.1851  0.4890
17766TIP3    H174713   1.706   3.597  11.615  0.2625 -0.5482 -0.7715
17766TIP3    H274714   1.821   3.689  11.579  0.3468  0.0669  0.9678
17767TIP3   OH274715   6.075   3.836   3.973 -0.0886  0.3353 -0.2304
17767TIP3    H174716   5.995   3.821   4.022 -0.5660 -0.4718 -1.2003
17767TIP3    H274717   6.048   3.829   3.881  0.8452  1.3718 -0.5999
17768TIP3   OH274718   2.983   0.685   6.693  0.1370 -0.3135 -0.0084
17768TIP3    H174719   3.011   0.636   6.616  0.8723  3.0770 -2.1252
17768TIP3    H274720   2.893   0.656   6.710 -0.1274 -1.0078 -2.3139
17769TIP3   OH274721   1.968   2.640   6.354  0.8078 -0.2338  0.8610
17769TIP3    H174722   1.935   2.641   6.264  0.6861  0.3792  0.9091
17769TIP3    H274723   1.981   2.732   6.376 -0.8036 -0.2560  2.0649
17770TIP3   OH274724   0.138   5.722  16.511 -0.2001  0.1093 -0.0420
17770TIP3    H174725   0.123   5.797  16.568  0.3462 -1.2013  1.9026
17770TIP3    H274726   0.188   5.660  16.564  0.9242 -0.9233 -2.1607
17771TIP3   OH274727   4.719   0.654  11.368 -0.8114 -0.6918 -0.0087
17771TIP3    H174728   4.746   0.701  11.289 -1.6034 -1.6376 -0.8739
17771TIP3    H274729   4.690   0.722  11.429 -0.0938  0.0526 -0.4902
17772TIP3   OH274730   1.689   4.614  14.264 -0.1499 -0.2817 -0.7172
17772TIP3    H174731   1.775   4.638  14.299 -1.4252  0.4198  2.2906
17772TIP3    H274732   1.669   4.530  14.305 -1.2518 -0.0074 -0.6413
17773TIP3   OH274733   4.891   0.099  13.912  0.1111 -0.7265 -0.2577
17773TIP3    H174734   4.870   0.154  13.837 -3.3857  0.6778  1.5703
17773TIP3    H274735   4.942   0.155  13.970 -0.7143 -0.4201  0.1880
17774TIP3   OH274736   2.839   0.438   3.139  0.0023 -0.0577 -0.0523
17774TIP3    H174737   2.824   0.383   3.216  1.7828  0.4993  0.7738
17774TIP3    H274738   2.756   0.483   3.125 -0.1649  0.4519  2.1136
17775TIP3   OH274739   2.075   4.763  11.257  0.4662  0.2290 -0.5129
17775TIP3    H174740   2.074   4.838  11.317  0.0126  0.5346 -0.8953
17775TIP3    H274741   2.087   4.802  11.170 -1.4462  0.0325 -0.9198
17776TIP3   OH274742   4.040   0.520  17.089  0.1345 -0.2154 -0.0863
17776TIP3    H174743   4.053   0.467  17.011 -0.1393 -0.1859 -0.1523
17776TIP3    H274744   4.039   0.610  17.057  2.3324 -0.0125  0.2189
17777TIP3   OH274745   0.189   4.438   2.018  0.3394 -0.1971  0.0057
17777TIP3    H174746   0.118   4.383   1.986  1.0721 -1.5721  0.6566
17777TIP3    H274747   0.158   4.472   2.101  0.0898 -0.0464 -0.1480
17778TIP3   OH274748   0.974   5.789   2.356 -0.1131 -0.5184 -0.2752
17778TIP3    H174749   0.904   5.825   2.302 -0.8021 -0.7564  0.4465
17778TIP3    H274750   0.987   5.700   2.321 -2.0363 -1.4791  1.2547
17779TIP3   OH274751   5.792   0.264  14.443 -0.3903 -0.7069 -0.4163
17779TIP3    H174752   5.749   0.221  14.368 -1.7818 -0.1954  0.0514
17779TIP3    H274753   5.788   0.199  14.513 -1.0685 -0.4125 -0.1700
17780TIP3   OH274754   6.504   6.295  12.773 -0.3231  0.3951  0.2402
17780TIP3    H174755   6.540   6.374  12.815 -1.7943  1.0355  0.3399
17780TIP3    H274756   6.518   6.226  12.838 -0.1452  0.8269  0.6754
17781TIP3   OH274757   2.034   1.128   1.088 -0.4128 -0.0139 -0.3127
17781TIP3    H174758   1.995   1.109   1.173  0.3653  0.6084  0.1972
17781TIP3    H274759   2.083   1.050   1.065  2.3195  1.0150  1.5117
17782TIP3   OH274760   1.360   1.307   4.311  0.2617  0.3835  0.0443
17782TIP3    H174761   1.316   1.256   4.243  0.2071 -0.3138  0.5917
17782TIP3    H274762   1.353   1.253   4.390  0.1661  1.2498  0.6509
17783TIP3   OH274763   1.337   0.909   4.685  0.4433 -0.1771 -0.5519
17783TIP3    H174764   1.386   0.844   4.735 -0.3636  1.0384  1.9552
17783TIP3    H274765   1.261   0.862   4.652 -0.5985 -0.3943  1.9789
17784TIP3   OH274766   0.384   3.268   1.991  0.2531  0.7682 -0.2595
17784TIP3    H174767   0.435   3.223   1.924 -1.7195 -0.9293 -0.7058
17784TIP3    H274768   0.356   3.199   2.051  0.4070  1.9951  1.2925
17785TIP3   OH274769   6.586   1.974   1.665  0.2825 -0.0023  0.9156
17785TIP3    H174770   6.499   1.953   1.700  0.0570  1.0483  1.0330
17785TIP3    H274771   6.630   1.890   1.657 -2.7704 -1.6005 -4.8248
17786TIP3   OH274772   4.793   2.783   6.419  0.0123  0.3498 -0.5591
17786TIP3    H174773   4.824   2.802   6.508 -1.4850 -2.9266  0.8530
17786TIP3    H274774   4.704   2.819   6.417 -1.3686 -2.5933  0.7604
17787TIP3   OH274775   2.369   0.173  17.099  0.6448 -0.4174  0.0312
17787TIP3    H174776   2.292   0.171  17.155  0.6727 -1.2206  0.0557
17787TIP3    H274777   2.439   0.203  17.157  0.8235 -1.9294  0.6522
17788TIP3   OH274778   2.392   4.836  15.696 -0.2879 -0.1100 -0.9639
17788TIP3    H174779   2.466   4.778  15.714 -1.6688 -1.3847  1.0155
17788TIP3    H274780   2.427   4.924  15.706  1.1512 -0.6568 -0.9649
17789TIP3   OH274781   1.010   4.588  11.396 -0.0275 -0.1903 -0.1054
17789TIP3    H174782   0.996   4.676  11.430  1.0799 -0.0070 -0.0883
17789TIP3    H274783   0.927   4.542  11.413 -0.3332  0.6040  0.6093
17790TIP3   OH274784   0.606   2.220   0.176  0.4528 -0.2054  0.5487
17790TIP3    H174785   0.515   2.192   0.186 -0.1168  1.5790  0.7423
17790TIP3    H274786   0.651   2.185   0.253 -0.2049 -0.5873  0.7650
17791TIP3   OH274787   0.783   4.358   4.177 -0.2832  0.0859  0.1606
17791TIP3    H174788   0.851   4.424   4.163  0.6686 -1.0056 -0.4395
17791TIP3    H274789   0.709   4.408   4.212  0.2852  1.5312 -0.6169
17792TIP3   OH274790   4.009   1.947  15.243  0.8992  0.2810 -0.2544
17792TIP3    H174791   4.083   1.967  15.300 -0.4984  0.8718  1.4510
17792TIP3    H274792   3.943   1.911  15.302 -0.4892  0.5749 -1.5754
17793TIP3   OH274793   0.213   0.411   0.882 -0.0778  0.1454 -0.0273
17793TIP3    H174794   0.256   0.332   0.915 -1.8515 -0.3106  1.3499
17793TIP3    H274795   0.143   0.429   0.946 -1.4457  1.2753 -1.7542
17794TIP3   OH274796   4.885   2.577   4.037  0.5970  0.5375  0.2768
17794TIP3    H174797   4.799   2.614   4.056 -1.3443 -2.4988 -1.5369
17794TIP3    H274798   4.901   2.515   4.108 -0.6967 -1.7101 -1.2663
17795TIP3   OH274799   0.370   6.488  16.806  0.1322 -0.4049 -0.2587
17795TIP3    H174800   0.419   6.426  16.860 -2.0225 -3.2714 -1.3988
17795TIP3    H274801   0.420   6.495  16.725  0.3635 -0.6540 -0.1372
17796TIP3   OH274802   3.312   3.920   2.437 -0.8115 -0.5383  0.2920
17796TIP3    H174803   3.263   3.915   2.519  0.2283  2.1749  1.1702
17796TIP3    H274804   3.245   3.935   2.369 -1.5871 -1.8670  0.7241
17797TIP3   OH274805   1.427   0.455   0.768 -0.4100  0.0318 -0.0431
17797TIP3    H174806   1.351   0.505   0.797  0.9562  2.3942 -0.3037
17797TIP3    H274807   1.396   0.406   0.692 -1.8623  0.2632  0.3654
17798TIP3   OH274808   1.044   2.716   3.151  0.0577  0.7453  0.3091
17798TIP3    H174809   0.949   2.715   3.140 -0.0056  2.3588  0.5059
17798TIP3    H274810   1.077   2.656   3.084 -1.2037 -1.7469  1.7639
17799TIP3   OH274811   4.039   0.414   4.878 -0.5160 -0.3041 -0.5400
17799TIP3    H174812   4.046   0.509   4.865 -1.7566 -0.0275  0.5892
17799TIP3    H274813   4.123   0.389   4.917 -0.7121  0.6048  0.5195
17800TIP3   OH274814   0.303   4.709  15.256  0.3262 -0.5210 -0.4416
17800TIP3    H174815   0.326   4.718  15.349  0.6601 -0.2010 -0.5567
17800TIP3    H274816   0.383   4.730  15.209  0.4096 -1.5676 -0.7830
17801TIP3   OH274817   5.974   4.809  16.548 -0.5858  0.1429 -0.1134
17801TIP3    H174818   5.995   4.851  16.631 -0.0619 -1.2451  0.4781
17801TIP3    H274819   5.964   4.717  16.569  1.3967 -0.5617 -1.8873
17802TIP3   OH274820   2.197   2.447   1.817 -0.0003 -0.5869  0.1531
17802TIP3    H174821   2.230   2.473   1.731 -0.5453 -1.6359 -0.3932
17802TIP3    H274822   2.220   2.520   1.875 -0.9879  0.8602 -1.2039
17803TIP3   OH274823   3.221   4.681  16.599  0.4241  0.6486  0.2015
17803TIP3    H174824   3.206   4.614  16.666 -0.2895  0.8721  0.2634
17803TIP3    H274825   3.304   4.655  16.559 -0.3661 -0.8991 -0.5098
17804TIP3   OH274826   3.515   5.086  15.577  0.2770  0.0962 -0.7801
17804TIP3    H174827   3.605   5.092  15.546  0.8567  1.8855  1.0880
17804TIP3    H274828   3.521   5.045  15.663 -0.6741  0.5168 -0.4995
17805TIP3   OH274829   0.186   2.896  15.496  0.1364 -0.2011 -0.1337
17805TIP3    H174830   0.105   2.853  15.521  0.2397 -0.8895 -0.9556
17805TIP3    H274831   0.212   2.854  15.415  0.8824  0.5844 -0.3196
17806TIP3   OH274832   4.785   3.008  16.964 -0.0547  0.1243 -0.6456
17806TIP3    H174833   4.694   2.989  16.941 -0.0374 -0.0818 -0.5447
17806TIP3    H274834   4.784   3.098  16.996 -0.2028  0.1644 -0.7644
17807TIP3   OH274835   2.299   0.231   2.518 -0.5249  0.4546 -0.1992
17807TIP3    H174836   2.274   0.143   2.547  0.8616 -0.2933 -1.1222
17807TIP3    H274837   2.368   0.258   2.580 -0.0068  0.3113 -0.7019
17808TIP3   OH274838   4.870   0.355   0.586 -0.2051 -0.1823 -0.0671
17808TIP3    H174839   4.807   0.368   0.656  0.9896  0.8710  0.8650
17808TIP3    H274840   4.867   0.262   0.567 -2.3349 -0.1051 -0.3771
17809TIP3   OH274841   3.702   0.198   4.878 -0.2370 -0.1985 -0.3063
17809TIP3    H174842   3.749   0.253   4.816 -3.1335  1.3659 -1.3406
17809TIP3    H274843   3.723   0.235   4.964  2.1417 -1.0379 -0.4777
17810TIP3   OH274844   0.857   6.009  16.062 -0.2070  0.4470 -0.2715
17810TIP3    H174845   0.774   6.043  16.096 -0.7898 -1.4279  0.3182
17810TIP3    H274846   0.831   5.942  15.998  0.8776  0.7735 -1.0867
17811TIP3   OH274847   1.976   1.225   6.474 -0.5758 -1.1528  0.4292
17811TIP3    H174848   1.996   1.132   6.464 -1.8563 -1.3665 -0.4436
17811TIP3    H274849   2.034   1.268   6.411 -2.6104 -1.7600 -2.0564
17812TIP3   OH274850   4.970   5.155  15.520  0.5390  0.1870  0.5080
17812TIP3    H174851   4.910   5.230  15.514  0.8157  0.4440  0.8951
17812TIP3    H274852   4.998   5.154  15.611  0.9603 -0.0628  0.3772
17813TIP3   OH274853   6.529   4.293  12.088 -0.0666 -0.5392 -0.1332
17813TIP3    H174854   6.511   4.228  12.157 -0.0341 -0.1874  0.2107
17813TIP3    H274855   6.445   4.335  12.073  0.0859 -0.1107  0.2129
17814TIP3   OH274856   5.517   5.236   3.354 -0.1560 -0.1346 -0.3881
17814TIP3    H174857   5.569   5.296   3.407 -0.6390  0.9146 -1.0860
17814TIP3    H274858   5.577   5.164   3.334  1.5825  1.7715 -2.5193
17815TIP3   OH274859   2.739   6.480  14.218 -0.2051 -0.5593 -0.2680
17815TIP3    H174860   2.682   6.435  14.280 -0.1499 -0.1904  0.0486
17815TIP3    H274861   2.828   6.458  14.246 -0.1603  0.4937  0.4481
17816TIP3   OH274862   4.230   0.446  13.412  0.3465  0.1198 -0.1185
17816TIP3    H174863   4.262   0.398  13.336 -0.6414 -1.0463  0.1678
17816TIP3    H274864   4.135   0.441  13.406  0.2434  0.7950  0.7089
17817TIP3   OH274865   5.372   2.587   0.992 -0.3189  0.1019  0.5334
17817TIP3    H174866   5.284   2.587   0.954  0.1652  0.8749 -0.6672
17817TIP3    H274867   5.421   2.524   0.938  0.0963  0.3877  0.5693
17818TIP3   OH274868   0.160   6.537   3.809 -0.3196  0.1546  0.0211
17818TIP3    H174869   0.113   6.571   3.733 -0.6448  0.2849  0.2755
17818TIP3    H274870   0.220   6.608   3.833  0.1945 -0.1142 -0.4611
17819TIP3   OH274871   4.100   4.302   2.390  0.8056 -0.2246  0.1792
17819TIP3    H174872   4.038   4.233   2.414 -0.7393  1.2986  0.8103
17819TIP3    H274873   4.161   4.305   2.464 -0.2042  0.2671  1.0262
17820TIP3   OH274874   2.938   4.048   0.775  0.1051  0.5032  0.0038
17820TIP3    H174875   2.892   3.995   0.710  0.8888  2.2145 -2.0352
17820TIP3    H274876   2.869   4.085   0.829 -0.5498 -1.0248  0.2724
17821TIP3   OH274877   4.230   3.504   6.204 -0.0477  0.6869 -0.2501
17821TIP3    H174878   4.284   3.454   6.265  1.4979  1.3941 -0.9810
17821TIP3    H274879   4.282   3.582   6.184 -0.8068  0.8013 -1.9431
17822TIP3   OH274880   4.602   0.747  16.851 -0.2591 -0.0473  0.0905
17822TIP3    H174881   4.513   0.783  16.843 -0.4371 -0.4319  0.3243
17822TIP3    H274882   4.627   0.764  16.941  0.0755  0.4423 -0.0920
17823TIP3   OH274883   5.759   1.544   2.757 -0.6555 -0.5242 -0.0373
17823TIP3    H174884   5.831   1.510   2.811 -0.4913  0.2878  0.2612
17823TIP3    H274885   5.680   1.517   2.804 -0.5108  0.6799  0.9438
17824TIP3   OH274886   3.241   5.277   1.800 -0.0408 -0.1653  0.3524
17824TIP3    H174887   3.175   5.235   1.744  0.4083 -0.0805 -0.2553
17824TIP3    H274888   3.219   5.370   1.798  0.0523 -0.1452  0.1986
17825TIP3   OH274889   4.825   5.391  15.435 -0.2586  0.3154  0.4110
17825TIP3    H174890   4.837   5.486  15.427 -0.3372  0.3342  0.5197
17825TIP3    H274891   4.744   5.381  15.485 -0.0240  0.1929  0.7710
17826TIP3   OH274892   3.491   3.326  11.410 -0.6763  0.3787  0.0889
17826TIP3    H174893   3.451   3.289  11.489  1.2650 -0.0070  0.9750
17826TIP3    H274894   3.544   3.254  11.375 -0.0335  1.1071 -0.4765
17827TIP3   OH274895   1.777   2.008   1.315  0.3663  0.0509  0.6983
17827TIP3    H174896   1.757   2.091   1.358 -2.9674  0.0747 -0.6018
17827TIP3    H274897   1.708   1.998   1.249  2.2415 -2.4627 -1.0601
17828TIP3   OH274898   0.060   0.928   3.774 -0.5236  0.9392  0.2811
17828TIP3    H174899   0.039   0.922   3.867 -0.7217 -2.1184  0.1437
17828TIP3    H274900  -0.020   0.960   3.733  0.0071  3.7371  1.2125
17829TIP3   OH274901   4.644   1.622  14.197 -0.6583  0.1614  0.3092
17829TIP3    H174902   4.642   1.527  14.211  1.0536  0.0088 -0.2681
17829TIP3    H274903   4.667   1.658  14.283 -0.2994 -0.0341  0.2988
17830TIP3   OH274904   3.621   3.081  11.291  0.4565  0.6149 -0.4146
17830TIP3    H174905   3.649   3.148  11.230 -1.2620  0.0268 -1.9194
17830TIP3    H274906   3.685   3.010  11.280  0.8105  0.9727 -0.6814
17831TIP3   OH274907   0.039   4.053   1.249  0.3267 -0.2100  0.1389
17831TIP3    H174908   0.008   4.069   1.160  0.0635  0.0469  0.2734
17831TIP3    H274909   0.034   4.138   1.292  0.4259 -0.3381  0.4076
17832TIP3   OH274910   3.070   4.073   1.301  0.0629  0.2739  0.4661
17832TIP3    H174911   3.119   4.139   1.350  1.5399 -1.0934  0.8758
17832TIP3    H274912   3.037   4.012   1.367  0.7223 -0.7077 -0.0835
17833TIP3   OH274913   2.813   5.326   1.739 -0.4359  0.0883 -0.1334
17833TIP3    H174914   2.875   5.274   1.791  0.0963 -0.3740 -1.2056
17833TIP3    H274915   2.742   5.265   1.718 -0.4897  0.1819 -0.2265
17834TIP3   OH274916   5.094   1.759  12.656 -0.1532  0.0337  0.0439
17834TIP3    H174917   5.101   1.811  12.736  0.2165  1.8776 -1.1085
17834TIP3    H274918   5.003   1.770  12.628 -0.4375 -1.0805  0.4884
17835TIP3   OH274919   4.419   4.700   3.909 -0.1134 -0.0713  0.8681
17835TIP3    H174920   4.462   4.615   3.895  0.4201  0.1787  0.9642
17835TIP3    H274921   4.334   4.691   3.865  0.3647 -0.2904 -0.0435
17836TIP3   OH274922   1.263   1.322   2.669  0.7270 -0.0617  0.1892
17836TIP3    H174923   1.346   1.363   2.646  1.2617 -0.5992  1.1053
17836TIP3    H274924   1.287   1.237   2.704 -0.1477  0.0842  1.2005
17837TIP3   OH274925   6.732   1.617   2.657  1.0875  0.1906  0.3105
17837TIP3    H174926   6.802   1.562   2.621  2.1533  0.4863  1.8089
17837TIP3    H274927   6.652   1.583   2.618  2.0940  0.1431 -1.8220
17838TIP3   OH274928   5.542   3.107  11.517 -0.4523  0.4491 -0.0316
17838TIP3    H174929   5.550   3.039  11.584 -1.0037  1.8306  1.5067
17838TIP3    H274930   5.633   3.129  11.495 -0.2374  0.4873  0.8421
17839TIP3   OH274931   4.285   6.441   5.742  0.1440  0.3344  0.5165
17839TIP3    H174932   4.369   6.463   5.781 -0.2148  1.9081  0.4584
17839TIP3    H274933   4.292   6.471   5.651  0.6398 -2.4567 -0.4720
17840TIP3   OH274934   1.855   0.641   2.355 -0.0571  0.3137  0.2213
17840TIP3    H174935   1.876   0.550   2.337 -0.6006 -0.2447  2.1345
17840TIP3    H274936   1.917   0.668   2.422  1.2068  1.9342 -1.4871
17841TIP3   OH274937   5.831   5.411   5.423  0.6829  0.3326 -0.0559
17841TIP3    H174938   5.915   5.442   5.456  1.1983  3.0683 -3.3652
17841TIP3    H274939   5.853   5.337   5.366  0.5407 -0.3355  0.7384
17842TIP3   OH274940   3.576   3.282  15.890 -0.4520 -0.2969 -0.7211
17842TIP3    H174941   3.537   3.361  15.928 -1.2800 -0.9284 -0.2145
17842TIP3    H274942   3.504   3.219  15.887  0.6614 -1.7569  0.9369
17843TIP3   OH274943   2.661   1.131   3.570  0.5839 -0.7146  0.4139
17843TIP3    H174944   2.750   1.144   3.537  0.5414 -0.2719  0.4581
17843TIP3    H274945   2.670   1.135   3.665  0.7167 -2.0555  0.4738
17844TIP3   OH274946   4.977   5.392  11.521  0.6414 -0.3576  0.5162
17844TIP3    H174947   5.040   5.463  11.514  1.1050 -0.7751  0.3866
17844TIP3    H274948   4.962   5.365  11.430  0.0933 -0.1013  0.5300
17845TIP3   OH274949   4.973   1.592   5.817  0.4591 -0.0994 -0.1839
17845TIP3    H174950   5.053   1.601   5.764  0.3157  2.4773 -0.0818
17845TIP3    H274951   5.001   1.615   5.905 -0.0671 -0.8185  0.1703
17846TIP3   OH274952   0.625   1.098  13.135  0.6841 -0.2214 -0.4793
17846TIP3    H174953   0.639   1.031  13.201  1.1099 -0.3188 -0.6633
17846TIP3    H274954   0.615   1.049  13.053 -0.6549 -0.1495 -0.3771
17847TIP3   OH274955   5.357   0.443  17.107 -0.7228  0.2402 -0.4681
17847TIP3    H174956   5.265   0.416  17.111 -0.5745 -0.1974  0.2581
17847TIP3    H274957   5.363   0.500  17.030 -1.8449  1.2245  0.1528
17848TIP3   OH274958   5.631   2.271  15.549  0.3463  0.3178  0.0525
17848TIP3    H174959   5.614   2.335  15.618  1.5996  1.3506 -0.5625
17848TIP3    H274960   5.597   2.188  15.584  3.8647 -0.0010  3.4404
17849TIP3   OH274961   3.527   1.317   3.075 -0.7368 -0.4386 -0.1155
17849TIP3    H174962   3.586   1.310   3.150 -0.8155 -0.4702 -0.0565
17849TIP3    H274963   3.541   1.406   3.042  2.3767 -1.7002 -2.6218
17850TIP3   OH274964   3.407   0.093   1.476 -0.1298  0.4382  1.0473
17850TIP3    H174965   3.484   0.087   1.419 -1.9806 -0.2183 -1.5765
17850TIP3    H274966   3.408   0.011   1.525  1.1830  0.7396  1.5768
17851TIP3   OH274967   1.982   3.065  10.652  0.3447 -0.0381 -0.9495
17851TIP3    H174968   1.928   3.133  10.611 -0.4137  1.6480  2.4930
17851TIP3    H274969   2.066   3.107  10.668  0.3311 -0.3347 -0.0263
17852TIP3   OH274970   1.602   3.186   5.796  0.5057 -0.2374 -0.2362
17852TIP3    H174971   1.638   3.106   5.834 -1.0346 -0.2210  1.3887
17852TIP3    H274972   1.576   3.162   5.708  0.8758 -1.2826 -0.0718
17853TIP3   OH274973   2.080   4.431  16.794 -0.0635  0.3746 -0.1462
17853TIP3    H174974   2.137   4.419  16.718 -3.3270  0.4517 -2.8495
17853TIP3    H274975   2.011   4.365  16.783 -1.2800  1.1327  2.1451
17854TIP3   OH274976   4.129   5.495   4.621 -0.1255  0.2930 -0.1350
17854TIP3    H174977   4.063   5.515   4.555 -0.0626  1.2043  0.0585
17854TIP3    H274978   4.142   5.400   4.615 -0.0345  0.3723 -1.4986
17855TIP3   OH274979   1.627   2.477  11.483 -0.1735 -0.1685  0.2790
17855TIP3    H174980   1.635   2.524  11.400 -0.4799  0.5620  0.6542
17855TIP3    H274981   1.673   2.532  11.547 -0.0902 -0.6375  0.6304
17856TIP3   OH274982   0.103   1.959  15.760 -0.1650 -0.3560  0.1719
17856TIP3    H174983   0.010   1.959  15.735 -0.1347 -1.2223  0.0328
17856TIP3    H274984   0.108   1.897  15.832  0.5287 -1.3695 -0.7155
17857TIP3   OH274985   0.416   1.461   5.662 -0.0170 -0.1042 -0.4431
17857TIP3    H174986   0.332   1.416   5.648 -0.7974  1.0315  0.4167
17857TIP3    H274987   0.458   1.410   5.732  0.6383 -1.4609 -1.7708
17858TIP3   OH274988   2.367   0.133   3.900  0.0205  0.3240 -0.6100
17858TIP3    H174989   2.289   0.078   3.893 -0.5009  1.1950 -2.0291
17858TIP3    H274990   2.438   0.072   3.918 -1.0114 -0.4556  1.1865
17859TIP3   OH274991   6.713   3.178   3.948 -0.2185 -0.2774  0.0349
17859TIP3    H174992   6.716   3.147   3.857  0.4092  0.9427 -0.3978
17859TIP3    H274993   6.775   3.251   3.949 -2.3183  1.6239  0.7027
17860TIP3   OH274994   0.512   4.604   3.865 -0.2924  0.2704 -0.1584
17860TIP3    H174995   0.417   4.591   3.855 -0.0319 -1.4035 -0.7235
17860TIP3    H274996   0.521   4.651   3.948 -1.6378  0.7594 -0.2689
17861TIP3   OH274997   2.592   2.181   4.413  0.5772 -0.3403  0.0427
17861TIP3    H174998   2.509   2.227   4.416  0.6567 -0.0014 -1.8754
17861TIP3    H274999   2.595   2.131   4.495 -1.3129 -0.0505  0.3188
17862TIP3   OH275000   5.674   4.210   4.614  0.3557  0.1091  0.1763
17862TIP3    H175001   5.697   4.205   4.521  2.0961  1.4589  0.4641
17862TIP3    H275002   5.722   4.137   4.654  1.1256  0.6483  0.2538
17863TIP3   OH275003   0.300   4.881   6.386  0.2125  0.3526  0.1946
17863TIP3    H175004   0.334   4.797   6.418 -0.2006  0.6963  1.6284
17863TIP3    H275005   0.370   4.944   6.405  0.0769  0.5168  0.1561
17864TIP3   OH275006   4.007   1.762   3.186  0.7256 -0.0471 -0.0095
17864TIP3    H175007   3.960   1.790   3.108  0.0444  0.6550  0.6424
17864TIP3    H275008   4.096   1.743   3.155  0.3537 -0.1748 -1.0189
17865TIP3   OH275009   1.368   3.066  14.401  0.3686  0.5611 -0.2398
17865TIP3    H175010   1.274   3.081  14.387  0.0541 -0.9071  0.0485
17865TIP3    H275011   1.405   3.153  14.414 -1.1230  1.1108  0.5806
17866TIP3   OH275012   1.369   5.876   3.087 -0.2542 -0.1389  0.7027
17866TIP3    H175013   1.288   5.925   3.103  0.4893  1.1767  0.5963
17866TIP3    H275014   1.390   5.837   3.171 -1.4676 -1.2619  0.5185
17867TIP3   OH275015   0.415   5.492   6.654 -0.4842 -0.4693  0.4501
17867TIP3    H175016   0.502   5.528   6.637  0.2575 -2.3285  0.0648
17867TIP3    H275017   0.397   5.437   6.578 -3.3752  2.1992 -0.9898
17868TIP3   OH275018   1.901   4.816   5.696 -0.2173  0.0530 -0.1211
17868TIP3    H175019   1.821   4.832   5.744  0.7151  0.8518  1.2289
17868TIP3    H275020   1.873   4.769   5.617 -1.8254 -0.9136  0.9815
17869TIP3   OH275021   1.269   2.963   6.267  0.5300  0.5341 -0.1292
17869TIP3    H175022   1.191   2.933   6.314  0.7705 -1.6534 -1.0396
17869TIP3    H275023   1.259   3.059   6.265 -1.6228  0.3900  0.6161
17870TIP3   OH275024   5.431   1.297   4.156 -0.2790  0.1190 -0.3556
17870TIP3    H175025   5.454   1.259   4.241 -1.2810 -0.9808 -0.5360
17870TIP3    H275026   5.336   1.309   4.161 -0.0432  2.3900 -0.4360
17871TIP3   OH275027   2.711   3.586   0.546  0.1200 -0.1595  0.1763
17871TIP3    H175028   2.635   3.534   0.574  0.3103 -1.4696 -1.5725
17871TIP3    H275029   2.756   3.530   0.483  0.3938  2.0992 -1.7416
17872TIP3   OH275030   3.015   5.501   2.389  0.0472  0.1983  0.7409
17872TIP3    H175031   2.968   5.424   2.358 -0.3595 -0.3833  2.6978
17872TIP3    H275032   2.997   5.568   2.323 -1.2666 -0.7992  0.0482
17873TIP3   OH275033   3.250   1.235   0.507 -0.0001  0.2356 -0.4151
17873TIP3    H175034   3.287   1.323   0.497 -0.0102  0.2935  0.0179
17873TIP3    H275035   3.194   1.242   0.585 -1.5734  0.3732 -1.5200
17874TIP3   OH275036   3.203   1.815  13.465 -0.2934  0.2518 -0.0735
17874TIP3    H175037   3.168   1.734  13.503  1.2209  0.3221  1.5779
17874TIP3    H275038   3.178   1.884  13.526  0.0070  0.7757 -0.5307
17875TIP3   OH275039   1.695   5.562  11.561 -0.2273  0.3908 -0.2549
17875TIP3    H175040   1.669   5.654  11.552 -3.4200 -0.3285  0.3796
17875TIP3    H275041   1.755   5.562  11.635  0.0353  2.0101 -0.4288
17876TIP3   OH275042   0.643   4.617  13.209  0.0583 -0.2540 -0.3694
17876TIP3    H175043   0.610   4.560  13.139  0.6134 -0.0829 -0.7852
17876TIP3    H275044   0.579   4.688  13.214  0.6291  0.3787 -1.5649
17877TIP3   OH275045   4.058   3.770   2.880 -0.2865 -0.5450 -0.0252
17877TIP3    H175046   4.137   3.789   2.829 -1.7832  2.0093 -1.6323
17877TIP3    H275047   4.073   3.814   2.964 -0.8972  2.1681 -1.2307
17878TIP3   OH275048   2.183   3.977   5.490  0.0034 -0.2534  0.4775
17878TIP3    H175049   2.268   4.021   5.485  0.5030 -0.9990  2.0285
17878TIP3    H275050   2.131   4.030   5.550 -1.7350  1.8481 -2.5866
17879TIP3   OH275051   1.667   6.331  13.435 -0.2074 -0.3038  0.3757
17879TIP3    H175052   1.690   6.329  13.528 -1.2458  0.6488  0.6819
17879TIP3    H275053   1.571   6.331  13.434 -0.2210  0.6902 -0.6475
17880TIP3   OH275054   1.692   5.206  12.000  0.1271  0.1234  0.3352
17880TIP3    H175055   1.641   5.164  11.931 -0.4151  0.7656  0.3367
17880TIP3    H275056   1.728   5.134  12.051  1.4135 -0.4059 -1.2261
17881TIP3   OH275057   4.752   5.565   1.147  0.2533 -0.6405 -0.3728
17881TIP3    H175058   4.679   5.617   1.181  1.6204  0.2770  1.3319
17881TIP3    H275059   4.816   5.631   1.118  0.8424 -1.4177 -0.8720
17882TIP3   OH275060   1.256   1.054   2.725 -0.3368 -0.3341 -0.3107
17882TIP3    H175061   1.184   1.053   2.663 -1.5642  0.2942  1.0586
17882TIP3    H275062   1.315   0.984   2.694 -2.1719 -1.7772 -0.6952
17883TIP3   OH275063   4.091   0.971   2.372 -0.0349 -0.8805  0.7329
17883TIP3    H175064   4.032   0.972   2.447  1.4209 -0.4670  1.9023
17883TIP3    H275065   4.126   1.060   2.367 -0.3243 -0.8088 -0.6422
17884TIP3   OH275066   1.765   1.270   1.250 -0.0706  0.1444  0.2202
17884TIP3    H175067   1.821   1.259   1.326  1.1753  1.0505 -0.5272
17884TIP3    H275068   1.690   1.212   1.266  1.2253 -1.3647  1.0909
17885TIP3   OH275069   6.219   0.206   1.813 -0.0927  0.5840  0.3069
17885TIP3    H175070   6.124   0.191   1.812  0.0801 -0.5741 -0.9019
17885TIP3    H275071   6.227   0.301   1.820 -1.3370  0.6952  0.5726
17886TIP3   OH275072   3.691   0.546  16.174  0.1307 -0.5623 -0.4213
17886TIP3    H175073   3.692   0.517  16.265 -0.6763  0.4366 -0.0773
17886TIP3    H275074   3.686   0.465  16.123  0.7768 -1.1380  0.4095
17887TIP3   OH275075   1.094   4.323  12.200 -0.0235 -0.0234  0.0766
17887TIP3    H175076   1.112   4.412  12.169  0.0254  0.0177  0.2206
17887TIP3    H275077   1.004   4.327  12.232 -0.6750 -0.4871 -1.5799
17888TIP3   OH275078   4.804   4.228   0.120  0.2219 -0.1331 -0.1401
17888TIP3    H175079   4.897   4.220   0.099  0.4911  0.1926  0.8894
17888TIP3    H275080   4.764   4.153   0.076  1.2016 -1.2001  0.7066
17889TIP3   OH275081   1.987   5.473   2.575  0.0184 -0.2063 -0.2327
17889TIP3    H175082   1.916   5.448   2.634 -0.9854 -1.9276 -2.0304
17889TIP3    H275083   2.067   5.448   2.621 -0.5705  0.7480  1.3720
17890TIP3   OH275084   3.176   0.377   5.598  0.0482 -0.2202 -0.3936
17890TIP3    H175085   3.202   0.464   5.567  0.1143 -0.3101 -0.5890
17890TIP3    H275086   3.111   0.394   5.666  1.2184  0.0502  0.7114
17891TIP3   OH275087   6.231   2.713  12.592 -0.2364  0.0298  0.1615
17891TIP3    H175088   6.259   2.801  12.566 -0.0553 -0.1489 -0.2595
17891TIP3    H275089   6.136   2.719  12.599 -0.1185  0.6740  1.7087
17892TIP3   OH275090   1.512   4.009  10.976 -0.4333 -0.1111 -0.0465
17892TIP3    H175091   1.598   4.048  10.985 -1.3191  2.0293 -0.3179
17892TIP3    H275092   1.514   3.933  11.034  0.9170  1.1552  1.6667
17893TIP3   OH275093   5.054   4.170  13.046 -0.0472 -0.2821  0.1708
17893TIP3    H175094   5.000   4.164  13.124  0.1258 -0.4059  0.2812
17893TIP3    H275095   5.007   4.117  12.981  0.1011 -0.6465  0.3592
17894TIP3   OH275096   2.441   3.483   4.777  0.3467  0.3563 -0.1489
17894TIP3    H175097   2.465   3.417   4.842  0.5915  0.7564  0.1726
17894TIP3    H275098   2.489   3.457   4.698  1.3594  0.7916  0.3047
17895TIP3   OH275099   4.887   3.111  12.701 -0.5467 -1.3302 -0.2288
17895TIP3    H175100   4.969   3.158  12.683 -0.4637 -1.2402  0.3512
17895TIP3    H275101   4.891   3.093  12.795 -2.0145  0.2486  0.1783
17896TIP3   OH275102   3.780   2.117  16.836  0.2426 -0.6058  0.2075
17896TIP3    H175103   3.747   2.199  16.871  0.8878 -0.9625  1.7283
17896TIP3    H275104   3.705   2.058  16.837 -0.4012  0.1272 -1.5505
17897TIP3   OH275105   1.896   1.575   4.931  0.7161  0.1023  0.6739
17897TIP3    H175106   1.864   1.639   4.995  1.2213  1.7371 -0.6132
17897TIP3    H275107   1.987   1.601   4.916  1.3723 -1.8062  1.1128
17898TIP3   OH275108   1.029   3.925  16.044  0.4294  0.2737 -0.5880
17898TIP3    H175109   1.092   3.936  15.972 -0.1391  0.0840 -1.1267
17898TIP3    H275110   1.027   4.010  16.087  0.8447  0.3645 -0.7409
17899TIP3   OH275111   2.388   0.639  13.234  0.2271 -0.0615  0.5740
17899TIP3    H175112   2.452   0.710  13.228  1.7274 -1.2906  1.2229
17899TIP3    H275113   2.425   0.580  13.299 -1.2142 -1.2123  0.3898
17900TIP3   OH275114   0.922   3.348  16.703 -0.5428 -0.3981 -0.4529
17900TIP3    H175115   0.923   3.443  16.716  0.9305 -0.5440  0.8699
17900TIP3    H275116   0.880   3.335  16.618 -1.4087  1.3837 -0.3347
17901TIP3   OH275117   0.635   2.528  14.328  0.2612 -0.1298 -0.3353
17901TIP3    H175118   0.693   2.460  14.293  3.4750  2.0181  0.3203
17901TIP3    H275119   0.591   2.564  14.251  1.2457 -0.6102 -1.1456
17902TIP3   OH275120   5.349   5.757  14.286 -0.1620  0.0805  0.0521
17902TIP3    H175121   5.307   5.830  14.331 -0.9431 -0.7277  0.6600
17902TIP3    H275122   5.436   5.751  14.326 -0.7599 -0.4767  1.3259
17903TIP3   OH275123   5.079   5.097   1.853 -0.8749 -0.3574  0.1675
17903TIP3    H175124   5.132   5.151   1.795 -0.5671 -0.5051  0.3109
17903TIP3    H275125   5.132   5.086   1.932 -1.6725  0.6224  0.8689
17904TIP3   OH275126   1.873   3.400  13.826  0.0474  0.2626  0.2001
17904TIP3    H175127   1.788   3.443  13.817 -0.5448 -1.0353 -0.8767
17904TIP3    H275128   1.865   3.321  13.772  1.7669 -0.1500  0.4970
17905TIP3   OH275129   0.014   2.531   0.399 -0.0399  0.0163 -0.0926
17905TIP3    H175130   0.037   2.438   0.393  0.0134  0.0571 -0.6286
17905TIP3    H275131  -0.077   2.531   0.429 -0.5024 -0.2593 -1.4335
17906TIP3   OH275132   3.938   3.070  16.663  0.3724  0.2426 -0.0958
17906TIP3    H175133   3.984   2.986  16.657  2.8722  1.3797  1.8306
17906TIP3    H275134   4.003   3.135  16.637 -0.1489  1.8932  2.3901
17907TIP3   OH275135   1.602   1.276  15.056 -0.0328 -0.2526 -0.6870
17907TIP3    H175136   1.697   1.285  15.050  0.0128  2.0026  1.6091
17907TIP3    H275137   1.587   1.227  15.136 -0.7190  2.7302  1.1779
17908TIP3   OH275138   1.174   2.626   5.047 -0.0753 -0.4387  0.2549
17908TIP3    H175139   1.229   2.672   4.984  1.6105 -1.2301  1.0871
17908TIP3    H275140   1.093   2.677   5.049  0.9441  1.3060 -0.3421
17909TIP3   OH275141   0.989   5.511   4.039  0.3400 -0.4922  0.0692
17909TIP3    H175142   0.960   5.530   3.949  2.7977  0.9957 -0.4900
17909TIP3    H275143   0.965   5.419   4.052  0.2088 -0.8585 -2.2257
17910TIP3   OH275144   3.468   6.249  16.679  0.2865  0.2668  0.2126
17910TIP3    H175145   3.392   6.193  16.698 -0.0436 -0.2969 -2.3582
17910TIP3    H275146   3.439   6.303  16.605  1.1043  2.8781  1.6770
17911TIP3   OH275147   5.565   6.026   4.692  0.0434  0.2827  0.0830
17911TIP3    H175148   5.470   6.021   4.682  0.0991 -0.0463 -0.2986
17911TIP3    H275149   5.597   6.057   4.608  0.4545 -1.8066 -0.5856
17912TIP3   OH275150   0.964   5.450   3.544  0.4199  0.4659  0.1710
17912TIP3    H175151   1.015   5.517   3.499  1.1277 -0.3061 -0.2152
17912TIP3    H275152   1.028   5.401   3.594 -0.1326  0.2640  0.6891
17913TIP3   OH275153   3.043   4.658   6.141 -0.7173 -0.0284 -0.0135
17913TIP3    H175154   2.951   4.658   6.167 -0.4588 -1.1280  0.9766
17913TIP3    H275155   3.091   4.640   6.221  0.3730  0.5086 -0.5258
17914TIP3   OH275156   0.994   1.864   5.666  0.0624 -0.2077  0.7922
17914TIP3    H175157   1.078   1.895   5.630  1.1816 -1.0996  2.4978
17914TIP3    H275158   0.985   1.910   5.750 -1.6650  0.5926  0.2143
17915TIP3   OH275159   6.325   0.182   2.810 -0.2622 -0.5950  0.0878
17915TIP3    H175160   6.376   0.257   2.842 -2.9386  1.5607 -0.3175
17915TIP3    H275161   6.312   0.200   2.717  0.4946 -2.5361 -0.4386
17916TIP3   OH275162   0.593   5.063  13.996 -0.1408 -0.2086 -0.0063
17916TIP3    H175163   0.600   4.971  13.969  0.3581 -0.1972  0.0826
17916TIP3    H275164   0.658   5.073  14.065 -0.9245 -0.0550  0.7305
17917TIP3   OH275165   1.762   5.292  12.604 -0.4569 -0.8421 -0.5753
17917TIP3    H175166   1.781   5.385  12.597 -0.4927 -0.8107 -0.2642
17917TIP3    H275167   1.847   5.250  12.614 -0.3697 -0.9249 -1.5499
17918TIP3   OH275168   5.577   5.951   3.624  0.4814 -0.5461  0.2261
17918TIP3    H175169   5.668   5.964   3.599  0.7072  0.6921  1.5927
17918TIP3    H275170   5.559   5.859   3.603  2.3227 -1.0822  0.8081
17919TIP3   OH275171   4.851   3.489  14.931  0.0093  0.6175 -0.0302
17919TIP3    H175172   4.930   3.453  14.889 -1.0522 -2.0464  0.0782
17919TIP3    H275173   4.781   3.470  14.870 -1.1600 -0.8978  1.6792
17920TIP3   OH275174   2.420   2.353  15.231  0.1586 -0.1327  0.4586
17920TIP3    H175175   2.373   2.423  15.185  0.3050 -0.9605 -0.9981
17920TIP3    H275176   2.498   2.338  15.178  0.4964 -0.9105  1.1587
17921TIP3   OH275177   2.940   4.299   1.126  0.1360  0.0862  0.1751
17921TIP3    H175178   2.984   4.361   1.184 -0.4098 -0.2563  0.9756
17921TIP3    H275179   3.009   4.239   1.099  0.2808 -0.1590  1.0338
17922TIP3   OH275180   0.562   0.379   4.923 -0.1307  0.0395  0.1718
17922TIP3    H175181   0.480   0.349   4.964  0.9621 -2.1180  0.9305
17922TIP3    H275182   0.588   0.306   4.866  0.8328  1.0506 -0.7090
17923TIP3   OH275183   4.281   2.816   3.808  0.1949 -0.0443  0.1233
17923TIP3    H175184   4.190   2.837   3.786 -0.4481 -2.2608  0.3809
17923TIP3    H275185   4.288   2.835   3.902  0.0155  0.1540  0.0974
17924TIP3   OH275186   1.492   2.079   6.100 -0.4271 -0.1530  0.4179
17924TIP3    H175187   1.544   2.070   6.021 -0.3501 -1.2730  0.5750
17924TIP3    H275188   1.543   2.034   6.168  0.1857  1.9818  1.4588
17925TIP3   OH275189   0.882   0.903  16.685 -0.1258 -0.2420 -0.3529
17925TIP3    H175190   0.915   0.992  16.691 -1.3622  0.1329  1.6012
17925TIP3    H275191   0.873   0.887  16.591  1.9144  0.9679 -0.8097
17926TIP3   OH275192   4.674   4.019  16.368  0.2040  0.4888  0.0449
17926TIP3    H175193   4.767   4.024  16.343  0.4504 -0.2227  0.7758
17926TIP3    H275194   4.665   4.082  16.440  0.2400  0.1882  0.3147
17927TIP3   OH275195   2.907   2.974   5.689 -0.4529 -0.5013 -0.1941
17927TIP3    H175196   2.871   2.905   5.634 -0.5777 -0.8117  0.2651
17927TIP3    H275197   2.945   2.927   5.763 -2.7663  0.0131  1.4381
17928TIP3   OH275198   1.878   2.982  12.621  0.2744 -0.4641  0.1253
17928TIP3    H175199   1.820   3.057  12.635  1.0309  0.3848 -1.0847
17928TIP3    H275200   1.965   3.020  12.609  0.5601 -1.4574 -1.2610
17929TIP3   OH275201   4.106   3.551   2.583  0.4249 -0.0832  0.1156
17929TIP3    H175202   4.013   3.574   2.583  0.7674  1.5002  1.6326
17929TIP3    H275203   4.140   3.590   2.503  0.0909  0.7342  0.3639
17930TIP3   OH275204   0.887   5.597  16.780  0.2092  0.0750 -0.4410
17930TIP3    H175205   0.821   5.660  16.751 -1.6997 -1.3015  0.6926
17930TIP3    H275206   0.848   5.555  16.857  3.0969  0.2787  1.2568
17931TIP3   OH275207   6.303   0.768  15.746  0.0844  0.3219 -0.1757
17931TIP3    H175208   6.297   0.749  15.840  0.4410  1.9462  0.1989
17931TIP3    H275209   6.374   0.832  15.739 -0.0250  0.3150 -1.5388
17932TIP3   OH275210   3.725   0.576   3.139  0.4168  0.2108  0.4414
17932TIP3    H175211   3.638   0.604   3.167  0.1696 -0.9230  0.8810
17932TIP3    H275212   3.770   0.550   3.219  1.7837  2.3110  0.4258
17933TIP3   OH275213   2.998   4.338   2.909  1.2817  0.4819 -0.3232
17933TIP3    H175214   2.917   4.349   2.859  1.2666  0.9301 -0.2051
17933TIP3    H275215   3.061   4.304   2.846  0.6737 -1.0737 -0.1285
17934TIP3   OH275216   6.073   5.725   0.826  0.2940 -0.1278  0.2072
17934TIP3    H175217   5.985   5.696   0.799 -1.6803  2.6369  2.9555
17934TIP3    H275218   6.077   5.707   0.920  1.6024  2.0561  0.6494
17935TIP3   OH275219   1.255   2.488   0.019  0.1256 -0.4155 -0.2526
17935TIP3    H175220   1.174   2.439   0.034 -1.0734  1.2949 -0.8104
17935TIP3    H275221   1.231   2.578   0.040  1.7313  0.2128 -1.0370
17936TIP3   OH275222   4.398   1.593   6.102  0.5219 -0.2581  0.8726
17936TIP3    H175223   4.415   1.532   6.173  5.0468 -0.8716 -0.4023
17936TIP3    H275224   4.450   1.671   6.124 -0.2707  0.6798 -0.4135
17937TIP3   OH275225   4.415   2.948  11.450  0.2387  0.2244 -0.4956
17937TIP3    H175226   4.409   2.870  11.395  2.1962 -0.0590 -0.3951
17937TIP3    H275227   4.509   2.956  11.470 -0.0976  1.7881  0.6781
17938TIP3   OH275228   6.396   3.395  11.113  0.0276  0.6609  0.0162
17938TIP3    H175229   6.448   3.470  11.084  1.0028  0.3905  0.9706
17938TIP3    H275230   6.428   3.322  11.059 -2.1058  1.1824 -2.1266
17939TIP3   OH275231   1.191   3.059  15.157  0.2717  0.0466  0.8832
17939TIP3    H175232   1.103   3.028  15.178  0.3122 -0.7797 -0.0644
17939TIP3    H275233   1.179   3.150  15.129 -0.5892 -0.6493 -1.1689
17940TIP3   OH275234   0.873   3.317  12.503  0.3500  0.7740 -0.2980
17940TIP3    H175235   0.914   3.251  12.558 -1.6382 -1.0551 -0.8758
17940TIP3    H275236   0.800   3.350  12.554  0.6461  1.7245 -0.4659
17941TIP3   OH275237   3.858   1.809  12.901 -0.0920  0.0859 -0.5960
17941TIP3    H175238   3.799   1.868  12.854 -0.5393  0.6570  0.6496
17941TIP3    H275239   3.885   1.859  12.978  1.8184 -0.2662 -0.9904
17942TIP3   OH275240   3.087   3.366  14.765 -0.5302  0.2318  0.1780
17942TIP3    H175241   3.002   3.331  14.736 -0.6282  0.8685 -0.3134
17942TIP3    H275242   3.079   3.461  14.754  1.0870  0.1812 -2.2120
17943TIP3   OH275243   4.418   2.983  14.089  0.4503  0.3057  0.1088
17943TIP3    H175244   4.442   2.913  14.150  0.4353  0.0510 -0.1792
17943TIP3    H275245   4.426   3.063  14.141  2.7323  0.3398 -0.1890
17944TIP3   OH275246   4.954   2.295  15.883 -0.6594  0.1895 -0.0927
17944TIP3    H175247   5.031   2.240  15.894 -2.0495 -1.7314  0.4867
17944TIP3    H275248   4.966   2.335  15.797  0.4326 -0.9690 -0.5108
17945TIP3   OH275249   5.442   0.327  12.736  0.8522 -0.0751 -0.4331
17945TIP3    H175250   5.381   0.341  12.663  0.6337  0.4399 -0.1585
17945TIP3    H275251   5.528   0.345  12.697  0.8981 -1.3378 -0.9592
17946TIP3   OH275252   3.793   5.098  14.113  0.2408  0.9268  0.0750
17946TIP3    H175253   3.720   5.159  14.129 -0.4393  0.3761 -0.8089
17946TIP3    H275254   3.760   5.014  14.144 -0.2321  0.3005 -2.0140
17947TIP3   OH275255   6.591   3.185   4.701 -0.2095  1.0046 -0.1664
17947TIP3    H175256   6.544   3.150   4.776  0.9082 -1.3379 -0.4872
17947TIP3    H275257   6.523   3.203   4.636 -0.8593 -1.1778 -0.1748
17948TIP3   OH275258   4.171   1.114  11.513  0.3910 -0.3932  0.5694
17948TIP3    H175259   4.246   1.174  11.515  0.3686 -0.3764  1.2462
17948TIP3    H275260   4.210   1.027  11.505  0.4373 -0.3150 -0.0862
17949TIP3   OH275261   5.212   0.372  15.929  0.1373 -0.4163  1.1435
17949TIP3    H175262   5.136   0.409  15.884 -0.5283 -1.8593  1.0425
17949TIP3    H275263   5.279   0.367  15.861 -0.5854 -1.7518  0.4878
17950TIP3   OH275264   0.479   3.623  11.308 -0.5480  0.2735  0.0604
17950TIP3    H175265   0.430   3.643  11.388 -1.4212 -0.1308 -0.3589
17950TIP3    H275266   0.521   3.705  11.284  0.8415  0.1025  1.6635
17951TIP3   OH275267   5.658   5.571  17.104  0.3062  0.4110 -0.3703
17951TIP3    H175268   5.676   5.665  17.102  0.6554  0.3414 -1.4709
17951TIP3    H275269   5.701   5.538  17.025  1.4990 -0.9145  0.7874
17952TIP3   OH275270   5.463   3.961   1.775  0.6952 -0.0553  0.3389
17952TIP3    H175271   5.555   3.966   1.802  0.7941 -0.0163  0.0015
17952TIP3    H275272   5.414   3.970   1.856  1.0123 -1.8349  0.7734
17953TIP3   OH275273   6.170   4.779   6.619  0.5377 -0.5977 -0.4922
17953TIP3    H175274   6.223   4.858   6.607  2.3827 -1.7877 -0.5708
17953TIP3    H275275   6.080   4.811   6.627  1.3039  1.5588  0.1407
17954TIP3   OH275276   6.730   1.065   4.437 -0.5177  0.4166 -0.3167
17954TIP3    H175277   6.713   1.100   4.350 -0.5840 -1.7206 -1.2362
17954TIP3    H275278   6.684   0.981   4.438  0.4639 -0.1448  1.3594
17955TIP3   OH275279   6.176   3.571  16.860 -0.4775  0.2040 -0.1472
17955TIP3    H175280   6.195   3.659  16.827  1.4897  0.2503  0.9464
17955TIP3    H275281   6.262   3.533  16.876 -1.3016 -1.8674 -0.4072
17956TIP3   OH275282   5.449   3.412  16.637 -0.1532 -0.7204 -0.2229
17956TIP3    H175283   5.407   3.483  16.684 -0.4150 -0.6546 -0.5593
17956TIP3    H275284   5.447   3.338  16.699  0.6818 -0.2699  0.3671
17957TIP3   OH275285   0.155   0.027   0.749  0.3668  0.1440 -0.1180
17957TIP3    H175286   0.113   0.107   0.781  0.0135 -0.9179  2.2259
17957TIP3    H275287   0.180  -0.020   0.828  1.4517 -1.6265 -1.4600
17958TIP3   OH275288   1.121   0.720   0.249  0.0578  0.8828 -0.2147
17958TIP3    H175289   1.207   0.679   0.246  0.0284  0.8837 -2.1734
17958TIP3    H275290   1.102   0.742   0.158 -1.9492  1.0277  0.2021
17959TIP3   OH275291   2.767   2.335  15.521  0.2380  0.3832  0.3091
17959TIP3    H175292   2.674   2.313  15.522 -0.1193  1.8263  0.2825
17959TIP3    H275293   2.807   2.274  15.584 -1.1117  1.3673  2.1940
17960TIP3   OH275294   1.864   0.430  11.046 -0.2980  0.8293 -0.3267
17960TIP3    H175295   1.848   0.460  10.957 -1.6810 -0.2805 -0.4955
17960TIP3    H275296   1.830   0.501  11.101 -1.7942  0.4578 -0.7124
17961TIP3   OH275297   2.567   0.721  14.936  0.3653 -0.0999  0.2911
17961TIP3    H175298   2.503   0.665  14.891 -1.3343 -0.4579  2.8997
17961TIP3    H275299   2.647   0.669  14.937  0.3074 -0.3214 -1.6815
17962TIP3   OH275300   2.552   2.797  12.267 -0.2325  0.7225 -0.0230
17962TIP3    H175301   2.635   2.750  12.259 -1.4441 -1.6109  0.3135
17962TIP3    H275302   2.557   2.838  12.354  0.8149  1.1554 -0.2738
17963TIP3   OH275303   5.561   4.175   2.033  0.3920  0.3219 -0.1913
17963TIP3    H175304   5.561   4.231   1.955  1.1846  0.7333  0.0933
17963TIP3    H275305   5.480   4.197   2.078 -0.3346 -0.2865 -1.1432
17964TIP3   OH275306   2.040   0.182  13.529  0.2675  0.2251  0.0269
17964TIP3    H175307   1.984   0.133  13.469  0.8994 -0.2754 -0.1697
17964TIP3    H275308   2.042   0.271  13.493  1.6512 -0.3600 -1.4369
17965TIP3   OH275309   5.330   0.401  16.172 -0.2785  0.1385 -0.5974
17965TIP3    H175310   5.303   0.397  16.080 -2.3457 -1.9584 -0.0038
17965TIP3    H275311   5.252   0.429  16.219  0.0833 -0.9414  0.7187
17966TIP3   OH275312   4.782   1.594  12.407 -0.8850 -0.5273 -0.2154
17966TIP3    H175313   4.808   1.503  12.400 -2.8225 -1.5069  3.1264
17966TIP3    H275314   4.695   1.591  12.448 -0.9025  2.8239  0.2768
17967TIP3   OH275315   4.328   4.929   0.291 -0.5845 -0.2069 -0.0768
17967TIP3    H175316   4.272   4.984   0.235  2.8114  1.7933 -1.8331
17967TIP3    H275317   4.391   4.989   0.329  1.0300 -2.4174  0.9780
17968TIP3   OH275318   5.752   0.521   1.243  0.2730 -0.0588  0.0134
17968TIP3    H175319   5.711   0.444   1.203  1.3651 -1.3561  1.2824
17968TIP3    H275320   5.688   0.591   1.231 -2.4936 -1.9958  1.9815
17969TIP3   OH275321   1.250   1.349   3.324  0.4447 -0.4527  0.0720
17969TIP3    H175322   1.257   1.437   3.288 -1.6248 -0.0785  0.4371
17969TIP3    H275323   1.203   1.300   3.256 -0.0135 -0.7804  0.6151
17970TIP3   OH275324   6.116   1.939   5.442  0.5580  0.4666  0.8705
17970TIP3    H175325   6.074   1.990   5.373  1.7881  0.3967  0.0368
17970TIP3    H275326   6.118   1.997   5.518 -0.7154  0.5775  0.8337
17971TIP3   OH275327   5.898   1.421  11.620  0.0313 -0.4314 -0.4796
17971TIP3    H175328   5.942   1.481  11.560  0.1651 -0.2330 -0.1879
17971TIP3    H275329   5.903   1.465  11.705 -1.0464 -0.2351 -0.5019
17972TIP3   OH275330   3.911   3.358  13.125  0.1849 -0.6402 -0.1279
17972TIP3    H175331   3.842   3.406  13.172 -0.3380 -0.3985 -1.1277
17972TIP3    H275332   3.931   3.283  13.182  0.7712  0.5419  1.2995
17973TIP3   OH275333   6.393   3.875  13.694 -0.1538 -0.5967 -0.6701
17973TIP3    H175334   6.352   3.804  13.743  0.2340  0.2609  0.9540
17973TIP3    H275335   6.474   3.837  13.660  0.4677 -0.7387  0.8825
17974TIP3   OH275336   3.761   4.714   3.683  0.1859  0.2041 -0.2833
17974TIP3    H175337   3.755   4.657   3.607 -0.8933 -0.5684  0.3401
17974TIP3    H275338   3.853   4.740   3.687  0.0695  1.1826 -2.4796
17975TIP3   OH275339   3.494   1.106   1.551  0.4263 -0.0399 -0.1169
17975TIP3    H175340   3.410   1.083   1.512 -0.2193  0.9214  0.6375
17975TIP3    H275341   3.554   1.039   1.521 -0.0146  0.6250 -2.7755
17976TIP3   OH275342   1.361   3.800  15.264  0.1603 -0.1173  0.3400
17976TIP3    H175343   1.268   3.807  15.245  0.2001  0.1470  0.2452
17976TIP3    H275344   1.387   3.715  15.228  0.0646  0.0283 -0.0724
17977TIP3   OH275345   1.736   5.786  16.342  0.2251 -0.2405  0.0079
17977TIP3    H175346   1.696   5.731  16.410  0.2606 -1.8748 -1.2430
17977TIP3    H275347   1.829   5.764  16.345  0.8515  2.1246  1.5893
17978TIP3   OH275348   3.854   1.774  12.449  0.1202  0.7856  0.0056
17978TIP3    H175349   3.783   1.790  12.386 -0.3247  1.4028  0.6466
17978TIP3    H275350   3.913   1.848  12.438 -0.5461  1.5237  1.0781
17979TIP3   OH275351   1.969   6.659   5.331 -0.5807  0.2525  0.2150
17979TIP3    H175352   1.892   6.605   5.313 -0.5313  0.4237 -0.5476
17979TIP3    H275353   2.043   6.598   5.326 -0.5251  0.3703 -0.6395
17980TIP3   OH275354   1.435   5.647  17.043  0.0693 -0.0331  0.0991
17980TIP3    H175355   1.445   5.735  17.079 -1.3628 -0.4751  1.7731
17980TIP3    H275356   1.341   5.640  17.023  0.0149 -1.3846  0.6734
17981TIP3   OH275357   4.486   4.319  14.487 -0.9684  0.1973 -0.4953
17981TIP3    H175358   4.543   4.266  14.432 -2.5028 -0.9515 -1.0265
17981TIP3    H275359   4.398   4.286  14.470 -1.9114  2.3937 -0.2572
17982TIP3   OH275360   5.519   2.024   5.896 -0.3694  0.0001  0.2145
17982TIP3    H175361   5.569   2.027   5.814  0.3901  0.8244  0.6837
17982TIP3    H275362   5.586   2.029   5.964 -1.0652  0.7189  0.8643
17983TIP3   OH275363   0.461   5.740   0.475 -0.2196  0.1655 -0.7081
17983TIP3    H175364   0.482   5.667   0.417 -0.2368  0.4326 -1.0602
17983TIP3    H275365   0.375   5.770   0.445 -0.0454  0.5694 -0.8214
17984TIP3   OH275366   6.386   4.127  12.639 -0.0746 -0.1323 -0.3053
17984TIP3    H175367   6.295   4.116  12.612 -0.4753  1.5379  0.2201
17984TIP3    H275368   6.380   4.165  12.727  1.1220  0.1815 -0.3424
17985TIP3   OH275369   4.057   5.427   2.422  0.7108  0.2159 -0.1384
17985TIP3    H175370   3.965   5.423   2.447  0.2748  0.1697 -1.6290
17985TIP3    H275371   4.063   5.506   2.368  1.1357 -0.7426 -1.5384
17986TIP3   OH275372   5.990   3.654   2.179  1.2803 -0.1381  0.2030
17986TIP3    H175373   5.959   3.737   2.215 -1.2129 -1.3246  1.0780
17986TIP3    H275374   5.994   3.596   2.256  1.8494 -1.1107 -0.5480
17987TIP3   OH275375   5.303   6.002   2.972  0.1535 -0.5791  0.5985
17987TIP3    H175376   5.323   6.043   2.888  0.1846 -1.0032  0.3939
17987TIP3    H275377   5.237   6.059   3.011 -0.1773 -0.6054  0.0910
17988TIP3   OH275378   6.095   5.345   3.791  0.2560  0.5133 -0.0488
17988TIP3    H175379   6.127   5.293   3.865  0.0902 -0.9632 -0.9876
17988TIP3    H275380   6.129   5.433   3.808 -2.2535  1.0490  3.3973
17989TIP3   OH275381   1.033   4.122   4.942  0.4814 -0.0057 -0.3692
17989TIP3    H175382   1.019   4.028   4.927 -0.7410  0.2512 -0.9572
17989TIP3    H275383   1.089   4.125   5.020 -0.8360 -1.2230  0.7012
17990TIP3   OH275384   2.396   3.109  12.444  0.2074  0.3895  0.3344
17990TIP3    H175385   2.439   3.117  12.359  0.2244 -1.1543  0.1788
17990TIP3    H275386   2.447   3.043  12.491 -1.5497 -1.0084  0.3933
17991TIP3   OH275387   1.720   4.180  12.692 -0.1114  0.1899 -0.5139
17991TIP3    H175388   1.691   4.090  12.685  2.1319 -0.5180 -2.2295
17991TIP3    H275389   1.719   4.212  12.601  2.9340  0.4765 -0.5509
17992TIP3   OH275390   6.401   1.259   2.789  0.0406  0.0483  0.0849
17992TIP3    H175391   6.351   1.223   2.862  1.2812 -3.4401 -0.5974
17992TIP3    H275392   6.486   1.217   2.795  1.9502  3.4281 -0.6025
17993TIP3   OH275393   5.167   3.759  11.278 -0.1295 -0.6888 -0.7139
17993TIP3    H175394   5.245   3.713  11.246  1.1888  0.6280  0.4822
17993TIP3    H275395   5.104   3.750  11.206  1.4872 -0.8657 -2.1947
17994TIP3   OH275396   3.995   2.738   3.067  0.0730 -0.4327  0.0204
17994TIP3    H175397   4.072   2.681   3.057  1.0689  0.4950  1.8833
17994TIP3    H275398   3.949   2.730   2.984  2.9494  0.0875 -1.7715
17995TIP3   OH275399   5.174   0.219  17.160 -0.4683 -0.1880  0.5052
17995TIP3    H175400   5.213   0.215  17.072 -0.5126 -1.1899  0.5278
17995TIP3    H275401   5.086   0.182  17.149 -1.0085  0.9651  0.7005
17996TIP3   OH275402   4.340   6.300   1.384 -0.2833  0.4292  0.0114
17996TIP3    H175403   4.430   6.278   1.362  0.0471  1.2457  0.4932
17996TIP3    H275404   4.333   6.279   1.477  0.6061  3.8611  1.0191
17997TIP3   OH275405   6.627   3.741   5.557 -0.4902 -0.4362 -0.3129
17997TIP3    H175406   6.688   3.801   5.600 -0.3801 -0.8030  0.0507
17997TIP3    H275407   6.660   3.654   5.579 -1.9954 -0.6944  1.2014
17998TIP3   OH275408   3.953   0.004  15.976 -0.0932  0.4643 -0.3422
17998TIP3    H175409   3.882   0.034  16.032 -0.9074  0.7840 -1.5152
17998TIP3    H275410   3.910  -0.048  15.908  1.1027 -1.9905  0.6507
17999TIP3   OH275411   2.509   1.783   1.868 -0.2910  0.0778 -0.0367
17999TIP3    H175412   2.445   1.789   1.940  0.4014  1.7457  0.4863
17999TIP3    H275413   2.468   1.724   1.805 -1.4317 -0.5212  1.2073
18000TIP3   OH275414   5.160   2.412  11.786  0.2868  0.3111  0.3974
18000TIP3    H175415   5.112   2.333  11.759  2.6107 -0.9929 -0.1699
18000TIP3    H275416   5.128   2.430  11.874 -0.3580 -1.2380  0.5123
18001TIP3   OH275417   5.919   6.421  16.127  0.0802 -0.4820  0.1175
18001TIP3    H175418   5.897   6.329  16.138  0.6636 -0.8049 -1.1869
18001TIP3    H275419   5.835   6.466  16.127 -0.3605 -1.2526 -1.1126
18002TIP3   OH275420   5.158   5.162  14.114  0.5757  0.1888 -0.7894
18002TIP3    H175421   5.210   5.242  14.105 -0.0825  0.5128 -2.0917
18002TIP3    H275422   5.188   5.106  14.042  0.9266 -0.6833  0.0258
18003TIP3   OH275423   6.075   5.809   1.746  0.5340  0.1416 -0.4553
18003TIP3    H175424   6.098   5.819   1.838 -1.0983  0.7249 -0.0718
18003TIP3    H275425   6.028   5.725   1.742  1.5949 -0.4441 -0.9882
18004TIP3   OH275426   0.703   0.705  15.688  0.8080 -0.1146 -0.8484
18004TIP3    H175427   0.615   0.693  15.653 -0.6474 -2.4867  2.9128
18004TIP3    H275428   0.744   0.620  15.679  1.6513  0.1961 -0.1284
18005TIP3   OH275429   0.823   1.380   5.384 -1.5948  0.3268  0.2568
18005TIP3    H175430   0.747   1.436   5.398 -0.9210  1.4213 -0.2942
18005TIP3    H275431   0.885   1.405   5.453 -1.2222  0.3855 -0.0949
18006TIP3   OH275432   1.143   2.815  13.047 -0.0660  0.0031 -0.0527
18006TIP3    H175433   1.202   2.745  13.018 -1.5945 -0.8561 -1.2137
18006TIP3    H275434   1.180   2.894  13.007  1.6378 -0.0913  1.2151
18007TIP3   OH275435   3.654   4.419  16.494 -0.2094  0.7883  0.5451
18007TIP3    H175436   3.672   4.352  16.427 -2.1591 -0.4162  1.1304
18007TIP3    H275437   3.738   4.464  16.506  0.3067  0.8568 -2.4458
18008TIP3   OH275438   6.585   6.516  12.933 -0.3257  0.0542 -0.7731
18008TIP3    H175439   6.491   6.528  12.950 -0.1101  0.1159  0.4787
18008TIP3    H275440   6.620   6.605  12.933 -0.0138 -0.0495  0.4562
18009TIP3   OH275441   2.488   2.647   5.013  0.6385  0.1379 -0.6369
18009TIP3    H175442   2.404   2.690   4.999  1.3993  1.5954 -0.8856
18009TIP3    H275443   2.485   2.569   4.957 -2.0039 -2.0193  2.1464
18010TIP3   OH275444   4.350   2.412   4.541  0.3001  0.9006  0.2155
18010TIP3    H175445   4.260   2.446   4.545 -0.7164 -1.6777  2.5707
18010TIP3    H275446   4.339   2.317   4.540  3.0496  0.5139 -0.6406
18011TIP3   OH275447   2.645   3.130   3.839 -0.8020  0.1313  0.6540
18011TIP3    H175448   2.688   3.074   3.903  1.0639  0.3899 -0.3218
18011TIP3    H275449   2.575   3.076   3.803  1.1156 -1.7674 -0.4664
18012TIP3   OH275450   2.753   5.719  16.885 -0.1297 -0.3615  0.3071
18012TIP3    H175451   2.793   5.801  16.914  1.6381 -1.2653  0.5968
18012TIP3    H275452   2.714   5.682  16.965  1.8429 -1.2653  0.9198
18013TIP3   OH275453   2.874   6.064  11.796 -0.3849  0.2660  0.6997
18013TIP3    H175454   2.780   6.070  11.781 -0.3555 -1.1224 -0.2195
18013TIP3    H275455   2.903   5.994  11.737  0.9348 -0.4982  2.1886
18014TIP3   OH275456   1.703   0.843   3.614  0.0813 -0.5483  0.0745
18014TIP3    H175457   1.780   0.862   3.667 -0.8328 -1.6872  1.9153
18014TIP3    H275458   1.737   0.832   3.525  1.8850 -0.0329  0.6652
18015TIP3   OH275459   3.390   3.493  12.495 -0.0583 -0.8566  0.4400
18015TIP3    H175460   3.476   3.487  12.454 -0.7588 -3.5237 -0.8700
18015TIP3    H275461   3.406   3.474  12.588  1.0026  1.1228  0.7194
18016TIP3   OH275462   5.075   0.118  16.345  0.1219  0.5800 -0.1937
18016TIP3    H175463   5.072   0.085  16.255  2.2902  0.0298 -0.1258
18016TIP3    H275464   5.070   0.213  16.336  2.9624  0.7140 -1.1642
18017TIP3   OH275465   3.313   3.343  14.255 -0.3855  0.3793  0.7470
18017TIP3    H175466   3.387   3.354  14.315 -0.7062  0.6169  1.1017
18017TIP3    H275467   3.352   3.308  14.175  0.0954  0.3992  0.9713
18018TIP3   OH275468   0.487   2.644   2.685 -0.1554 -0.3758  0.1506
18018TIP3    H175469   0.539   2.615   2.760  0.1468 -0.5501 -0.1228
18018TIP3    H275470   0.546   2.635   2.610 -0.5290 -0.4204 -0.1421
18019TIP3   OH275471   2.621   3.620   6.045 -0.1523  0.6043  0.1269
18019TIP3    H175472   2.664   3.647   6.126 -2.9119  1.2610  1.4741
18019TIP3    H275473   2.630   3.696   5.987  0.3162  0.7925  0.4355
18020TIP3   OH275474   3.334   3.481  12.769  0.3116 -0.1484  0.4950
18020TIP3    H175475   3.347   3.575  12.775 -3.0825  0.4040  1.3877
18020TIP3    H275476   3.242   3.471  12.745  0.8396 -3.2750 -0.7982
18021TIP3   OH275477   4.440   0.673  16.561 -0.7521  0.1100  0.0901
18021TIP3    H175478   4.374   0.676  16.491 -1.6547 -0.6603  0.8832
18021TIP3    H275479   4.524   0.674  16.515 -1.3306 -0.6923 -1.0319
18022TIP3   OH275480   1.617   1.002   2.059  0.0057  0.1564 -0.6951
18022TIP3    H175481   1.666   0.922   2.043 -0.7484 -0.0089 -2.4253
18022TIP3    H275482   1.529   0.983   2.026  0.1437  2.0983 -2.3840
18023TIP3   OH275483   2.352   2.572   3.839  0.0241 -0.2291 -0.4885
18023TIP3    H175484   2.404   2.634   3.789  1.7497 -1.9364 -0.9090
18023TIP3    H275485   2.343   2.496   3.782 -1.3640 -0.7069  0.3040
18024TIP3   OH275486   5.967   0.161   0.768 -0.4636 -0.1391  0.2276
18024TIP3    H175487   5.894   0.107   0.799 -0.0816 -0.4835  0.5304
18024TIP3    H275488   6.027   0.099   0.726 -0.8841  0.2925 -1.0658
18025TIP3   OH275489   3.446   5.597  15.658 -0.2964 -0.1527 -1.1395
18025TIP3    H175490   3.448   5.567  15.749 -4.2466 -1.2892 -1.2672
18025TIP3    H275491   3.453   5.518  15.606 -0.2985  0.2622 -1.7812
18026TIP3   OH275492   0.949   1.434  13.312  0.5441  0.5566  0.5016
18026TIP3    H175493   0.903   1.454  13.230 -0.3335 -2.0861  0.2678
18026TIP3    H275494   1.041   1.452  13.292  0.1527  1.6921 -0.4372
18027TIP3   OH275495   2.304   6.468   1.685  0.7214  0.2199 -0.1690
18027TIP3    H175496   2.326   6.396   1.627 -0.2322  0.3275 -0.6902
18027TIP3    H275497   2.350   6.544   1.647  0.7422  0.1313 -0.3221
18028TIP3   OH275498   4.307   2.865  17.067 -0.4636 -0.0104 -0.4107
18028TIP3    H175499   4.359   2.785  17.066 -0.6316 -0.3875  3.6021
18028TIP3    H275500   4.223   2.839  17.028 -0.3138 -1.6544  0.2587
18029TIP3   OH275501   3.256   5.687  12.872 -0.4997  0.2849 -0.3103
18029TIP3    H175502   3.287   5.623  12.936  0.7225 -0.9047 -1.9813
18029TIP3    H275503   3.163   5.699  12.892 -0.7090 -1.8636  0.2220
18030TIP3   OH275504   5.223   5.508  13.491  0.0509  0.2935 -0.3423
18030TIP3    H175505   5.164   5.584  13.500  0.3270  0.7107 -1.8805
18030TIP3    H275506   5.260   5.497  13.579  0.0091  1.9469 -0.0848
18031TIP3   OH275507   3.095   6.255   3.855  0.1864 -0.2301 -0.0732
18031TIP3    H175508   3.145   6.328   3.892  0.0693  0.7227 -1.7170
18031TIP3    H275509   3.015   6.296   3.822 -0.0639 -1.1819 -0.6557
18032TIP3   OH275510   1.542   6.456   1.726  0.4539 -0.1379 -0.2236
18032TIP3    H175511   1.630   6.491   1.734 -0.6765  2.6144  1.7178
18032TIP3    H275512   1.538   6.384   1.789  0.5372  1.6482  1.9091
18033TIP3   OH275513   5.145   4.382   0.788  0.5923  0.4737 -0.4067
18033TIP3    H175514   5.236   4.394   0.818  0.8809  1.5860 -1.6042
18033TIP3    H275515   5.152   4.377   0.693 -0.6134  0.6344 -0.5162
18034TIP3   OH275516   2.375   5.862  13.878 -0.2771 -0.1220 -0.0166
18034TIP3    H175517   2.284   5.836  13.858  0.3983 -2.4098 -0.4404
18034TIP3    H275518   2.401   5.803  13.948  2.3621 -3.0467 -3.0911
18035TIP3   OH275519   1.482   6.566   5.936 -0.6380 -0.1761 -0.0212
18035TIP3    H175520   1.555   6.628   5.925 -1.3024  1.0512  1.9878
18035TIP3    H275521   1.523   6.489   5.976 -0.1537 -0.2457 -0.6259
18036TIP3   OH275522   5.458   0.894   0.074  0.2499  0.3468  0.2075
18036TIP3    H175523   5.432   0.808   0.042 -0.6406  1.5339 -2.5000
18036TIP3    H275524   5.540   0.913   0.028  0.4958  0.9152  0.8609
18037TIP3   OH275525   2.589   2.716   2.851 -0.3034 -0.3533 -0.1851
18037TIP3    H175526   2.666   2.758   2.813  0.5210 -0.2164  1.5478
18037TIP3    H275527   2.524   2.787   2.858 -0.5627 -0.4284 -1.4677
18038TIP3   OH275528   2.813   5.732   4.265  0.2177  0.1354 -1.3793
18038TIP3    H175529   2.874   5.680   4.317 -0.2661  0.5409 -0.3877
18038TIP3    H275530   2.731   5.683   4.267 -0.4922  1.2832  0.2789
18039TIP3   OH275531   3.348   4.951   0.471 -0.3349 -0.4587  0.0821
18039TIP3    H175532   3.270   4.938   0.416 -0.4448 -0.2358  0.1857
18039TIP3    H275533   3.375   5.042   0.454  0.1091 -0.6398 -0.2210
18040TIP3   OH275534   1.022   1.151  16.687  0.1778 -0.0267  0.1940
18040TIP3    H175535   1.097   1.190  16.731 -0.1315  2.4374 -1.2909
18040TIP3    H275536   0.970   1.225  16.657 -2.6842 -1.6221  0.7805
18041TIP3   OH275537   6.170   0.598   2.721  0.7296  0.1036  0.0376
18041TIP3    H175538   6.161   0.591   2.816 -0.5596  1.7832  0.0969
18041TIP3    H275539   6.133   0.517   2.686  0.2291 -0.0670  0.9463
18042TIP3   OH275540   6.351   4.509  12.513  0.3691  0.4926  0.0244
18042TIP3    H175541   6.262   4.540  12.497  0.1849  0.5257  1.0504
18042TIP3    H275542   6.354   4.492  12.607  0.8755 -1.2820 -0.2708
18043TIP3   OH275543   1.843   4.952   0.135 -0.4375  0.2757  0.4889
18043TIP3    H175544   1.842   5.047   0.146 -0.5128  0.5747 -1.7319
18043TIP3    H275545   1.754   4.929   0.111 -0.1035 -0.1573 -0.3732
18044TIP3   OH275546   5.651   4.448   2.614 -0.3046  0.2542 -0.2006
18044TIP3    H175547   5.592   4.385   2.655 -0.4176  0.5369  0.0767
18044TIP3    H275548   5.738   4.427   2.649 -0.3237  0.1850 -0.1945
18045TIP3   OH275549   4.175   0.582  15.056 -0.0135  0.0616  0.1174
18045TIP3    H175550   4.135   0.669  15.058 -0.8556 -0.3361  0.8595
18045TIP3    H275551   4.104   0.523  15.032  0.0377 -0.6755  1.6317
18046TIP3   OH275552   2.435   5.368   1.389 -0.1580  0.8723  0.2944
18046TIP3    H175553   2.487   5.449   1.387  0.3810  0.5498 -2.4850
18046TIP3    H275554   2.375   5.376   1.315  0.6492 -1.7033 -0.7326
18047TIP3   OH275555   1.903   1.000  13.737  0.4435 -0.9523 -0.0278
18047TIP3    H175556   1.929   1.075  13.791  2.3351 -2.1878  0.9152
18047TIP3    H275557   1.808   1.003  13.736  0.4436  1.4622 -0.0656
18048TIP3   OH275558   2.693   0.738   5.842 -0.3338 -0.2924 -0.3158
18048TIP3    H175559   2.653   0.781   5.918  0.2667  0.7052 -0.5430
18048TIP3    H275560   2.762   0.683   5.879  2.4233  2.8513 -0.2030
18049TIP3   OH275561   3.601   1.699  14.607 -0.0460  0.1754  0.3313
18049TIP3    H175562   3.636   1.684  14.695  1.9807  0.4106 -0.3868
18049TIP3    H275563   3.667   1.753  14.563 -2.4003  2.6683 -0.4208
18050TIP3   OH275564   1.532   6.458   4.251 -0.0939  0.0083 -0.4162
18050TIP3    H175565   1.517   6.369   4.220 -1.2933 -0.2046  0.7000
18050TIP3    H275566   1.465   6.472   4.318  2.4529  0.3612  2.2512
18051TIP3   OH275567   5.323   5.629   1.025 -0.1997 -0.7519  0.3019
18051TIP3    H175568   5.364   5.704   0.982 -1.6026  0.3213  0.7514
18051TIP3    H275569   5.274   5.667   1.098  0.0958 -2.2655  1.3283
18052TIP3   OH275570   0.387   0.228  15.299 -0.2076  0.1246  0.3215
18052TIP3    H175571   0.438   0.176  15.237  1.0830  0.2393  1.2385
18052TIP3    H275572   0.301   0.186  15.301  0.2948 -0.9711 -0.1774
18053TIP3   OH275573   6.350   3.099   0.069 -0.4937 -0.3783  0.2458
18053TIP3    H175574   6.439   3.124   0.093 -0.4075 -1.6731  1.4244
18053TIP3    H275575   6.308   3.079   0.152 -1.8827  0.1439 -0.2991
18054TIP3   OH275576   3.080   3.792   3.821  0.4523  0.0364  0.1577
18054TIP3    H175577   3.042   3.868   3.864  0.9564  0.7691 -0.6665
18054TIP3    H275578   3.028   3.718   3.853 -0.3637  0.7747  0.5797
18055TIP3   OH275579   3.585   0.302  10.609  0.0665 -0.3893 -0.1047
18055TIP3    H175580   3.575   0.396  10.624 -0.8705 -0.3871 -0.7068
18055TIP3    H275581   3.527   0.283  10.536  0.9785 -1.2719 -0.6086
18056TIP3   OH275582   5.867   1.112   4.964 -0.9871  0.1269  0.3897
18056TIP3    H175583   5.877   1.207   4.960  1.3491 -0.1052 -0.9422
18056TIP3    H275584   5.854   1.094   5.057 -1.7582  1.7508  0.6384
18057TIP3   OH275585   6.198   1.793  15.306  0.4843 -0.0044  0.0735
18057TIP3    H175586   6.193   1.714  15.360  1.9273  0.6204  1.1690
18057TIP3    H275587   6.112   1.834  15.315  0.4425 -0.3214  1.2888
18058TIP3   OH275588   5.364   2.753   1.779 -0.6461  0.5771 -0.2801
18058TIP3    H175589   5.408   2.674   1.808  1.5976  1.4486 -1.0998
18058TIP3    H275590   5.301   2.723   1.714  0.6588 -0.4859 -1.1002
18059TIP3   OH275591   2.301   3.618   4.463  0.4679 -0.6386  0.7560
18059TIP3    H175592   2.283   3.657   4.549  1.1248  0.4890  0.3978
18059TIP3    H275593   2.388   3.579   4.473 -0.1162 -1.9286  1.0618
18060TIP3   OH275594   2.225   5.855   4.351 -0.4011  0.5608 -0.2117
18060TIP3    H175595   2.249   5.807   4.272 -0.3227  0.0707  0.1062
18060TIP3    H275596   2.165   5.797   4.398 -0.5240  0.8876  0.0413
18061TIP3   OH275597   1.289   6.285   2.958 -0.3865 -0.1882  0.2301
18061TIP3    H175598   1.306   6.271   3.051 -0.3663  0.0238  0.2595
18061TIP3    H275599   1.305   6.200   2.917  0.1390 -0.1435  0.3413
18062TIP3   OH275600   2.957   2.643  12.130  0.1592 -0.1592  0.8618
18062TIP3    H175601   2.940   2.695  12.051 -1.7622 -0.4364  1.0390
18062TIP3    H275602   3.041   2.674  12.161  0.0954  1.2774 -0.2682
18063TIP3   OH275603   3.838   1.174  10.877 -0.2368  0.2846 -0.0987
18063TIP3    H175604   3.745   1.155  10.865 -1.0073  2.8407  1.0473
18063TIP3    H275605   3.841   1.269  10.891  2.5096  0.2115  0.3553
18064TIP3   OH275606   3.160   0.608  13.159  0.7114 -0.5442  0.5829
18064TIP3    H175607   3.209   0.616  13.077 -0.4893  0.3092 -0.0862
18064TIP3    H275608   3.133   0.697  13.179 -2.6021 -1.2012 -0.4010
18065TIP3   OH275609   5.055   0.928   1.099  0.5024  0.0490 -0.1914
18065TIP3    H175610   5.032   1.011   1.057  1.1537  0.4063  0.1472
18065TIP3    H275611   5.133   0.948   1.151  0.8310 -0.8381 -0.3251
18066TIP3   OH275612   2.889   5.266  15.932 -0.1287 -0.0037  0.2369
18066TIP3    H175613   2.884   5.271  15.836 -0.7245  2.0869  0.3290
18066TIP3    H275614   2.803   5.297  15.962 -0.1903 -1.2713  1.4638
18067TIP3   OH275615   5.879   6.239  16.853  0.2627 -0.0475  0.2037
18067TIP3    H175616   5.829   6.170  16.809  0.2229  0.7371 -1.0395
18067TIP3    H275617   5.832   6.253  16.935 -1.0884  0.0649 -0.5489
18068TIP3   OH275618   6.418   3.676   3.012 -0.7675 -0.5716 -0.2655
18068TIP3    H175619   6.343   3.734   3.006  0.4397  0.9882 -1.1573
18068TIP3    H275620   6.418   3.644   3.103 -3.0012 -1.3922 -0.5082
18069TIP3   OH275621   6.530   5.559   5.783  0.1668 -0.2797  0.1483
18069TIP3    H175622   6.509   5.473   5.819  0.0016  0.5149  2.0768
18069TIP3    H275623   6.624   5.568   5.796  0.3418 -0.5122 -0.8826
18070TIP3   OH275624   3.958   3.511   2.899  0.2885  0.2764  0.0100
18070TIP3    H175625   4.004   3.583   2.856  0.1783  2.0566  2.6554
18070TIP3    H275626   4.014   3.488   2.973 -1.9873  1.1412  2.1290
18071TIP3   OH275627   4.687   0.682   5.579  0.9962 -0.1466  0.2931
18071TIP3    H175628   4.686   0.599   5.532  1.1881 -0.2470  0.4655
18071TIP3    H275629   4.758   0.732   5.539  0.4631  0.1962 -0.2552
18072TIP3   OH275630   2.571   0.942  13.973 -0.3905  0.2733 -0.0272
18072TIP3    H175631   2.628   0.945  14.049  0.4116 -0.1429 -0.5984
18072TIP3    H275632   2.501   1.004  13.992 -1.1611 -1.0710  1.8071
18073TIP3   OH275633   1.654   1.937  15.139  0.1102  0.6509  0.1859
18073TIP3    H175634   1.561   1.915  15.135  0.3933 -0.4413 -0.9480
18073TIP3    H275635   1.659   2.004  15.208 -1.1797 -0.9723  1.9687
18074TIP3   OH275636   6.091   4.329  11.489 -0.2205 -0.0563  0.1956
18074TIP3    H175637   6.152   4.256  11.495  1.5385  1.2315 -1.0275
18074TIP3    H275638   6.145   4.407  11.501 -1.1288  1.2723 -3.2476
18075TIP3   OH275639   5.949   4.394   4.939 -0.3769  0.2493 -0.0422
18075TIP3    H175640   5.859   4.363   4.928  0.2722 -2.7193  1.9559
18075TIP3    H275641   6.003   4.317   4.920  1.8118  1.9477 -1.1725
18076TIP3   OH275642   1.436   1.596  14.325  0.5855  0.3884 -0.0690
18076TIP3    H175643   1.372   1.594  14.254 -0.4976  0.4826  0.8760
18076TIP3    H275644   1.421   1.515  14.373  1.1387  0.4433  0.2072
18077TIP3   OH275645   2.222   0.411  16.776 -0.6205  0.2483  0.2837
18077TIP3    H175646   2.177   0.448  16.852 -0.1960  0.0137  0.6528
18077TIP3    H275647   2.310   0.392  16.807 -0.1858  0.9035 -0.4936
18078TIP3   OH275648   3.814   5.404  14.953 -0.1969  0.0381  0.3952
18078TIP3    H175649   3.838   5.321  14.994  0.7762  0.0513 -0.1203
18078TIP3    H275650   3.769   5.379  14.872 -2.1385  0.0113  1.4018
18079TIP3   OH275651   3.429   4.421   1.719  0.4539  0.0589 -0.4761
18079TIP3    H175652   3.473   4.484   1.661  2.2221 -0.1656  0.5404
18079TIP3    H275653   3.475   4.338   1.702 -0.9034 -0.6723 -0.7664
18080TIP3   OH275654   1.592   0.115   3.203 -0.5650 -0.6958  0.1194
18080TIP3    H175655   1.607   0.022   3.186  1.3205 -0.1071 -1.8351
18080TIP3    H275656   1.535   0.144   3.131 -0.3789 -0.1368  0.1886
18081TIP3   OH275657   1.444   2.879   3.316 -0.0224 -0.2249 -0.3120
18081TIP3    H175658   1.489   2.942   3.372 -1.2174  1.3521 -1.0420
18081TIP3    H275659   1.449   2.796   3.364 -0.7879  1.0001  2.0411
18082TIP3   OH275660   0.945   2.670   4.217 -0.0759  0.6654  0.1075
18082TIP3    H175661   0.964   2.757   4.183  2.0091  0.1229 -0.2622
18082TIP3    H275662   0.966   2.676   4.310  0.0323  0.5669  0.0890
18083TIP3   OH275663   2.630   3.047   2.328 -0.8424  0.0930  0.4087
18083TIP3    H175664   2.607   2.999   2.248  0.4814 -1.2188  0.7592
18083TIP3    H275665   2.566   3.019   2.393  0.2236 -1.7045  0.7531
18084TIP3   OH275666   4.268   6.282  12.870 -0.4076 -0.4598  0.7388
18084TIP3    H175667   4.291   6.199  12.829 -1.9163 -0.6240  0.1470
18084TIP3    H275668   4.190   6.311  12.823 -0.0324  1.1960  1.0727
18085TIP3   OH275669   1.710   2.954  17.289  0.0437 -0.1132 -0.1022
18085TIP3    H175670   1.622   2.983  17.315  0.2001  0.6547 -0.3839
18085TIP3    H275671   1.768   2.990  17.356  0.3352  0.9806 -0.9024
18086TIP3   OH275672   4.998   6.739   2.852 -0.6243 -0.0152  0.2410
18086TIP3    H175673   4.904   6.741   2.839 -0.6519 -2.0702 -0.2364
18086TIP3    H275674   5.009   6.731   2.947 -1.0192 -1.3284  0.1963
18087TIP3   OH275675   5.325   2.232   1.497 -0.2065 -0.3132  0.0686
18087TIP3    H175676   5.393   2.240   1.564 -0.7503  0.6208  0.5341
18087TIP3    H275677   5.341   2.147   1.455  0.4234 -0.7008  1.0738
18088TIP3   OH275678   1.272   5.097   1.068 -0.2591 -0.7900 -0.2538
18088TIP3    H175679   1.332   5.113   0.994  0.5601 -2.6253 -0.0451
18088TIP3    H275680   1.268   5.002   1.075 -0.5211 -0.6582  1.9270
18089TIP3   OH275681   3.653   6.336  14.240  0.2262 -0.2179 -0.1738
18089TIP3    H175682   3.641   6.258  14.295 -1.6309  0.6460  0.7456
18089TIP3    H275683   3.576   6.390  14.258  0.7046  1.1593 -1.9334
18090TIP3   OH275684   5.365   5.072   4.662  0.5029  0.4467  0.7635
18090TIP3    H175685   5.412   4.989   4.671 -0.1956 -0.1692 -0.9094
18090TIP3    H275686   5.273   5.048   4.660  0.3290  1.0699 -1.1238
18091TIP3   OH275687   3.775   6.166  13.805  0.0750  0.1030 -0.3423
18091TIP3    H175688   3.723   6.211  13.737 -2.1296 -1.6357  0.0900
18091TIP3    H275689   3.804   6.085  13.763  0.4151 -0.0515  0.1848
18092TIP3   OH275690   2.768   6.259   1.205 -0.1801  0.3981  0.5365
18092TIP3    H175691   2.760   6.338   1.152 -0.1827  0.7368  1.0272
18092TIP3    H275692   2.729   6.189   1.152  0.3336  0.6159 -0.1314
18093TIP3   OH275693   4.237   5.630  14.445  0.2050 -0.5247  0.3637
18093TIP3    H175694   4.156   5.675  14.468  1.1355  0.1537  2.5638
18093TIP3    H275695   4.307   5.691  14.470  1.4454 -0.5827 -2.5300
18094TIP3   OH275696   3.384   2.096   1.183  0.1045 -0.5296  0.4065
18094TIP3    H175697   3.458   2.157   1.176 -0.7125  0.6156  1.2397
18094TIP3    H275698   3.396   2.053   1.267 -2.0246  2.3546  2.3843
18095TIP3   OH275699   4.840   4.799  12.541 -0.1504 -0.5155 -0.2061
18095TIP3    H175700   4.779   4.864  12.507  1.0187  0.5477 -0.3720
18095TIP3    H275701   4.878   4.840  12.619  2.8619  0.4033 -1.9901
18096TIP3   OH275702   3.176   0.452  15.681 -0.6785  0.0582 -0.5452
18096TIP3    H175703   3.249   0.483  15.629 -0.3560 -0.6154 -0.5097
18096TIP3    H275704   3.098   0.485  15.637 -0.3260  1.6446 -0.0135
18097TIP3   OH275705   1.208   0.775  16.328  0.2149  0.0351 -0.0882
18097TIP3    H175706   1.292   0.765  16.283 -0.0544 -0.7332 -0.4399
18097TIP3    H275707   1.219   0.725  16.409  0.0424 -0.2154 -0.2171
18098TIP3   OH275708   6.332   2.809   0.949 -0.3886  0.5707 -0.5033
18098TIP3    H175709   6.335   2.900   0.978  0.7827  0.4919 -0.3556
18098TIP3    H275710   6.415   2.772   0.977 -0.9534 -0.6210 -0.3393
18099TIP3   OH275711   0.337   0.193  14.896 -0.1284 -0.2371  0.0193
18099TIP3    H175712   0.319   0.284  14.918 -0.0969 -0.1717 -0.2291
18099TIP3    H275713   0.356   0.193  14.802  0.2193 -0.4446  0.0856
18100TIP3   OH275714   1.521   6.083  15.405 -0.4202 -0.0728  0.0779
18100TIP3    H175715   1.572   6.014  15.446 -0.5190 -0.3738 -0.2987
18100TIP3    H275716   1.497   6.048  15.319  1.4612  1.3034 -1.0803
18101TIP3   OH275717   6.113   6.635  12.770  0.1369 -0.6040 -0.3864
18101TIP3    H175718   6.032   6.605  12.810  1.6612 -0.8934  2.8480
18101TIP3    H275719   6.151   6.556  12.731 -1.9719 -0.0820 -3.9054
18102TIP3   OH275720   6.327   0.151  11.032  0.5266  0.0404 -0.2910
18102TIP3    H175721   6.351   0.089  10.963  1.4317 -0.1409  0.1740
18102TIP3    H275722   6.299   0.229  10.984 -1.4443 -0.9872 -0.8968
18103TIP3   OH275723   3.225   3.468   3.009  0.6390  0.1128 -0.3786
18103TIP3    H175724   3.256   3.453   2.920 -1.9313  0.3324 -1.4046
18103TIP3    H275725   3.155   3.404   3.022  1.6281 -0.6279  1.9230
18104TIP3   OH275726   3.790   2.047  12.052  0.0473 -0.6438  0.2152
18104TIP3    H175727   3.864   2.066  11.994  2.5138 -3.4390  2.1455
18104TIP3    H275728   3.793   2.115  12.119 -1.0642  0.9535 -1.2755
18105TIP3   OH275729   4.178   4.211  13.958  0.6832 -0.3786  0.5229
18105TIP3    H175730   4.259   4.170  13.989  2.2072  2.7201  1.0348
18105TIP3    H275731   4.208   4.285  13.905 -1.8290  0.9168  0.7730
18106TIP3   OH275732   5.090   6.062  14.243  0.3338  0.2393 -0.1491
18106TIP3    H175733   5.151   6.075  14.170  2.6543  1.1931  1.8509
18106TIP3    H275734   5.137   6.007  14.304 -1.5727 -0.5443  0.6969
18107TIP3   OH275735   5.814   1.890   2.344 -0.0078 -0.2508 -0.4219
18107TIP3    H175736   5.792   1.822   2.407  0.5862 -0.2380 -0.1968
18107TIP3    H275737   5.826   1.969   2.397 -0.6950  0.0353 -0.6807
18108TIP3   OH275738   0.730   4.933   4.583  0.0464  0.7494 -0.0722
18108TIP3    H175739   0.704   4.873   4.513 -1.6011  0.8298  0.4201
18108TIP3    H275740   0.795   4.884   4.634  1.9764  1.0206 -2.1226
18109TIP3   OH275741   6.681   3.085   0.492 -0.2182  0.1574  0.0693
18109TIP3    H175742   6.742   3.015   0.514  0.2246  0.8791  1.2583
18109TIP3    H275743   6.678   3.139   0.570 -1.4938  0.7936 -0.3944
18110TIP3   OH275744   3.442   0.923   4.318 -0.0530  0.1845 -0.3499
18110TIP3    H175745   3.494   0.845   4.335 -0.1920  0.4432  1.5184
18110TIP3    H275746   3.352   0.892   4.312 -0.0401  0.1221 -0.2250
18111TIP3   OH275747   2.433   1.159  14.070 -0.0464 -0.0186  0.1223
18111TIP3    H175748   2.339   1.142  14.078 -0.1289  1.0502  1.8879
18111TIP3    H275749   2.465   1.163  14.160  2.0362 -1.9437 -0.4278
18112TIP3   OH275750   4.527   5.778  16.220  0.0095  0.1608 -0.6273
18112TIP3    H175751   4.501   5.694  16.257  0.0356  0.3980 -0.0645
18112TIP3    H275752   4.622   5.774  16.216  0.0783  0.5395  0.3301
18113TIP3   OH275753   2.490   6.440  12.141 -0.2073  0.0554  0.3987
18113TIP3    H175754   2.564   6.386  12.115 -0.6350  0.6019 -2.3057
18113TIP3    H275755   2.413   6.388  12.117 -0.6906  0.2099  1.5604
18114TIP3   OH275756   5.688   4.978  13.204 -0.1711 -0.2111  0.2182
18114TIP3    H175757   5.638   4.936  13.274  0.4825  1.7709  1.9825
18114TIP3    H275758   5.780   4.966  13.229  0.0534  1.5273  0.3856
18115TIP3   OH275759   0.438   4.955  15.729  0.0211  0.2186  0.9102
18115TIP3    H175760   0.423   4.863  15.749  1.3316 -0.5508 -1.2889
18115TIP3    H275761   0.525   4.974  15.764  0.8959 -0.1857 -0.9647
18116TIP3   OH275762   4.070   6.133  17.075  0.0765  0.0446 -0.3097
18116TIP3    H175763   4.057   6.161  16.984 -0.0082  0.7242 -0.0921
18116TIP3    H275764   4.113   6.208  17.117  0.9994 -0.6331 -0.0216
18117TIP3   OH275765   3.285   2.195   5.838 -0.2122 -0.1883  0.0861
18117TIP3    H175766   3.197   2.192   5.875  1.2314  1.6263  4.2618
18117TIP3    H275767   3.295   2.286   5.808 -0.0094 -0.6185 -1.2132
18118TIP3   OH275768   4.605   6.314   6.220  0.5010  0.7961 -0.8386
18118TIP3    H175769   4.662   6.241   6.242  1.8374  2.4663  1.6048
18118TIP3    H275770   4.516   6.278   6.226  1.1346 -0.7044 -0.1033
18119TIP3   OH275771   5.932   1.693  14.693 -0.5302 -0.0196 -0.7715
18119TIP3    H175772   5.987   1.768  14.669  2.4282 -1.7965 -0.1141
18119TIP3    H275773   5.879   1.723  14.766  0.3390  1.5063 -0.7419
18120TIP3   OH275774   6.559   2.223   5.102  0.5784 -0.1088  0.0206
18120TIP3    H175775   6.481   2.174   5.128  0.7248 -0.6875 -0.6154
18120TIP3    H275776   6.632   2.163   5.120  1.0132  0.9072  1.8692
18121TIP3   OH275777   3.580   3.909  12.744  0.1699 -0.4907  0.0884
18121TIP3    H175778   3.490   3.921  12.715  0.1788 -0.1388  0.1946
18121TIP3    H275779   3.584   3.954  12.828  0.6832  0.3094 -0.3469
18122TIP3   OH275780   1.195   2.852  12.056  0.1497 -0.2869  0.2130
18122TIP3    H175781   1.173   2.943  12.078 -0.0576 -0.3092  0.0971
18122TIP3    H275782   1.132   2.828  11.988 -0.3365 -0.7897  0.8312
18123TIP3   OH275783   3.154   1.633   5.587 -0.9091  0.1562 -0.0445
18123TIP3    H175784   3.214   1.559   5.574  0.7745  1.0703  1.9857
18123TIP3    H275785   3.084   1.598   5.641 -0.0357  0.0450  1.0448
18124TIP3   OH275786   5.508   2.505  13.237 -0.2382 -0.4437  0.0860
18124TIP3    H175787   5.456   2.441  13.189 -1.4626  0.4951  0.0963
18124TIP3    H275788   5.573   2.453  13.285 -1.8545 -1.7751  0.9255
18125TIP3   OH275789   1.267   3.803   2.610  0.2817 -0.6085 -0.8078
18125TIP3    H175790   1.225   3.884   2.581  1.2097  0.1503 -0.0864
18125TIP3    H275791   1.200   3.736   2.598 -0.7339  0.3737 -0.7986
18126TIP3   OH275792   0.908   5.564   3.030  0.6196  0.0153  0.3970
18126TIP3    H175793   0.834   5.607   3.073  1.4295  1.9553 -0.0622
18126TIP3    H275794   0.984   5.591   3.081  1.2848  0.1155 -0.6274
18127TIP3   OH275795   0.135   3.308  16.235  0.2228  0.5887 -0.3606
18127TIP3    H175796   0.177   3.338  16.154 -0.8918  0.5506 -0.9675
18127TIP3    H275797   0.041   3.312  16.217 -0.0212 -0.7456  0.4629
18128TIP3   OH275798   0.433   5.250   1.593  0.0780 -0.2119 -0.2480
18128TIP3    H175799   0.461   5.182   1.531 -3.0292 -1.8271 -0.0440
18128TIP3    H275800   0.359   5.293   1.549  0.4055  1.3922  0.6981
18129TIP3   OH275801   2.556   6.197  14.133 -0.5800 -0.1794  0.0086
18129TIP3    H175802   2.582   6.269  14.190 -0.5570  1.8649 -2.4020
18129TIP3    H275803   2.638   6.169  14.092 -0.8768 -0.0722 -0.6742
18130TIP3   OH275804   0.872   2.991  15.174  0.0084  0.1971  0.4419
18130TIP3    H175805   0.810   2.976  15.102 -1.6095 -0.0058  1.8023
18130TIP3    H275806   0.876   2.908  15.220  1.6189  0.1076  0.1822
18131TIP3   OH275807   6.049   2.693  13.956 -0.0951 -0.4073 -0.4059
18131TIP3    H175808   6.070   2.752  14.028 -0.3982  0.0187 -0.6659
18131TIP3    H275809   6.017   2.613  13.999 -1.7331  0.3976 -0.0867
18132TIP3   OH275810   1.299   5.091   2.034 -0.0728 -0.2599  0.4153
18132TIP3    H175811   1.232   5.130   2.089  0.3338 -0.7160  1.2453
18132TIP3    H275812   1.373   5.077   2.092 -0.4696 -3.0377  0.3910
18133TIP3   OH275813   5.502   2.110   3.935 -0.0357 -0.4657 -0.1966
18133TIP3    H175814   5.544   2.183   3.889 -0.6330 -0.2081 -0.3407
18133TIP3    H275815   5.417   2.145   3.963 -0.3548 -1.1237 -0.3257
18134TIP3   OH275816   4.590   5.907  14.844  0.7231 -0.5889 -0.6339
18134TIP3    H175817   4.607   5.979  14.784 -1.6686  0.4798 -0.1642
18134TIP3    H275818   4.533   5.848  14.795 -2.4952  1.0180  0.8489
18135TIP3   OH275819   1.587   6.055  17.127  0.4132 -0.7343 -0.5240
18135TIP3    H175820   1.553   6.144  17.116  1.5472 -0.2811 -0.4836
18135TIP3    H275821   1.510   6.002  17.145 -0.4658 -0.0012 -1.9401
18136TIP3   OH275822   6.692   6.695  15.946  0.1918  0.6143  0.3112
18136TIP3    H175823   6.743   6.621  15.911 -0.4951  0.9012 -1.4088
18136TIP3    H275824   6.757   6.752  15.987  0.7383 -0.9018  1.6401
18137TIP3   OH275825   1.754   5.439  14.305 -0.4125 -0.5140  0.3014
18137TIP3    H175826   1.676   5.493  14.314 -0.0838 -0.0548  0.4415
18137TIP3    H275827   1.827   5.501  14.311 -0.0223 -1.0037  0.7169
18138TIP3   OH275828   4.328   2.295   6.713 -0.1925  0.0310 -0.0410
18138TIP3    H175829   4.343   2.201   6.728  1.5796  0.1386 -0.8331
18138TIP3    H275830   4.278   2.324   6.790 -0.2426 -1.4301  0.5146
18139TIP3   OH275831   1.018   2.063   6.416 -0.1001  0.0867 -0.0549
18139TIP3    H175832   1.000   2.143   6.465 -1.6680 -0.5958  0.5607
18139TIP3    H275833   1.027   1.995   6.482 -0.8652 -0.6010 -0.6279
18140TIP3   OH275834   0.394   1.063  17.090 -0.1132  0.4982 -0.3726
18140TIP3    H175835   0.330   1.124  17.128  0.5248  1.0215 -0.1160
18140TIP3    H275836   0.452   1.119  17.039 -1.1583 -0.2168 -2.4735
18141TIP3   OH275837   3.391   1.572   3.926  0.4392 -0.4247  0.9153
18141TIP3    H175838   3.399   1.667   3.929 -0.6660 -0.3231  0.9847
18141TIP3    H275839   3.357   1.547   4.011 -1.5742 -0.6141  0.1125
18142TIP3   OH275840   0.055   0.294  12.441  0.4962  0.2072 -0.5719
18142TIP3    H175841  -0.027   0.278  12.396 -0.8514  1.8917  1.1004
18142TIP3    H275842   0.120   0.306  12.371 -0.6070 -1.3372 -1.9116
18143TIP3   OH275843   1.626   2.986   3.493  0.2244 -0.2832 -0.1639
18143TIP3    H175844   1.612   2.963   3.584 -1.2747 -1.2250 -0.5810
18143TIP3    H275845   1.698   3.049   3.494 -0.0698  0.0721  1.6935
18144TIP3   OH275846   5.498   0.053   4.212 -0.1980 -0.5756 -0.1221
18144TIP3    H175847   5.547   0.116   4.264 -0.9903  0.2106 -0.2988
18144TIP3    H275848   5.564   0.010   4.158  0.7061 -1.7314  1.8021
18145TIP3   OH275849   5.658   0.306  12.276 -0.0045 -0.1584 -0.1441
18145TIP3    H175850   5.575   0.322  12.231 -0.4113  1.1026  0.9920
18145TIP3    H275851   5.635   0.254  12.352  0.4684 -1.0089 -0.5644
18146TIP3   OH275852   0.109   0.267  16.647 -0.0073  0.2357 -0.1261
18146TIP3    H175853   0.023   0.297  16.616  0.0206  0.4931  0.0438
18146TIP3    H275854   0.166   0.342  16.636  0.2418  0.0079 -0.4039
18147TIP3   OH275855   5.094   2.174  15.196 -1.3714 -0.6207  0.5742
18147TIP3    H175856   5.168   2.207  15.246 -0.1740 -0.6420 -1.1061
18147TIP3    H275857   5.024   2.163  15.261 -0.7841  1.9432  1.7933
18148TIP3   OH275858   6.496   2.667  13.141  0.1515 -0.7114 -0.5169
18148TIP3    H175859   6.404   2.679  13.117  0.1173  0.1499 -0.0290
18148TIP3    H275860   6.493   2.639  13.233  0.3544 -1.5497 -0.7584
18149TIP3   OH275861   5.808   6.238  15.492 -0.0752 -0.6279 -0.4331
18149TIP3    H175862   5.864   6.193  15.555 -2.1240 -0.3213  1.7821
18149TIP3    H275863   5.856   6.318  15.470  0.8654 -0.9118  0.4914
18150TIP3   OH275864   6.412   1.279  15.196  0.1420  0.4569 -0.2623
18150TIP3    H175865   6.412   1.351  15.132  0.3789 -1.8773 -3.0970
18150TIP3    H275866   6.321   1.250  15.199 -0.0347  1.0813  1.2044
18151TIP3   OH275867   1.879   1.276  14.894  0.3443 -0.1135  1.0077
18151TIP3    H175868   1.941   1.334  14.851  0.8111 -0.9371  0.5239
18151TIP3    H275869   1.916   1.261  14.981  1.0957 -0.9640  0.5649
18152TIP3   OH275870   3.187   1.045  14.764 -0.5516  0.6700 -0.5080
18152TIP3    H175871   3.205   1.047  14.670  1.3998  1.0578 -0.1699
18152TIP3    H275872   3.232   0.967  14.796 -3.9186 -1.3731 -0.3092
18153TIP3   OH275873   2.649   4.792   2.416 -0.7600  0.1179 -0.0030
18153TIP3    H175874   2.603   4.848   2.353 -0.6786  0.7856  0.5261
18153TIP3    H275875   2.581   4.759   2.473 -0.5005  2.1480  1.6021
18154TIP3   OH275876   4.139   4.520  15.827 -0.2634  0.2576 -0.1194
18154TIP3    H175877   4.147   4.549  15.918 -0.9629  0.8425 -0.2322
18154TIP3    H275878   4.121   4.601  15.778  0.5300  0.0037 -0.8342
18155TIP3   OH275879   0.532   6.549  15.141 -0.1548  0.0996  0.5198
18155TIP3    H175880   0.493   6.635  15.123  0.3745  0.6947  1.9812
18155TIP3    H275881   0.625   6.568  15.154  0.5205 -1.1410 -1.9082
18156TIP3   OH275882   6.002   5.372  14.695 -0.0102 -0.0109 -0.3584
18156TIP3    H175883   5.962   5.303  14.643 -3.0084  0.3708  1.2478
18156TIP3    H275884   6.053   5.324  14.761 -2.0133 -0.7870  0.7073
18157TIP3   OH275885   2.609   2.569   3.070  0.3959  0.5532 -0.3796
18157TIP3    H175886   2.654   2.630   3.128 -1.4013  1.3468  0.2488
18157TIP3    H275887   2.609   2.614   2.985  2.0275 -0.1079 -0.7614
18158TIP3   OH275888   0.904   4.468   3.079 -0.4192  0.0536  0.2657
18158TIP3    H175889   0.835   4.533   3.095 -1.2274 -0.6810 -0.1045
18158TIP3    H275890   0.932   4.485   2.989  0.2420  0.6732  0.5854
18159TIP3   OH275891   4.535   0.799  16.160  0.1063  0.6771 -0.4768
18159TIP3    H175892   4.463   0.814  16.221 -1.1705  1.5628 -2.1228
18159TIP3    H275893   4.521   0.863  16.090  2.5783  0.9499 -0.8023
18160TIP3   OH275894   1.882   5.151   5.555  0.4401 -0.2523  0.0273
18160TIP3    H175895   1.812   5.085   5.553 -0.4516  0.6725 -1.8576
18160TIP3    H275896   1.840   5.229   5.592 -0.3768  1.0385 -3.1885
18161TIP3   OH275897   4.700   5.639  15.276  0.2637  0.2129 -0.0589
18161TIP3    H175898   4.704   5.734  15.278  2.6051  0.1863 -1.0811
18161TIP3    H275899   4.633   5.616  15.341 -0.0365  2.5085  0.5064
18162TIP3   OH275900   1.843   3.454  14.374 -0.1155 -0.1155 -0.4605
18162TIP3    H175901   1.779   3.384  14.383  0.3588 -0.4494  0.3801
18162TIP3    H275902   1.857   3.461  14.279 -1.1501 -0.2510 -0.6270
18163TIP3   OH275903   0.629   5.939   1.090  0.2099  0.0250  0.7052
18163TIP3    H175904   0.555   5.880   1.106  0.5075 -0.5560 -0.0163
18163TIP3    H275905   0.707   5.886   1.107  0.4774  0.7609  1.9072
18164TIP3   OH275906   5.213   0.847  13.010  0.5644 -0.1713  0.0270
18164TIP3    H175907   5.180   0.887  12.929  0.0134  0.3265  0.4909
18164TIP3    H275908   5.256   0.766  12.981 -0.7868 -0.6814 -0.6119
18165TIP3   OH275909   5.510   2.512  16.251  0.7233 -0.2284 -0.0597
18165TIP3    H175910   5.422   2.528  16.217 -0.4922 -3.9108  0.8805
18165TIP3    H275911   5.568   2.551  16.185 -1.5571  0.4398 -1.8394
18166TIP3   OH275912   0.694   3.657  16.185 -0.3606 -0.1929 -0.2625
18166TIP3    H175913   0.753   3.713  16.234 -1.1525  0.0632  0.4256
18166TIP3    H275914   0.668   3.710  16.110  0.4247 -0.3819 -0.6784
18167TIP3   OH275915   1.077   2.888   5.662  0.1384  0.4911 -0.2159
18167TIP3    H175916   1.067   2.852   5.750  0.7786 -0.0169 -0.3445
18167TIP3    H275917   1.063   2.813   5.604 -2.0304  1.1480 -0.6396
18168TIP3   OH275918   6.025   1.574   1.815  0.1677  0.3283  0.0412
18168TIP3    H175919   6.004   1.526   1.735 -0.7369  0.1780  0.3642
18168TIP3    H275920   6.106   1.534   1.846 -0.3941 -0.7710  0.1207
18169TIP3   OH275921   6.053   2.927   0.217 -0.1384  0.1728 -0.0519
18169TIP3    H175922   6.125   2.977   0.257 -0.9860  0.7164  0.8463
18169TIP3    H275923   5.974   2.978   0.238 -0.8850 -0.8983 -0.1969
18170TIP3   OH275924   2.462   0.845   1.630 -0.3274  0.1799  0.2146
18170TIP3    H175925   2.455   0.925   1.683 -1.2393 -0.6501  1.4086
18170TIP3    H275926   2.480   0.776   1.694 -1.8876 -0.9217 -0.4773
18171TIP3   OH275927   4.714   3.145  15.212  0.5864  0.1679  0.4585
18171TIP3    H175928   4.698   3.072  15.271 -0.4660  0.0921  0.0896
18171TIP3    H275929   4.628   3.181  15.193  0.6203 -1.0948 -2.6635
18172TIP3   OH275930   2.410   0.692  13.960 -0.4283 -0.2903  0.2676
18172TIP3    H175931   2.385   0.701  13.868  1.0580  0.4412 -0.0990
18172TIP3    H275932   2.487   0.748  13.969  0.7639 -2.0240  1.4307
18173TIP3   OH275933   4.354   0.545  13.674  0.1714 -0.0991  0.1695
18173TIP3    H175934   4.351   0.640  13.669 -1.9111 -0.0192  1.5437
18173TIP3    H275935   4.291   0.516  13.607 -1.0430 -0.3631  1.3797
18174TIP3   OH275936   5.168   0.279  15.023  0.2713 -0.4341 -0.2280
18174TIP3    H175937   5.205   0.367  15.019 -0.2041 -0.2713 -1.6060
18174TIP3    H275938   5.074   0.292  15.005 -0.5535 -0.8253  3.1764
18175TIP3   OH275939   1.124   1.708   0.729 -0.0685 -0.7369 -0.1028
18175TIP3    H175940   1.100   1.788   0.683  0.6672 -0.3610  0.1480
18175TIP3    H275941   1.130   1.733   0.821 -1.1937 -1.4084  0.1694
18176TIP3   OH275942   5.368   0.855  11.098 -0.3806 -0.2359 -0.3074
18176TIP3    H175943   5.400   0.772  11.061  0.3157 -0.3790  0.5814
18176TIP3    H275944   5.313   0.892  11.029  0.6519 -0.6314 -1.3746
18177TIP3   OH275945   3.901   0.396   1.501  0.2722  0.3304 -0.6771
18177TIP3    H175946   3.920   0.377   1.593 -1.5456 -2.2454 -0.7139
18177TIP3    H275947   3.927   0.317   1.455 -0.3067  0.9696 -2.1615
18178TIP3   OH275948   6.115   4.246  16.271 -0.1436 -0.3876  0.6558
18178TIP3    H175949   6.158   4.284  16.348  0.2081 -0.9022  0.7204
18178TIP3    H275950   6.169   4.171  16.248  0.0397  0.0620 -0.4192
18179TIP3   OH275951   2.569   5.561   3.880 -0.2635  0.0640  0.1524
18179TIP3    H175952   2.612   5.646   3.881  2.1509 -1.0812 -0.0555
18179TIP3    H275953   2.533   5.551   3.968  0.9141  0.6128  0.7144
18180TIP3   OH275954   5.757   3.765   4.770 -0.3704 -0.0706 -0.2082
18180TIP3    H175955   5.807   3.683   4.773 -2.3101 -1.3205  0.2213
18180TIP3    H275956   5.681   3.744   4.717 -0.5516  1.7164 -0.7088
18181TIP3   OH275957   2.122   2.482   2.644  0.4475 -0.1152 -0.0282
18181TIP3    H175958   2.058   2.451   2.708  1.2636  0.7973  1.2863
18181TIP3    H275959   2.084   2.564   2.610  0.9557  0.5058  0.8627
18182TIP3   OH275960   0.391   2.821  15.684  0.0670 -1.0673  0.0566
18182TIP3    H175961   0.314   2.848  15.634  1.4664  1.2178 -1.0014
18182TIP3    H275962   0.435   2.758  15.627 -0.4673 -1.6320  0.2487
18183TIP3   OH275963   4.532   1.493   3.536  0.4325  0.0435 -0.5293
18183TIP3    H175964   4.551   1.518   3.627 -0.6429  1.1017 -0.5741
18183TIP3    H275965   4.614   1.510   3.489  0.4127  1.3821 -0.1184
18184TIP3   OH275966   6.647   2.603  14.756 -0.2118  0.2600  0.5878
18184TIP3    H175967   6.567   2.577  14.710  1.0521 -0.7180 -1.1777
18184TIP3    H275968   6.643   2.556  14.840 -1.8989  0.9819  0.9484
18185TIP3   OH275969   3.811   5.975   4.778  0.1707 -0.4698  0.2887
18185TIP3    H175970   3.903   6.002   4.787  0.1024 -0.3747  0.7523
18185TIP3    H275971   3.814   5.896   4.725  0.7144 -1.5739  1.8778
18186TIP3   OH275972   5.288   3.302   2.579 -0.1099  0.4969  0.3774
18186TIP3    H175973   5.322   3.390   2.596  1.0805 -0.0727  1.0823
18186TIP3    H275974   5.249   3.275   2.662  2.6588 -0.9499  1.3686
18187TIP3   OH275975   1.794   6.400  16.438  0.5554 -0.3204  1.1696
18187TIP3    H175976   1.836   6.484  16.454 -1.9265  1.1626  0.4506
18187TIP3    H275977   1.777   6.364  16.525  3.1170 -0.9429  1.4745
18188TIP3   OH275978   1.937   3.756   2.902  0.1391  0.2287  0.1688
18188TIP3    H175979   1.890   3.705   2.968 -1.4678 -0.0646 -1.1293
18188TIP3    H275980   2.017   3.707   2.886 -0.6540 -1.0745  0.0705
18189TIP3   OH275981   4.824   6.355  14.790 -0.2693 -0.2180 -0.0631
18189TIP3    H175982   4.807   6.437  14.836  0.8536  1.0511 -1.7644
18189TIP3    H275983   4.900   6.318  14.834  2.3963  2.2176 -2.1269
18190TIP3   OH275984   1.190   4.558  15.761 -0.2566 -0.2923  0.1475
18190TIP3    H175985   1.107   4.513  15.778 -0.5318 -0.5515 -1.6679
18190TIP3    H275986   1.255   4.488  15.755 -0.5166 -0.4010 -1.7321
18191TIP3   OH275987   3.974   6.470  10.366 -0.2368 -0.3039 -0.4143
18191TIP3    H175988   3.905   6.412  10.398  0.3448 -1.3621 -1.0116
18191TIP3    H275989   3.927   6.543  10.325 -0.9786 -0.2419  0.5031
18192TIP3   OH275990   2.269   2.171   4.680  0.3835 -0.2003  0.6163
18192TIP3    H175991   2.353   2.158   4.725  1.1553  1.6403 -0.1836
18192TIP3    H275992   2.294   2.202   4.593 -1.1261  1.1723  0.6286
18193TIP3   OH275993   4.826   3.864   5.414  0.0648 -0.2328  0.1903
18193TIP3    H175994   4.879   3.867   5.334  0.8279 -1.0276  0.6435
18193TIP3    H275995   4.886   3.832   5.481 -1.1734 -1.9253  0.5711
18194TIP3   OH275996   5.036   2.263  14.951  0.6267 -0.5275  0.4960
18194TIP3    H175997   5.068   2.236  15.037 -0.2913  3.1655  2.1945
18194TIP3    H275998   5.107   2.316  14.915  0.2340 -0.4081 -0.1186
18195TIP3   OH275999   6.077   3.677  16.503  0.6182  0.7236  0.2596
18195TIP3    H176000   6.042   3.750  16.553  0.6431  0.0559  1.2837
18195TIP3    H276001   6.169   3.700  16.489  0.0723  1.9864 -1.5245
18196TIP3   OH276002   1.985   1.147   5.627 -0.2326  0.0274  0.3407
18196TIP3    H176003   1.978   1.182   5.716 -0.2880 -0.8999  0.7114
18196TIP3    H276004   2.075   1.165   5.601  0.4842 -1.7167  1.4709
18197TIP3   OH276005   1.799   5.905   3.184 -0.6103 -0.1556 -0.2318
18197TIP3    H176006   1.739   5.973   3.213  0.5096  1.0424 -0.6207
18197TIP3    H276007   1.752   5.823   3.200 -2.0353  0.6992  0.1436
18198TIP3   OH276008   2.708   3.471  12.122 -0.1931 -0.4129  0.2919
18198TIP3    H176009   2.634   3.473  12.183  2.0462  0.7972  3.1818
18198TIP3    H276010   2.775   3.525  12.164  2.4194 -1.5760 -2.1034
18199TIP3   OH276011   3.478   6.041   1.671  0.2243 -0.2544  0.6117
18199TIP3    H176012   3.526   5.959   1.659 -1.5854 -1.1466 -1.2482
18199TIP3    H276013   3.431   6.029   1.754 -0.2419 -1.2596  0.2243
18200TIP3   OH276014   3.696   4.938   3.995 -0.5341  0.0274 -0.3198
18200TIP3    H176015   3.679   4.873   3.927  3.4941 -0.9587 -0.6492
18200TIP3    H276016   3.696   5.022   3.948 -3.8875  0.1880 -0.2377
18201TIP3   OH276017   5.196   4.728  12.443 -0.5497  0.4873 -0.2437
18201TIP3    H176018   5.267   4.716  12.381 -1.0256 -0.7559 -0.5786
18201TIP3    H276019   5.227   4.796  12.503  0.1661  1.2615 -1.4576
18202TIP3   OH276020   0.650   0.795  13.604  0.2095 -0.2133  0.4087
18202TIP3    H176021   0.692   0.718  13.566  1.7711  1.4853 -1.5526
18202TIP3    H276022   0.719   0.861  13.608 -1.6210  1.9098 -0.5076
18203TIP3   OH276023   3.759   4.601  13.495 -0.3570 -0.6145  0.0677
18203TIP3    H176024   3.806   4.522  13.468 -1.2969 -0.6229 -1.7211
18203TIP3    H276025   3.686   4.568  13.547  0.2965 -0.7646  0.9103
18204TIP3   OH276026   2.346   2.000  11.306  0.3415  0.1680  0.3164
18204TIP3    H176027   2.251   2.010  11.313  0.4636  1.1966  0.5965
18204TIP3    H276028   2.363   1.910  11.336 -0.6415 -0.4082 -0.7870
18205TIP3   OH276029   4.716   2.389   0.022  0.9157 -0.3368 -0.0177
18205TIP3    H176030   4.622   2.405   0.030  0.5745 -1.6690 -1.1618
18205TIP3    H276031   4.742   2.359   0.109  0.7727  2.1301  0.9761
18206TIP3   OH276032   3.704   0.261  12.379 -0.4347  0.0226  0.9814
18206TIP3    H176033   3.685   0.236  12.470 -2.6813  0.1705  0.6060
18206TIP3    H276034   3.683   0.354  12.375  0.8051  0.2953  0.5735
18207TIP3   OH276035   6.647   4.435  16.986 -0.1086 -0.2280 -0.1141
18207TIP3    H176036   6.656   4.530  16.996 -1.0654 -0.1239 -0.1274
18207TIP3    H276037   6.610   4.424  16.898 -0.4375 -0.5778  0.0651
18208TIP3   OH276038   6.371   3.516  13.313  0.6796  0.2394 -0.4216
18208TIP3    H176039   6.407   3.428  13.320  0.5824  0.2508  0.2958
18208TIP3    H276040   6.323   3.529  13.395  0.2935  0.7801 -0.7259
18209TIP3   OH276041   5.193   2.910   5.888  0.5880 -0.3810  0.0483
18209TIP3    H176042   5.269   2.915   5.945 -1.0347  1.7561  2.2745
18209TIP3    H276043   5.152   2.827   5.910  0.0741  0.3302  2.0382
18210TIP3   OH276044   2.568   6.014   1.960  0.8825 -0.3282 -0.8093
18210TIP3    H176045   2.631   5.949   1.991  2.1857  1.3603  0.2462
18210TIP3    H276046   2.494   6.005   2.020  0.9459 -0.9775 -0.8158
18211TIP3   OH276047   2.820   0.472  15.194 -0.1315  0.2739  0.5303
18211TIP3    H176048   2.825   0.490  15.100  0.2563 -1.6689  0.1324
18211TIP3    H276049   2.822   0.376  15.200 -3.8566  0.1643  2.3331
18212TIP3   OH276050   4.678   0.164  15.227  0.1765  0.1261  0.5910
18212TIP3    H176051   4.771   0.143  15.228  0.2061  0.1138 -0.7303
18212TIP3    H276052   4.638   0.093  15.177 -0.5706  0.0769  1.2349
18213TIP3   OH276053   4.307   4.888  13.001  0.0916 -0.1501  0.5932
18213TIP3    H176054   4.297   4.983  13.000  1.4602  0.0612 -1.8715
18213TIP3    H276055   4.219   4.855  13.019 -0.4208  1.5564  1.4743
18214TIP3   OH276056   2.324   6.117  13.985  0.1747  0.4585  0.0172
18214TIP3    H176057   2.388   6.117  14.056 -0.6391 -0.3373  0.7747
18214TIP3    H276058   2.342   6.037  13.936  0.8537  1.0982 -0.8056
18215TIP3   OH276059   1.282   2.158   4.497 -0.4181  0.3408 -0.4729
18215TIP3    H176060   1.192   2.189   4.489 -0.3985  0.6180  0.2427
18215TIP3    H276061   1.276   2.063   4.492 -0.6820  0.3807 -0.9792
18216TIP3   OH276062   3.537   6.327  13.969 -0.6762  0.3134  0.1858
18216TIP3    H176063   3.565   6.417  13.949  0.9053 -0.5900 -2.0759
18216TIP3    H276064   3.602   6.295  14.032  1.7353 -0.6879 -2.5786
18217TIP3   OH276065   5.882   3.476   5.616 -0.0123  0.0018  0.4872
18217TIP3    H176066   5.881   3.462   5.521  0.8788 -1.0565  0.6131
18217TIP3    H276067   5.937   3.406   5.650  1.8549  1.8529  1.5532
18218TIP3   OH276068   1.824   3.484  12.765 -0.5522 -0.1011 -0.0192
18218TIP3    H176069   1.872   3.528  12.694 -1.4448  1.2022  0.1462
18218TIP3    H276070   1.835   3.542  12.840  2.7036 -2.7589  1.8196
18219TIP3   OH276071   1.461   5.710   4.592  0.2916  0.3095 -0.3231
18219TIP3    H176072   1.442   5.649   4.663 -0.7863  1.9255  0.8633
18219TIP3    H276073   1.546   5.683   4.558 -0.4257 -2.1923 -0.2915
18220TIP3   OH276074   5.795   3.251   6.126 -0.2570  0.0301  0.6187
18220TIP3    H176075   5.824   3.165   6.094 -0.9690  0.1534 -0.4258
18220TIP3    H276076   5.834   3.313   6.065  1.1887  0.5696  2.0289
18221TIP3   OH276077   6.300   5.088   3.134  0.5532 -0.5387 -0.4223
18221TIP3    H176078   6.359   5.078   3.208  0.3141  0.0806 -0.1374
18221TIP3    H276079   6.357   5.109   3.060  0.5624  3.4694  0.4887
18222TIP3   OH276080   1.122   1.802   0.972 -0.0826 -0.0814 -0.2806
18222TIP3    H176081   1.103   1.876   1.029 -0.1338  0.8379 -1.4426
18222TIP3    H276082   1.125   1.726   1.030  0.7632  0.9318  1.0534
18223TIP3   OH276083   6.281   3.032   0.334 -0.1035  0.3017 -0.2160
18223TIP3    H176084   6.351   2.971   0.357 -0.9638 -0.7818 -0.3419
18223TIP3    H276085   6.256   3.073   0.416  0.8957  0.9678 -0.2235
18224TIP3   OH276086   5.258   6.555  14.229  0.2745  0.2916  0.4209
18224TIP3    H176087   5.182   6.611  14.220  0.4536  0.7783  1.8084
18224TIP3    H276088   5.246   6.488  14.161 -1.7251 -0.0541  1.0570
18225TIP3   OH276089   2.441   5.186   3.876  0.2596  0.6429 -0.1925
18225TIP3    H176090   2.386   5.108   3.870  0.7480  0.3263 -0.6226
18225TIP3    H276091   2.527   5.157   3.847  1.2952  0.5247  2.7168
18226TIP3   OH276092   0.014   1.680  12.761 -0.3687 -0.0051  0.5726
18226TIP3    H176093  -0.011   1.612  12.823 -0.3398 -1.9496 -1.4103
18226TIP3    H276094   0.071   1.739  12.810  0.2021 -1.8265  2.1732
18227TIP3   OH276095   2.777   1.326  11.160  0.4107  0.3229 -0.5308
18227TIP3    H176096   2.692   1.305  11.121  1.2947 -2.2823 -1.2341
18227TIP3    H276097   2.771   1.293  11.250  0.9142 -0.6349 -0.8324
18228TIP3   OH276098   5.592   6.153  16.093  0.0901  0.2910 -0.3033
18228TIP3    H176099   5.665   6.152  16.155 -0.2064 -0.8561  0.0526
18228TIP3    H276100   5.621   6.099  16.020 -0.0751  0.5531 -0.5684
18229TIP3   OH276101   6.385   6.333   2.541  0.3367  0.4159  0.2885
18229TIP3    H176102   6.472   6.358   2.571  0.9441 -1.2326  0.0233
18229TIP3    H276103   6.328   6.349   2.616  1.0849  0.3670  0.8800
18230TIP3   OH276104   1.680   4.658   1.231  0.0127  0.1017  0.1205
18230TIP3    H176105   1.631   4.655   1.313 -0.1247 -0.0462  0.0326
18230TIP3    H276106   1.738   4.734   1.240  0.4092 -0.2503  0.5886
18231TIP3   OH276107   5.099   1.132  13.108  0.7031 -0.3487 -0.4296
18231TIP3    H176108   5.009   1.157  13.086 -0.1711 -2.5348  0.4058
18231TIP3    H276109   5.121   1.062  13.047  0.8781 -1.5563  0.9595
18232TIP3   OH276110   1.476   5.515   1.996 -0.3498  0.0295  0.0722
18232TIP3    H176111   1.426   5.513   1.915 -0.2383  0.0287  0.0040
18232TIP3    H276112   1.416   5.554   2.060 -1.1343 -1.7009  0.4510
18233TIP3   OH276113   2.452   0.031  15.569 -0.3193 -0.0009  0.2110
18233TIP3    H176114   2.490   0.113  15.600  0.4461 -0.9071  1.7880
18233TIP3    H276115   2.469   0.031  15.475  1.2804  0.8289  0.4639
18234TIP3   OH276116   4.967   0.970  11.385 -0.0634  0.3533 -0.3978
18234TIP3    H176117   4.920   1.002  11.308 -1.3480  0.1294  0.2767
18234TIP3    H276118   5.059   0.993  11.367 -0.4802  1.3047 -1.4817
18235TIP3   OH276119   3.717   5.241   1.968  0.4370 -0.1190  0.1227
18235TIP3    H176120   3.780   5.186   1.921 -0.8858 -1.2350 -0.4012
18235TIP3    H276121   3.771   5.299   2.021  1.9283 -0.3526 -1.0736
18236TIP3   OH276122   6.501   2.672   5.414 -0.2407  0.2310 -0.3353
18236TIP3    H176123   6.470   2.582   5.428 -1.8703  0.9576  1.0939
18236TIP3    H276124   6.573   2.683   5.476 -0.9163  0.3162  0.4428
18237TIP3   OH276125   1.143   1.897  12.387  0.4356  0.2021  0.2674
18237TIP3    H176126   1.067   1.854  12.426  0.1881 -0.1936 -0.6287
18237TIP3    H276127   1.117   1.988  12.374  0.3486  0.2191  0.5625
18238TIP3   OH276128   5.585   2.087  12.083  0.2902 -0.7533  0.2984
18238TIP3    H176129   5.569   2.065  12.175 -0.9088 -0.0123  0.2862
18238TIP3    H276130   5.577   2.182  12.079  0.7449 -0.7398 -0.5012
18239TIP3   OH276131   1.641   2.291  13.181 -0.5280  0.4786  0.4103
18239TIP3    H176132   1.661   2.319  13.092 -0.2373 -0.7290  0.0827
18239TIP3    H276133   1.590   2.211  13.170 -2.4364  1.5022  1.2970
18240TIP3   OH276134   5.816   2.663  13.116 -0.2252 -0.7224  0.2042
18240TIP3    H176135   5.870   2.696  13.044  2.6778  0.3812  2.6733
18240TIP3    H276136   5.728   2.693  13.095  0.4838 -0.3885 -2.8032
18241TIP3   OH276137   0.685   6.617  14.378 -0.1773 -0.1209 -0.1225
18241TIP3    H176138   0.756   6.681  14.386  1.3938 -1.8117  0.0999
18241TIP3    H276139   0.679   6.577  14.465 -0.7309 -0.6785 -0.4072
18242TIP3   OH276140   6.135   1.605  17.188  0.1267  0.1072  0.0400
18242TIP3    H176141   6.227   1.613  17.162 -0.5512  0.7086 -2.4387
18242TIP3    H276142   6.088   1.664  17.129 -1.9609 -0.8813  0.6051
18243TIP3   OH276143   5.502   0.673   3.487 -0.1770  0.0693  0.0309
18243TIP3    H176144   5.454   0.754   3.501 -0.4396 -0.2973  1.3808
18243TIP3    H276145   5.528   0.645   3.574  2.3621  0.1572 -0.6143
18244TIP3   OH276146   4.029   1.614  15.479 -0.5441  0.3260  0.4626
18244TIP3    H176147   4.025   1.527  15.518 -0.9006  0.1983  0.1479
18244TIP3    H276148   4.066   1.600  15.392 -1.3199  0.3828  0.1178
18245TIP3   OH276149   2.884   3.355  15.629  0.2153 -0.0651  0.2496
18245TIP3    H176150   2.968   3.324  15.595 -0.1082 -2.9633  1.8096
18245TIP3    H276151   2.906   3.402  15.710  0.4895  1.8752 -0.8726
18246TIP3   OH276152   1.011   0.658   4.143 -0.2719  0.4501 -0.8525
18246TIP3    H176153   1.059   0.711   4.207  0.7124 -0.7489 -0.5584
18246TIP3    H276154   1.037   0.568   4.163 -2.2835 -0.2005 -1.0145
18247TIP3   OH276155   6.733   2.174   5.474 -0.7813  0.0459  0.4442
18247TIP3    H176156   6.767   2.246   5.527 -1.1746  0.1277  0.5880
18247TIP3    H276157   6.810   2.140   5.428 -0.7489  1.1796 -0.3738
18248TIP3   OH276158   6.232   2.159   1.767  0.3864  0.6495  0.5870
18248TIP3    H176159   6.268   2.236   1.812 -0.1319  1.7166 -0.7458
18248TIP3    H276160   6.287   2.087   1.797  1.5549  1.6992  1.1016
18249TIP3   OH276161   5.069   6.117  13.217  0.1632 -0.1985 -0.3150
18249TIP3    H176162   5.102   6.042  13.267  0.4379  0.0181 -0.1686
18249TIP3    H276163   5.025   6.171  13.283 -0.1195 -0.2754 -0.4365
18250TIP3   OH276164   3.182   0.227  11.735 -0.0373 -0.5479  0.3104
18250TIP3    H176165   3.110   0.221  11.672 -0.5589 -1.8573  1.0058
18250TIP3    H276166   3.257   0.191  11.689  0.3413  1.2412 -0.5830
18251TIP3   OH276167   1.985   1.889   1.539  0.4172 -0.2063 -0.6159
18251TIP3    H176168   2.080   1.880   1.539  0.5121  0.6411 -0.0268
18251TIP3    H276169   1.969   1.982   1.521 -0.4233 -0.9131 -4.4290
18252TIP3   OH276170   0.255   2.444   4.471 -0.2382  0.1410  0.4828
18252TIP3    H176171   0.219   2.410   4.389 -0.5316  1.6417 -0.0390
18252TIP3    H276172   0.209   2.527   4.485  1.7120  1.2162  0.7701
18253TIP3   OH276173   5.404   3.257   3.008  0.0296  0.0709 -0.3469
18253TIP3    H176174   5.469   3.188   3.024 -0.9183 -0.7906 -0.0930
18253TIP3    H276175   5.384   3.292   3.095 -1.0008 -0.7679 -0.2244
18254TIP3   OH276176   3.008   0.253   2.317 -0.0926  0.0039  0.1531
18254TIP3    H176177   3.045   0.340   2.333  0.1236 -0.2565  1.1761
18254TIP3    H276178   2.985   0.221   2.405 -2.2395 -0.0717 -0.3971
18255TIP3   OH276179   3.980   2.492   5.714 -0.1045  0.3473 -0.2416
18255TIP3    H176180   4.069   2.457   5.714 -0.9744 -2.0956 -0.7111
18255TIP3    H276181   3.973   2.541   5.795  1.1816 -0.8025  0.6074
18256TIP3   OH276182   3.833   4.886   2.749  0.3746  0.1225  0.5062
18256TIP3    H176183   3.851   4.892   2.655  0.9635 -1.8689  0.4577
18256TIP3    H276184   3.918   4.904   2.790  0.5717 -0.9558  0.5788
18257TIP3   OH276185   3.187   6.400   5.835 -0.4749  0.0945 -0.3704
18257TIP3    H176186   3.243   6.337   5.880  1.5912  2.2063  0.2067
18257TIP3    H276187   3.241   6.434   5.764 -1.9004  0.5451 -1.2909
18258TIP3   OH276188   0.653   0.925  14.495  0.0198  0.2037  0.0492
18258TIP3    H176189   0.610   0.889  14.572  1.1393  0.8392  1.0007
18258TIP3    H276190   0.726   0.866  14.478  0.1325  0.4004 -0.1664
18259TIP3   OH276191   6.589   3.733  14.009 -0.0270 -0.6965  0.0495
18259TIP3    H176192   6.531   3.723  13.933  0.6503  0.0717 -0.5751
18259TIP3    H276193   6.599   3.827  14.020  0.5536 -0.8140  0.5766
18260TIP3   OH276194   5.485   1.568  13.494  0.0301 -0.0228 -0.5868
18260TIP3    H176195   5.405   1.612  13.522 -0.1624 -0.4844 -0.3974
18260TIP3    H276196   5.488   1.582  13.400 -0.5876 -0.4968 -0.6859
18261TIP3   OH276197   1.299   3.942  14.293  0.0894 -0.0975 -0.0189
18261TIP3    H176198   1.328   3.915  14.380  0.0573  2.1318  0.7593
18261TIP3    H276199   1.369   3.998  14.261 -0.1040 -0.5360 -1.2628
18262TIP3   OH276200   0.035   0.098   4.821  0.4018 -0.1282 -0.6221
18262TIP3    H176201  -0.026   0.023   4.817  0.0686  0.1152 -0.1976
18262TIP3    H276202   0.064   0.100   4.912  0.0821  0.5178 -0.5296
18263TIP3   OH276203   2.421   0.592   5.328 -0.2389 -0.1659 -0.4111
18263TIP3    H176204   2.434   0.534   5.253 -1.6705 -0.2899 -0.5964
18263TIP3    H276205   2.327   0.591   5.343  0.0723 -0.6528  1.8279
18264TIP3   OH276206   6.039   4.286  15.602 -0.6080 -0.3084 -0.7674
18264TIP3    H176207   6.108   4.248  15.656 -2.5785 -2.8069  0.1716
18264TIP3    H276208   6.034   4.378  15.630  2.5135  0.0907 -1.1788
18265TIP3   OH276209   6.104   2.145   5.611 -0.0632  0.1526  0.1621
18265TIP3    H176210   6.072   2.220   5.561  0.7723  2.1726  2.4052
18265TIP3    H276211   6.038   2.132   5.679  0.6714  0.0560  0.8673
18266TIP3   OH276212   0.551   5.331   5.278 -0.4272  0.3547  0.2200
18266TIP3    H176213   0.506   5.314   5.360 -3.3989  1.7604 -0.9605
18266TIP3    H276214   0.490   5.300   5.211  2.2203 -1.4854 -1.5521
18267TIP3   OH276215   0.906   2.024   5.381  0.2277  0.2050  0.2687
18267TIP3    H176216   0.848   2.004   5.454 -1.0899  0.7957 -0.5803
18267TIP3    H276217   0.917   1.941   5.335 -0.4949  0.2234  0.0561
18268TIP3   OH276218   0.873   3.113   5.339  0.0443 -0.9998 -0.3298
18268TIP3    H176219   0.960   3.089   5.310  0.4522  0.3088 -0.2487
18268TIP3    H276220   0.870   3.086   5.431  0.7006 -0.2211 -0.0706
18269TIP3   OH276221   4.981   0.243   2.707  0.0646  0.2777 -0.4105
18269TIP3    H176222   4.998   0.222   2.799  0.3003  0.6386 -0.3681
18269TIP3    H276223   4.886   0.254   2.702  0.2282  2.6168  0.3277
18270TIP3   OH276224   3.374   4.044  11.473 -0.0950 -0.1749 -0.0077
18270TIP3    H176225   3.443   4.104  11.443 -0.0067 -0.3868 -0.2372
18270TIP3    H276226   3.294   4.079  11.433 -0.3538  0.8510  1.3382
18271TIP3   OH276227   0.606   2.944   5.718  0.1991  0.0684 -0.0467
18271TIP3    H176228   0.697   2.967   5.737  0.1347 -0.4415  0.9266
18271TIP3    H276229   0.594   2.857   5.758 -0.9588  0.4922  0.5822
18272TIP3   OH276230   2.760   3.244  13.374 -0.3051 -0.0865  0.3778
18272TIP3    H176231   2.806   3.328  13.373 -1.2123  0.4338  0.3934
18272TIP3    H276232   2.792   3.199  13.452  2.8352 -1.3146 -1.4402
18273TIP3   OH276233   1.909   0.303  15.089 -0.5194 -0.3102 -0.0016
18273TIP3    H176234   2.001   0.330  15.101 -0.8038  0.3172  0.8390
18273TIP3    H276235   1.915   0.225  15.034  0.4043  0.8708 -1.7065
18274TIP3   OH276236   1.068   2.572   6.348  0.1073 -0.1086 -0.2633
18274TIP3    H176237   1.000   2.535   6.291 -0.2052  0.3122 -0.1677
18274TIP3    H276238   1.053   2.666   6.345  0.4795 -0.0383  0.0257
18275TIP3   OH276239   5.211   3.635  16.609 -0.3628 -0.2356  0.2355
18275TIP3    H176240   5.151   3.563  16.592  0.5243 -0.3474 -3.3091
18275TIP3    H276241   5.256   3.611  16.690 -1.6795 -2.5359  0.3596
18276TIP3   OH276242   0.977   3.210   1.586 -0.2975  0.3468 -0.2320
18276TIP3    H176243   1.033   3.149   1.633 -0.0496  0.7874  0.0475
18276TIP3    H276244   1.003   3.201   1.494 -0.4619 -0.1740 -0.2280
18277TIP3   OH276245   2.028   4.530   0.575 -0.4416 -0.2005  0.0843
18277TIP3    H176246   2.092   4.506   0.641 -0.8164 -1.8976 -0.1413
18277TIP3    H276247   2.080   4.546   0.496 -0.2390 -1.0745  0.0343
18278TIP3   OH276248   5.650   2.534   0.726  0.3080  0.5856  0.2736
18278TIP3    H176249   5.700   2.536   0.807  1.4372  0.4914 -0.3893
18278TIP3    H276250   5.589   2.461   0.737 -0.4665  1.3866  1.5245
18279TIP3   OH276251   5.545   1.710  14.510 -0.1737 -0.4649 -0.5362
18279TIP3    H176252   5.619   1.668  14.554 -0.4094  0.2675  0.6182
18279TIP3    H276253   5.545   1.673  14.422  0.6822 -1.5561 -0.1041
18280TIP3   OH276254   5.455   3.673   2.358 -0.4143 -0.0348  0.2036
18280TIP3    H176255   5.468   3.751   2.413  0.7611  0.4930 -0.7688
18280TIP3    H276256   5.361   3.657   2.361 -0.4659  0.3318  1.8639
18281TIP3   OH276257   5.527   6.736  17.229 -0.0978  0.1891  0.0972
18281TIP3    H176258   5.591   6.805  17.210  0.0179  0.6711  2.0732
18281TIP3    H276259   5.571   6.680  17.293 -1.2598 -0.0853  0.6715
18282TIP3   OH276260   5.180   2.119  10.860  0.3944  0.1513 -0.0961
18282TIP3    H176261   5.126   2.149  10.933 -0.4903  1.3336 -1.1891
18282TIP3    H276262   5.246   2.188  10.849  0.3825  0.0928 -0.5504
18283TIP3   OH276263   0.703   0.773  12.928 -0.3991 -0.1044  0.3368
18283TIP3    H176264   0.731   0.863  12.907  1.2309 -0.8373 -0.8632
18283TIP3    H276265   0.779   0.733  12.970 -1.0330 -0.9860  0.6665
18284TIP3   OH276266   5.008   4.243   1.714  0.2554  0.2087  0.1099
18284TIP3    H176267   5.020   4.148   1.726  0.0005  0.1663  0.0374
18284TIP3    H276268   4.985   4.252   1.621 -0.6138  0.2522  0.3210
18285TIP3   OH276269   2.492   2.243   2.941  0.2047 -0.4750 -0.1167
18285TIP3    H176270   2.506   2.331   2.975 -1.6279 -0.5553  0.9280
18285TIP3    H276271   2.436   2.255   2.864 -0.8074 -0.7730  0.5556
18286TIP3   OH276272   6.036   1.317  16.216 -0.1365  0.1369  0.4879
18286TIP3    H176273   6.014   1.244  16.158  2.7921 -1.8577  1.6715
18286TIP3    H276274   6.114   1.357  16.177  0.2062  0.5488  1.5599
18287TIP3   OH276275   1.284   6.142   1.509 -1.1424 -0.3348 -0.4952
18287TIP3    H176276   1.268   6.175   1.420 -0.1940 -0.2207 -0.6328
18287TIP3    H276277   1.359   6.193   1.540 -0.9173 -0.9875  0.0414
18288TIP3   OH276278   1.031   0.454   2.719 -0.4952 -0.2836 -0.0884
18288TIP3    H176279   0.974   0.409   2.658 -0.4556 -0.2269 -0.1676
18288TIP3    H276280   1.062   0.386   2.779  0.9653 -0.6978 -1.2722
18289TIP3   OH276281   2.392   4.392   0.354 -0.1506  0.3439  0.1940
18289TIP3    H176282   2.423   4.369   0.267 -0.4856  0.7784 -0.0435
18289TIP3    H276283   2.470   4.388   0.410  0.1528  0.5212 -0.2137
18290TIP3   OH276284   4.303   6.323  12.326 -0.5464 -0.3866  0.2840
18290TIP3    H176285   4.390   6.324  12.285 -0.0465  1.6030  1.2558
18290TIP3    H276286   4.279   6.416  12.332 -1.8207 -0.7828  1.9132
18291TIP3   OH276287   2.127   4.091  11.690 -0.2085 -0.1366  0.3855
18291TIP3    H176288   2.169   4.049  11.615 -1.4320 -0.1715 -0.3040
18291TIP3    H276289   2.053   4.138  11.653  1.1065  2.7284  1.1150
18292TIP3   OH276290   3.505   2.797   3.687  0.2652 -0.0259 -0.4108
18292TIP3    H176291   3.522   2.750   3.769  0.9353  1.4994  0.3698
18292TIP3    H276292   3.573   2.768   3.627 -1.0526 -2.2281 -0.9505
18293TIP3   OH276293   4.712   3.168   3.459 -0.5685 -0.3016 -0.6574
18293TIP3    H176294   4.642   3.148   3.397 -0.1877 -0.3431 -1.0856
18293TIP3    H276295   4.674   3.152   3.545 -1.7232  1.5518 -0.7622
18294TIP3   OH276296   2.286   3.255  16.259 -0.5035 -0.5872 -0.1664
18294TIP3    H176297   2.238   3.317  16.203  1.5713 -0.6185 -2.1218
18294TIP3    H276298   2.248   3.267  16.346 -0.9627  2.6293 -0.6873
18295TIP3   OH276299   0.505   5.675   5.316  0.1790  0.8876 -0.3870
18295TIP3    H176300   0.442   5.644   5.250  1.7325 -0.6216 -1.2320
18295TIP3    H276301   0.473   5.638   5.399  0.6311 -1.0392 -1.0136
18296TIP3   OH276302   0.859   1.161  15.413 -0.1264  0.3038  0.2431
18296TIP3    H176303   0.891   1.134  15.499 -0.6036  0.2205  0.4013
18296TIP3    H276304   0.826   1.080  15.374 -0.8956  0.5212  0.4231
18297TIP3   OH276305   4.665   4.744  11.950  0.0334  0.4015 -0.1809
18297TIP3    H176306   4.652   4.696  12.031  1.4779  0.7401  0.2811
18297TIP3    H276307   4.591   4.718  11.895 -0.4605 -0.5576  0.8807
18298TIP3   OH276308   0.490   5.840  14.688 -0.2214 -0.3441 -0.0780
18298TIP3    H176309   0.514   5.905  14.622 -0.1671 -1.4893 -1.2225
18298TIP3    H276310   0.538   5.866  14.766 -1.2109  1.7331 -0.0911
18299TIP3   OH276311   6.355   4.037  13.928 -0.0181 -0.0883  0.5568
18299TIP3    H176312   6.347   3.979  13.852  0.9962  0.8676 -0.3102
18299TIP3    H276313   6.426   3.999  13.980  0.0984 -0.0714  0.4089
18300TIP3   OH276314   2.909   5.253  14.586 -0.2293 -0.4876 -0.2126
18300TIP3    H176315   2.848   5.265  14.513  0.1482  0.3319 -0.4105
18300TIP3    H276316   2.911   5.339  14.629  1.5249 -0.2078 -0.7963
18301TIP3   OH276317   2.581   1.299   0.821  0.1526  0.0816  0.4132
18301TIP3    H176318   2.669   1.261   0.823 -0.6342 -1.9387 -0.4960
18301TIP3    H276319   2.575   1.343   0.737 -0.1758 -1.1226 -0.2250
18302TIP3   OH276320   4.142   2.378   2.836  0.7769 -0.0117 -0.2489
18302TIP3    H176321   4.060   2.343   2.802  1.0878  1.5017 -2.7739
18302TIP3    H276322   4.207   2.358   2.768  2.9504 -2.4390  2.2594
18303TIP3   OH276323   4.944   5.204   5.208  0.0994 -0.1684 -0.3118
18303TIP3    H176324   5.007   5.199   5.280 -0.5648  0.5265  0.3228
18303TIP3    H276325   4.994   5.243   5.136  0.5081 -0.0013  0.0589
18304TIP3   OH276326   5.833   3.824  11.852 -0.4030 -0.2877 -0.1753
18304TIP3    H176327   5.809   3.916  11.846 -1.0412 -0.3001  1.5216
18304TIP3    H276328   5.755   3.782  11.888  0.2557 -1.3070  0.0989
18305TIP3   OH276329   1.785   5.269   2.360  0.3508  0.4591  0.1266
18305TIP3    H176330   1.756   5.256   2.270 -2.1430 -0.3402  0.9784
18305TIP3    H276331   1.790   5.364   2.370 -3.8145  0.8533  0.3136
18306TIP3   OH276332   0.845   5.908  16.670  0.0092 -0.1922  0.5508
18306TIP3    H176333   0.774   5.847  16.649 -1.5171  1.5587  0.3494
18306TIP3    H276334   0.853   5.963  16.591  0.2668  0.8511  1.2793
18307TIP3   OH276335   2.034   4.074   3.765 -0.1799 -0.0044 -0.8160
18307TIP3    H176336   1.961   4.021   3.733  0.1630 -0.3660 -1.0010
18307TIP3    H276337   2.088   4.013   3.814 -0.5084  0.4705  0.1565
18308TIP3   OH276338   2.255   1.637  15.406  0.6010 -0.6069 -0.0420
18308TIP3    H176339   2.240   1.616  15.314 -0.2926 -0.2066  0.0030
18308TIP3    H276340   2.238   1.554  15.452 -3.8527  0.1957  0.2340
18309TIP3   OH276341   1.534   1.548   5.751 -0.0509  0.6805 -0.3587
18309TIP3    H176342   1.605   1.609   5.772  0.0672  0.1666  0.8518
18309TIP3    H276343   1.466   1.568   5.815  0.6591 -1.5214  1.2231
18310TIP3   OH276344   1.093   5.789  12.601  0.4304  0.5417  0.3970
18310TIP3    H176345   1.106   5.882  12.580  1.8346  0.4240  0.6289
18310TIP3    H276346   1.127   5.780  12.690  1.6955 -0.4583 -0.1542
18311TIP3   OH276347   5.550   3.044  12.268 -0.4549 -0.3714  0.5422
18311TIP3    H176348   5.533   3.069  12.359 -2.3849 -0.4881  0.2599
18311TIP3    H276349   5.520   3.119  12.217 -2.1248 -1.4057 -0.0970
18312TIP3   OH276350   6.383   4.644  17.001 -0.0964  0.0647 -0.4503
18312TIP3    H176351   6.328   4.695  16.942 -0.3493 -0.9381 -1.1069
18312TIP3    H276352   6.471   4.679  16.989 -0.5955  1.8626  0.8065
18313TIP3   OH276353   6.716   5.023  11.682 -0.1079 -0.6546 -0.0145
18313TIP3    H176354   6.785   4.967  11.716 -1.0476 -1.8748 -0.0642
18313TIP3    H276355   6.642   4.965  11.669 -1.1876  0.6326  0.1281
18314TIP3   OH276356   3.264   5.333  12.366 -0.2829  0.5110 -0.5082
18314TIP3    H176357   3.252   5.303  12.457 -4.8456 -0.1202 -1.1050
18314TIP3    H276358   3.219   5.418  12.363 -1.0018  0.1004 -2.3536
18315TIP3   OH276359   5.103   5.902  15.620 -0.1814 -0.0232 -0.2236
18315TIP3    H176360   5.152   5.823  15.643  2.7134  1.3785 -1.1641
18315TIP3    H276361   5.075   5.938  15.704  1.0031 -0.5361  0.4137
18316TIP3   OH276362   0.320   5.878  16.206  0.4367 -0.0082  0.0664
18316TIP3    H176363   0.371   5.837  16.275 -0.5306 -0.3944  0.5797
18316TIP3    H276364   0.250   5.924  16.252 -0.0130  0.0311 -0.6341
18317TIP3   OH276365   2.605   1.837  15.105 -0.1276 -0.1993 -0.2670
18317TIP3    H176366   2.661   1.803  15.036  0.0913 -0.3577 -0.0128
18317TIP3    H276367   2.517   1.834  15.068 -0.3912 -2.7946  0.3742
18318TIP3   OH276368   6.430   5.746   3.951  0.5977  0.3434  0.7008
18318TIP3    H176369   6.428   5.753   4.046  0.6714  0.5089  0.6895
18318TIP3    H276370   6.458   5.832   3.920  0.3620  0.3545  0.5194
18319TIP3   OH276371   2.375   4.746   4.074 -0.3011  0.1113 -0.2012
18319TIP3    H176372   2.361   4.717   4.164 -2.1361  0.6561 -0.2690
18319TIP3    H276373   2.351   4.670   4.020 -2.7330  0.8433 -0.2936
18320TIP3   OH276374   5.102   5.021  13.118  0.6431  0.0492 -0.3130
18320TIP3    H176375   5.052   4.986  13.191 -0.0632 -1.1240 -1.3166
18320TIP3    H276376   5.167   5.078  13.158  0.4752 -0.8055  1.2342
18321TIP3   OH276377   0.819   1.666  12.408 -0.0952 -0.8080 -0.4812
18321TIP3    H176378   0.861   1.725  12.345  0.6590 -0.2642  0.5133
18321TIP3    H276379   0.890   1.612  12.442 -0.1991 -0.0128  1.0804
18322TIP3   OH276380   0.553   3.411  10.883  0.1625 -0.3013  0.3542
18322TIP3    H176381   0.577   3.414  10.791  0.3853  0.9022  0.4386
18322TIP3    H276382   0.488   3.481  10.893 -0.4461 -0.9300  0.9532
18323TIP3   OH276383   4.466   6.318  11.813  0.4917  0.4868 -0.5418
18323TIP3    H176384   4.421   6.403  11.811  0.9927  0.7593 -0.5453
18323TIP3    H276385   4.493   6.307  11.904 -1.1949 -0.5574 -0.1266
18324TIP3   OH276386   2.064   4.472   4.463  0.1744  0.2329 -0.3458
18324TIP3    H176387   2.052   4.378   4.453  0.2831  0.1133  0.5944
18324TIP3    H276388   1.976   4.508   4.450  0.2252  0.0626 -1.2426
18325TIP3   OH276389   2.793   3.727  14.684 -0.2651  0.0637 -0.2860
18325TIP3    H176390   2.840   3.688  14.758  0.5492  0.4544 -0.5844
18325TIP3    H276391   2.756   3.808  14.720 -0.3324 -0.0192 -0.1658
18326TIP3   OH276392   4.476   3.031  13.091 -0.2436  0.2352 -0.0410
18326TIP3    H176393   4.452   2.985  13.171 -0.5505 -0.2761 -0.4229
18326TIP3    H276394   4.440   3.119  13.102 -0.1010  0.2294  0.4711
18327TIP3   OH276395   2.629   2.376  14.095 -0.6091  0.5489 -0.7002
18327TIP3    H176396   2.569   2.450  14.093  0.3289  1.3338 -1.1809
18327TIP3    H276397   2.653   2.367  14.187  1.2465  2.5693 -0.8835
18328TIP3   OH276398   3.206   6.149  11.446 -0.2277  0.2590 -0.3286
18328TIP3    H176399   3.268   6.083  11.416  0.4124 -0.0073  1.4421
18328TIP3    H276400   3.207   6.216  11.378 -0.4364 -1.2470 -1.8715
18329TIP3   OH276401   5.773   3.898   3.533  0.1702  0.3051  0.1956
18329TIP3    H176402   5.764   3.935   3.621  1.6224  0.4388  0.3160
18329TIP3    H276403   5.693   3.847   3.520  0.0591  0.0413  1.7111
18330TIP3   OH276404   4.834   1.597   5.580  0.8951 -0.0822 -0.0837
18330TIP3    H176405   4.761   1.546   5.545  0.0626  0.3684  0.9494
18330TIP3    H276406   4.862   1.550   5.658  1.7740 -0.2839 -0.5027
18331TIP3   OH276407   4.580   4.627   5.591  0.6884 -0.5275  0.3462
18331TIP3    H176408   4.602   4.571   5.517  1.4985 -1.8852  1.5478
18331TIP3    H276409   4.662   4.634   5.641  0.1351  0.2285  1.1819
18332TIP3   OH276410   2.806   5.066  10.999 -0.1372  0.0829  0.0984
18332TIP3    H176411   2.789   5.073  10.905 -1.4412  0.1125  0.3228
18332TIP3    H276412   2.800   4.972  11.018  1.3975 -0.0768 -0.0492
18333TIP3   OH276413   0.673   5.105  16.160 -0.4494 -0.2400 -0.5634
18333TIP3    H176414   0.659   5.011  16.175  0.1055 -0.2391 -0.0438
18333TIP3    H276415   0.585   5.140  16.146 -0.5448 -1.1452 -2.6216
18334TIP3   OH276416   3.781   2.050  12.803  0.9503 -0.7345 -0.2185
18334TIP3    H176417   3.753   2.067  12.713 -0.3370 -1.0390  0.0909
18334TIP3    H276418   3.866   2.093  12.811 -0.2888  2.0153 -0.6868
18335TIP3   OH276419   6.162   0.918   1.967  0.2341 -0.2956 -0.0991
18335TIP3    H176420   6.072   0.920   2.001  0.0289 -0.3367 -0.6280
18335TIP3    H276421   6.161   0.980   1.894  0.2976 -1.2382 -0.9267
18336TIP3   OH276422   5.505   3.208   1.030  0.1001  0.5366  0.1560
18336TIP3    H176423   5.487   3.299   1.050  2.7053  0.6128  2.7379
18336TIP3    H276424   5.560   3.177   1.102  0.1791 -2.7939 -1.1368
18337TIP3   OH276425   6.160   2.246   6.111 -0.0557 -0.3782 -0.4264
18337TIP3    H176426   6.165   2.297   6.192  0.2346  0.2317 -0.8179
18337TIP3    H276427   6.248   2.207   6.102 -0.0611 -0.3776 -0.4870
18338TIP3   OH276428   6.217   2.154   2.125 -0.4917 -0.0756  0.7029
18338TIP3    H176429   6.156   2.139   2.053  1.1669  0.5054 -0.9037
18338TIP3    H276430   6.300   2.174   2.082  0.5690  0.2887  2.7986
18339TIP3   OH276431   3.309   0.281  15.841  0.0014 -0.0982 -0.0946
18339TIP3    H176432   3.364   0.231  15.781  0.5225 -0.5444  0.7328
18339TIP3    H276433   3.236   0.312  15.787  1.2877  0.8915 -1.3176
18340TIP3   OH276434   6.745   3.557  14.145 -1.0513  0.2497  0.3269
18340TIP3    H176435   6.677   3.623  14.133 -0.0901  1.2459  0.1597
18340TIP3    H276436   6.765   3.560  14.239 -1.1253  0.0654  0.3493
18341TIP3   OH276437   2.229   3.691  14.328 -0.9013  0.1540  0.3527
18341TIP3    H176438   2.297   3.718  14.266 -0.6192 -1.1418  0.0669
18341TIP3    H276439   2.150   3.682  14.276 -0.4915 -1.7079 -0.0374
18342TIP3   OH276440   4.093   5.236   3.200 -0.4723  0.2399  0.3718
18342TIP3    H176441   4.017   5.183   3.178 -0.5017  0.5264 -0.2417
18342TIP3    H276442   4.056   5.319   3.231 -0.4301  0.7572 -0.8695
18343TIP3   OH276443   5.202   2.348   5.966 -0.2019 -0.5263  0.4451
18343TIP3    H176444   5.233   2.266   6.005  0.5693 -0.9362 -0.9776
18343TIP3    H276445   5.110   2.331   5.945 -0.1187 -0.9435  0.4048
18344TIP3   OH276446   5.782   5.685   0.804 -0.1041  0.0293 -0.0339
18344TIP3    H176447   5.768   5.778   0.785 -1.7317 -0.3175 -0.7181
18344TIP3    H276448   5.756   5.676   0.896 -0.1959  0.2052 -0.0420
18345TIP3   OH276449   3.153   3.312  13.111  0.4170 -0.6711 -0.3212
18345TIP3    H176450   3.121   3.269  13.190  0.3290 -1.6311 -0.8522
18345TIP3    H276451   3.075   3.327  13.058  0.7234 -2.9893 -1.6043
18346TIP3   OH276452   6.539   4.822  11.573  0.1138  0.3389  0.1674
18346TIP3    H176453   6.557   4.795  11.483  2.1474  2.1848 -0.0486
18346TIP3    H276454   6.583   4.755  11.627  0.3584  0.1555 -0.2522
18347TIP3   OH276455   1.231   5.743   1.961 -0.3638  0.4913 -0.3572
18347TIP3    H176456   1.239   5.817   1.901 -2.6615  0.7529 -0.4390
18347TIP3    H276457   1.256   5.779   2.046 -1.4013  1.3831 -0.4054
18348TIP3   OH276458   3.502   4.623  11.390 -0.1671 -0.2337  0.0712
18348TIP3    H176459   3.501   4.703  11.443  2.6791  1.0149 -1.5399
18348TIP3    H276460   3.573   4.571  11.426  0.5332 -0.2498 -1.2722
18349TIP3   OH276461   5.776   1.937  17.350 -0.4457 -0.1156  0.1709
18349TIP3    H176462   5.860   1.923  17.394 -0.0795  0.4362 -0.3270
18349TIP3    H276463   5.715   1.960  17.419 -0.1753 -0.4795  0.5334
18350TIP3   OH276464   4.602   5.383   2.005  0.5030  0.2685  0.3280
18350TIP3    H176465   4.542   5.310   2.021  1.2838 -1.2003 -2.6421
18350TIP3    H276466   4.689   5.344   2.008  0.9192  0.8795 -1.8753
18351TIP3   OH276467   0.395   3.719   3.135  0.1092  0.2721  0.0201
18351TIP3    H176468   0.447   3.663   3.192  0.4462  0.8630  0.2958
18351TIP3    H276469   0.450   3.732   3.058 -0.0748  0.0184 -0.1571
18352TIP3   OH276470   5.865   4.917  13.438  0.1701  0.1007  0.5383
18352TIP3    H176471   5.788   4.861  13.432 -0.2465  0.6435  0.7205
18352TIP3    H276472   5.858   4.960  13.523  1.5720 -1.1186  1.3213
18353TIP3   OH276473   3.543   4.166  12.296  0.1385  0.2751  0.2645
18353TIP3    H176474   3.476   4.178  12.228  0.7313 -0.5837 -0.5055
18353TIP3    H276475   3.565   4.254  12.324 -0.5967  0.6155 -0.1943
18354TIP3   OH276476   2.807   0.560  14.927  0.0311  0.2228 -0.6302
18354TIP3    H176477   2.882   0.619  14.912  1.9852 -2.2753 -1.3842
18354TIP3    H276478   2.799   0.511  14.845 -2.5035  0.3957 -0.5651
18355TIP3   OH276479   1.103   1.749   3.076 -0.1129  0.3256 -0.2968
18355TIP3    H176480   1.165   1.679   3.055  0.7361  0.2883  2.0097
18355TIP3    H276481   1.105   1.807   3.000  2.0539 -0.1774 -0.6867
18356TIP3   OH276482   4.899   4.057  12.031 -0.5333 -0.1495 -0.1723
18356TIP3    H176483   4.834   4.125  12.045 -0.8049 -0.1625 -1.2994
18356TIP3    H276484   4.848   3.976  12.021 -0.2202 -0.5298  1.0880
18357TIP3   OH276485   0.817   1.909  15.678 -0.3659 -0.0236 -0.6536
18357TIP3    H176486   0.747   1.872  15.624 -0.0082 -1.8241  0.0542
18357TIP3    H276487   0.802   1.873  15.765  0.3848  1.0432 -0.0630
18358TIP3   OH276488   1.727   4.990   5.340 -0.1727  0.2028 -0.2225
18358TIP3    H176489   1.702   4.961   5.428 -1.2623  0.4923 -0.4278
18358TIP3    H276490   1.690   4.924   5.282 -1.2196  1.0791 -0.5854
18359TIP3   OH276491   5.384   3.050   0.311 -0.5397 -0.2525  0.2359
18359TIP3    H176492   5.319   2.986   0.340  0.7584 -1.5777  0.3400
18359TIP3    H276493   5.379   3.121   0.375 -0.5935 -1.2016  1.3004
18360TIP3   OH276494   6.478   1.130   6.009 -0.2468 -0.3849 -0.2875
18360TIP3    H176495   6.443   1.095   6.091  0.8561  0.0086  0.3755
18360TIP3    H276496   6.559   1.174   6.034  0.1784 -0.3534 -1.6080
18361TIP3   OH276497   3.453   0.896  16.259 -0.4470 -0.0145 -0.4648
18361TIP3    H176498   3.440   0.804  16.279  0.7452  0.3981  2.8948
18361TIP3    H276499   3.520   0.897  16.190  0.6875 -1.6715  0.5612
18362TIP3   OH276500   3.591   6.739  12.783 -0.3087  0.3044 -0.0654
18362TIP3    H176501   3.562   6.829  12.798 -0.3907  0.5846 -1.7149
18362TIP3    H276502   3.511   6.688  12.777 -0.2556  0.0376  1.1861
18363TIP3   OH276503   4.279   0.818  13.638 -0.5049 -0.4295  0.5214
18363TIP3    H176504   4.235   0.896  13.672  1.4355  0.5990  0.7914
18363TIP3    H276505   4.341   0.852  13.573 -0.0949 -1.8211  0.1607
18364TIP3   OH276506   3.698   3.201   2.113 -0.8837 -0.0107 -0.1970
18364TIP3    H176507   3.647   3.156   2.180 -0.6760  0.8804  0.5759
18364TIP3    H276508   3.776   3.146   2.102 -1.1370 -0.4071 -0.0513
18365TIP3   OH276509   6.554   6.556   2.598  0.4288  0.5580 -0.1282
18365TIP3    H176510   6.578   6.556   2.691  1.7426  0.1422 -0.4473
18365TIP3    H276511   6.596   6.635   2.563  1.4136 -0.2096 -0.7148
18366TIP3   OH276512   0.403   5.070  12.676  0.3257 -0.0353 -0.3259
18366TIP3    H176513   0.346   5.036  12.606  1.4973  0.9607 -1.8316
18366TIP3    H276514   0.478   5.011  12.675  0.3373 -0.0266  0.1118
18367TIP3   OH276515   4.477   0.266  14.550  0.7174  0.3394 -0.4548
18367TIP3    H176516   4.439   0.299  14.469  1.3217  2.1504 -0.0454
18367TIP3    H276517   4.565   0.239  14.527  0.8169  0.6553 -0.4456
18368TIP3   OH276518   5.875   2.978   1.268 -0.0120  0.3714 -0.2036
18368TIP3    H176519   5.948   2.929   1.305  0.4145  1.1680  0.0246
18368TIP3    H276520   5.887   3.067   1.300 -0.8206  0.6105 -0.5489
18369TIP3   OH276521   4.795   0.725   4.207  0.1237 -0.1325  0.0851
18369TIP3    H176522   4.707   0.707   4.239 -0.8767  0.7262 -2.0172
18369TIP3    H276523   4.848   0.653   4.240 -0.7730  0.6135  3.5115
18370TIP3   OH276524   2.950   0.456  13.371  0.0561 -0.2014 -0.4903
18370TIP3    H176525   3.009   0.496  13.434 -2.1541  0.5111  1.2820
18370TIP3    H276526   2.955   0.363  13.389 -0.6647  0.0021  0.9458
18371TIP3   OH276527   2.156   4.335  16.334 -0.8414  0.3100 -0.3087
18371TIP3    H176528   2.252   4.330  16.343 -0.8037  2.9764  2.3513
18371TIP3    H276529   2.137   4.284  16.255  2.7525 -0.2815 -0.9873
18372TIP3   OH276530   1.984   4.955  12.736  0.0210  0.4290 -0.5150
18372TIP3    H176531   2.039   4.908  12.799  0.5636  2.0344  0.2641
18372TIP3    H276532   1.894   4.942  12.767  0.2662  1.0119  0.5010
18373TIP3   OH276533   5.271   2.329   2.028  0.2100 -0.1962 -0.5324
18373TIP3    H176534   5.324   2.403   1.999  1.1642 -0.5364  0.2757
18373TIP3    H276535   5.263   2.273   1.951 -1.3166  1.1525 -1.4252
18374TIP3   OH276536   1.354   6.726   3.015  0.4689  0.2573  0.0044
18374TIP3    H176537   1.331   6.817   3.037  0.7107  0.1754  0.6193
18374TIP3    H276538   1.270   6.685   2.995  0.0775  0.0737  1.8053
18375TIP3   OH276539   0.918   4.655  17.038  0.0298  0.0803 -0.1067
18375TIP3    H176540   0.983   4.677  16.971 -1.8554 -0.2683 -2.1866
18375TIP3    H276541   0.968   4.616  17.109  2.3063  1.8686 -0.6254
18376TIP3   OH276542   3.185   2.431   0.941 -0.5075  0.7499  0.2466
18376TIP3    H176543   3.225   2.417   1.027  3.0115  0.1812 -1.3041
18376TIP3    H276544   3.232   2.370   0.883 -1.7405  2.1221 -2.3564
18377TIP3   OH276545   5.823   2.979   3.212 -0.2733  0.2743 -0.2362
18377TIP3    H176546   5.903   2.993   3.262 -1.3689 -0.2950  1.7616
18377TIP3    H276547   5.853   2.961   3.123  1.8061  0.1148  0.4585
18378TIP3   OH276548   1.106   0.418   3.585 -0.2628  0.0150 -0.1616
18378TIP3    H176549   1.094   0.511   3.562  0.2762 -0.2304 -1.5620
18378TIP3    H276550   1.024   0.392   3.626 -1.1232  0.6469 -1.4289
18379TIP3   OH276551   3.067   1.900   1.056  0.3142  0.2273  0.8085
18379TIP3    H176552   2.976   1.869   1.051  0.6560 -0.5790 -1.2366
18379TIP3    H276553   3.120   1.821   1.050  1.1717  0.8918 -1.6088
18380TIP3   OH276554   3.733   6.376   0.841  0.0840  0.3020 -0.3938
18380TIP3    H176555   3.719   6.429   0.919 -2.0639 -1.1982  0.3262
18380TIP3    H276556   3.676   6.416   0.774 -0.6623 -0.3867 -0.1819
18381TIP3   OH276557   1.965   4.564   5.909  0.5414 -0.5202  0.1351
18381TIP3    H176558   1.984   4.641   5.856  0.1191 -1.7845 -1.9463
18381TIP3    H276559   1.933   4.599   5.992 -0.7042  1.5478 -1.1462
18382TIP3   OH276560   2.865   6.747   3.953 -0.4682 -0.2345 -0.4030
18382TIP3    H176561   2.789   6.768   3.899 -1.4879 -0.7469  0.8049
18382TIP3    H276562   2.841   6.776   4.041  1.2071  0.7007 -0.1950
18383TIP3   OH276563   3.971   4.637   4.850  0.2981 -0.3741  0.6671
18383TIP3    H176564   3.973   4.616   4.944  0.6520  0.9957  0.9856
18383TIP3    H276565   3.934   4.725   4.846  0.8617 -0.1683 -0.4410
18384TIP3   OH276566   4.921   2.776  11.370 -0.6816 -0.3018 -0.3735
18384TIP3    H176567   4.852   2.823  11.417 -0.0965  1.7622 -1.4647
18384TIP3    H276568   4.873   2.717  11.311 -1.4461 -0.8699  0.7740
18385TIP3   OH276569   5.265   0.370   1.140  0.0736 -0.1003  1.1008
18385TIP3    H176570   5.216   0.439   1.184  1.0093  2.3969 -1.4347
18385TIP3    H276571   5.238   0.376   1.049  2.8262 -0.6041  0.1455
18386TIP3   OH276572   3.384   3.326  12.973  0.1686  0.7787  0.1738
18386TIP3    H176573   3.296   3.316  13.011  0.0553 -0.5713 -0.3771
18386TIP3    H276574   3.375   3.397  12.910 -1.3066 -1.1591 -1.9581
18387TIP3   OH276575   0.342   1.990  14.086  0.3711 -0.3111 -0.1249
18387TIP3    H176576   0.423   2.031  14.117 -0.3637  0.1858  1.1933
18387TIP3    H276577   0.348   1.994  13.990  1.4070  0.6846 -0.0329
18388TIP3   OH276578   3.244   5.083  14.191 -0.0981 -0.2769 -0.1770
18388TIP3    H176579   3.242   5.102  14.285 -1.4796  0.7755 -0.3960
18388TIP3    H276580   3.154   5.094  14.162  0.7363  2.4156 -2.1761
18389TIP3   OH276581   0.147   0.089  15.268  0.4154 -0.4140 -0.1725
18389TIP3    H176582   0.092   0.158  15.306 -0.9884 -0.9097 -1.2275
18389TIP3    H276583   0.086   0.026  15.232  1.6878 -1.3300 -0.8229
18390TIP3   OH276584   3.397   6.395   2.656 -0.0480 -0.1359  0.2175
18390TIP3    H176585   3.375   6.461   2.722 -0.6303 -1.5945  1.5566
18390TIP3    H276586   3.312   6.366   2.622  0.2064 -0.1174 -0.4556
18391TIP3   OH276587   1.876   4.135  14.577  0.3857  0.0562  0.1001
18391TIP3    H176588   1.910   4.184  14.653  0.9459 -1.0539  0.5895
18391TIP3    H276589   1.937   4.156  14.507  0.0185  0.8786  0.0076
18392TIP3   OH276590   2.805   1.502   3.245  0.1075 -0.1517 -0.1818
18392TIP3    H176591   2.834   1.589   3.215 -0.6119  0.1081 -0.1449
18392TIP3    H276592   2.783   1.515   3.337  0.0066 -0.3766 -0.1757
18393TIP3   OH276593   5.753   5.930  15.958  0.3415 -0.3541  0.1133
18393TIP3    H176594   5.834   5.890  15.988  0.6620  0.1062 -0.1193
18393TIP3    H276595   5.771   5.956  15.867  0.3154  0.7579  0.4073
18394TIP3   OH276596   0.314   0.149  14.598 -0.6882 -0.1782  0.0255
18394TIP3    H176597   0.231   0.175  14.559 -1.2214  0.5921  1.5785
18394TIP3    H276598   0.379   0.167  14.530 -1.7340 -0.4016 -1.0614
18395TIP3   OH276599   0.869   4.191   1.072  0.2741  0.0924 -0.2752
18395TIP3    H176600   0.910   4.149   1.147 -1.3334 -0.1707  0.4900
18395TIP3    H276601   0.851   4.281   1.101 -0.8676 -0.1717 -0.1207
18396TIP3   OH276602   0.716   5.527  16.398 -0.0684  0.5297 -0.1013
18396TIP3    H176603   0.622   5.518  16.413 -0.1847  0.8968 -0.5723
18396TIP3    H276604   0.749   5.437  16.401 -0.4339  0.3980  0.0649
18397TIP3   OH276605   1.752   6.697   1.560 -0.1462 -0.8450  0.0752
18397TIP3    H176606   1.743   6.686   1.654  0.5458 -0.2246  0.2192
18397TIP3    H276607   1.680   6.755   1.536 -0.0547 -0.6429  0.2904
18398TIP3   OH276608   2.510   1.946   5.910  0.6510  0.3176  0.6867
18398TIP3    H176609   2.441   1.938   5.976 -0.6869 -1.3643 -0.8052
18398TIP3    H276610   2.475   2.010   5.847  1.1588  0.6354  0.7231
18399TIP3   OH276611   6.386   1.671  10.932 -0.1637  0.5263 -0.3717
18399TIP3    H176612   6.367   1.586  10.894  1.0009  0.0564  0.0447
18399TIP3    H276613   6.461   1.703  10.882  0.1501  0.7722  0.2448
18400TIP3   OH276614   4.396   3.282  13.035  0.0491 -0.5504 -0.7380
18400TIP3    H176615   4.471   3.279  12.977 -0.0900  0.7444 -1.0208
18400TIP3    H276616   4.352   3.364  13.014 -1.2117 -1.0729 -0.2853
18401TIP3   OH276617   2.781   1.838   1.021 -0.2644  0.4559 -0.4607
18401TIP3    H176618   2.713   1.905   1.025 -0.6515  0.0984 -0.9170
18401TIP3    H276619   2.746   1.772   0.962  0.7394  0.5473 -1.1768
18402TIP3   OH276620   3.210   1.887   2.744  0.5107 -0.7238  0.4394
18402TIP3    H176621   3.118   1.894   2.768  0.3432 -0.7959 -0.1466
18402TIP3    H276622   3.247   1.973   2.762  0.5065 -0.9159  1.3829
18403TIP3   OH276623   1.673   6.743   0.544 -0.2404 -0.0984 -0.4421
18403TIP3    H176624   1.655   6.785   0.628  2.7160 -0.5667  0.5354
18403TIP3    H276625   1.659   6.650   0.560 -0.3617 -0.1267 -0.7049
18404TIP3   OH276626   2.155   5.414  11.571 -0.4688  0.2686  0.5083
18404TIP3    H176627   2.218   5.345  11.551 -1.9670 -0.9120 -0.4612
18404TIP3    H276628   2.195   5.495  11.540  0.3949 -0.5073 -0.4549
18405TIP3   OH276629   3.750   0.748   0.960 -0.0113 -0.0034 -0.0919
18405TIP3    H176630   3.791   0.753   1.046 -1.0470  1.0017  0.3773
18405TIP3    H276631   3.820   0.770   0.898  0.8760 -1.2517  0.4269
18406TIP3   OH276632   6.181   3.785  11.524 -0.0512  0.5091  0.5178
18406TIP3    H176633   6.158   3.694  11.543  1.0799  0.5512  2.2788
18406TIP3    H276634   6.265   3.780  11.479 -0.6966  0.6501 -0.7676
18407TIP3   OH276635   2.001   6.349  16.136 -0.1395  0.4050  0.4519
18407TIP3    H176636   2.072   6.379  16.080  1.2528  0.7290  2.2897
18407TIP3    H276637   1.946   6.426  16.149  0.6066  0.8389  1.0705
18408TIP3   OH276638   0.178   5.279  11.748 -0.3643  0.0680  0.4314
18408TIP3    H176639   0.169   5.221  11.673 -0.9023  0.7273 -0.0308
18408TIP3    H276640   0.119   5.352  11.729  0.1268  0.6579  1.0960
18409TIP3   OH276641   1.843   1.870  11.165  0.2624  0.0120 -0.0629
18409TIP3    H176642   1.822   1.893  11.074 -0.1185  1.8765  0.4403
18409TIP3    H276643   1.852   1.775  11.164 -0.4640 -0.0958 -1.8987
18410TIP3   OH276644   1.921   4.409  11.932 -0.7938 -0.0736 -0.4169
18410TIP3    H176645   1.910   4.494  11.891  2.8606  0.7844  0.0005
18410TIP3    H276646   1.894   4.421  12.023 -0.0490  0.7434 -0.2968
18411TIP3   OH276647   2.587   1.824  14.737  0.5982  0.1131  0.4003
18411TIP3    H176648   2.492   1.808  14.731  0.5420  0.4531  0.3899
18411TIP3    H276649   2.617   1.762  14.803  0.4681 -0.4259 -0.0338
18412TIP3   OH276650   0.632   3.611  12.506 -0.1685  0.0258 -0.5049
18412TIP3    H176651   0.540   3.611  12.482  0.4805 -0.0486 -3.4106
18412TIP3    H276652   0.646   3.527  12.550 -1.2091 -0.6410 -1.3839
18413TIP3   OH276653   3.498   1.787   4.995  0.1692  0.2090 -0.6547
18413TIP3    H176654   3.405   1.790   5.017  0.4215 -0.5190  0.6238
18413TIP3    H276655   3.500   1.770   4.901 -0.9830  1.9733 -1.0557
18414TIP3   OH276656   5.108   5.464   4.563 -0.0886  0.2672 -0.0038
18414TIP3    H176657   5.119   5.538   4.504  2.0824 -1.2455 -1.6848
18414TIP3    H276658   5.198   5.436   4.582 -0.8058 -2.4221 -0.1868
18415TIP3   OH276659   3.185   2.669  17.313 -0.0601  0.0307 -0.6323
18415TIP3    H176660   3.207   2.576  17.317  0.3409 -0.0033 -2.5754
18415TIP3    H276661   3.264   2.714  17.340  0.1259 -0.1804 -0.8253
18416TIP3   OH276662   5.601   0.181   1.517 -0.5454 -0.0964  0.0494
18416TIP3    H176663   5.648   0.154   1.596 -0.6330  0.4533  0.2919
18416TIP3    H276664   5.630   0.119   1.449  1.4944  0.9945 -0.1278
18417TIP3   OH276665   1.255   3.409   1.528 -0.0122 -0.1468  0.1350
18417TIP3    H176666   1.296   3.326   1.552  0.0797 -0.4041 -0.8790
18417TIP3    H276667   1.227   3.397   1.437  0.7471  1.2114 -0.3074
18418TIP3   OH276668   1.881   6.431   1.726 -0.4435  0.7617 -0.3666
18418TIP3    H176669   1.912   6.436   1.816 -0.1033 -1.6568 -0.2788
18418TIP3    H276670   1.931   6.499   1.680 -1.1260  2.5109  1.3332
18419TIP3   OH276671   4.058   3.268  12.180  0.1911  0.0783 -0.7394
18419TIP3    H176672   4.009   3.211  12.239  2.3348 -0.1294  0.9694
18419TIP3    H276673   4.124   3.211  12.141  0.1196  0.6789 -1.7862
18420TIP3   OH276674   5.325   4.403  13.217 -0.5922  0.5467 -0.2109
18420TIP3    H176675   5.307   4.312  13.238  1.4302 -0.5575 -2.6825
18420TIP3    H276676   5.374   4.436  13.292  0.5769 -1.1321 -0.1814
18421TIP3   OH276677   4.113   1.649   2.905  0.2776 -0.0437 -0.0091
18421TIP3    H176678   4.111   1.622   2.813  2.4818 -0.9231  0.1410
18421TIP3    H276679   4.177   1.720   2.908 -0.1272  0.2957  0.7749
18422TIP3   OH276680   4.731   4.577   5.978  0.5233 -0.5250  0.1815
18422TIP3    H176681   4.740   4.653   6.036 -0.8942 -0.9550  1.0079
18422TIP3    H276682   4.637   4.559   5.977  0.6622 -1.2936 -1.2913
18423TIP3   OH276683   1.455   5.825   5.716 -0.4667 -0.4936  0.4096
18423TIP3    H176684   1.392   5.866   5.658 -0.0579 -1.1267 -0.5083
18423TIP3    H276685   1.403   5.798   5.792 -1.3335 -1.0570 -0.3488
18424TIP3   OH276686   4.955   4.546   4.267 -0.2890 -0.2151 -0.3793
18424TIP3    H176687   4.997   4.469   4.307  0.2329 -0.7421 -1.8828
18424TIP3    H276688   5.004   4.621   4.301 -0.4986 -0.5716  0.7365
18425TIP3   OH276689   5.153   2.480   5.309 -0.4920  0.2271  0.3289
18425TIP3    H176690   5.064   2.459   5.281 -0.2470 -0.8765  0.3502
18425TIP3    H276691   5.170   2.421   5.382  0.2829  0.4030  0.2997
18426TIP3   OH276692   0.241   1.539   2.589 -0.1211 -0.2681  0.5795
18426TIP3    H176693   0.241   1.633   2.609 -2.1755  0.1056 -0.8411
18426TIP3    H276694   0.302   1.530   2.516 -0.6236  0.1255  0.1076
18427TIP3   OH276695   0.864   2.953  13.076  0.3242 -0.4389 -0.2885
18427TIP3    H176696   0.820   2.906  13.006  0.6161  1.3403 -1.7324
18427TIP3    H276697   0.889   2.885  13.139 -0.3098 -2.0305 -1.7023
18428TIP3   OH276698   6.131   1.866   1.388  0.0269 -0.0715 -0.0572
18428TIP3    H176699   6.042   1.892   1.412  0.1925  0.6702 -0.2263
18428TIP3    H276700   6.164   1.819   1.465 -0.9473 -1.4917 -0.4584
18429TIP3   OH276701   6.707   6.021   1.860 -0.0664 -0.1719  0.5816
18429TIP3    H176702   6.687   6.037   1.952 -1.3744  1.4388  0.0613
18429TIP3    H276703   6.738   5.930   1.858  1.4182  0.2094  2.7923
18430TIP3   OH276704   6.720   1.849  14.038 -0.5282  0.1251 -0.4907
18430TIP3    H176705   6.713   1.844  14.133 -0.7839 -0.4756 -0.5329
18430TIP3    H276706   6.717   1.942  14.018  2.3907  0.4631  0.2717
18431TIP3   OH276707   0.721   1.750   5.182 -0.5013 -0.0364 -0.3524
18431TIP3    H176708   0.764   1.760   5.267 -0.2691 -1.3561 -0.2939
18431TIP3    H276709   0.663   1.826   5.175 -0.0172  0.4475  0.6772
18432TIP3   OH276710   1.792   2.185   5.071  0.3253  0.1874  0.1223
18432TIP3    H176711   1.720   2.220   5.019 -1.3692  0.6918  2.6516
18432TIP3    H276712   1.802   2.095   5.040  0.5603  0.9361 -2.1743
18433TIP3   OH276713   1.388   0.983   3.809  0.3950  0.0269  0.3287
18433TIP3    H176714   1.296   1.007   3.816  0.6488  2.2841 -2.4177
18433TIP3    H276715   1.436   1.064   3.826  1.8886 -0.9399  0.9929
18434TIP3   OH276716   4.395   3.177   6.047  0.2425 -0.7774 -0.0719
18434TIP3    H176717   4.427   3.267   6.038 -1.2156  0.1315  2.8380
18434TIP3    H276718   4.429   3.148   6.131 -1.5301 -1.9542  0.2877
18435TIP3   OH276719   5.129   5.968  11.221 -0.4310 -0.1378  0.0974
18435TIP3    H176720   5.173   6.002  11.299 -0.7608 -0.7876  0.5787
18435TIP3    H276721   5.199   5.952  11.159 -0.2951  1.9128 -0.3703
18436TIP3   OH276722   5.735   3.201  14.651 -0.6516 -0.1454  0.3321
18436TIP3    H176723   5.695   3.274  14.698 -1.4822 -1.3915  1.6720
18436TIP3    H276724   5.681   3.125  14.675  0.3425 -1.2546 -0.7739
18437TIP3   OH276725   3.118   6.607   5.567  0.1906 -0.5312 -0.1422
18437TIP3    H176726   3.183   6.577   5.630 -0.6327 -0.1603  0.9186
18437TIP3    H276727   3.159   6.593   5.481  1.1553 -1.4691  0.4489
18438TIP3   OH276728   3.825   1.597   2.901  0.3558 -0.0166 -0.3614
18438TIP3    H176729   3.839   1.691   2.910 -1.4652  0.0853  4.5700
18438TIP3    H276730   3.903   1.556   2.938 -0.7658 -0.1630  2.0403
18439TIP3   OH276731   0.227   0.286  17.137 -0.1770 -0.1724 -0.2363
18439TIP3    H176732   0.159   0.311  17.075  0.2058  0.7854 -0.2744
18439TIP3    H276733   0.200   0.199  17.168 -2.0205  0.6580  0.6235
18440TIP3   OH276734   6.223   3.661  15.858  0.8612  0.5664 -0.5281
18440TIP3    H176735   6.278   3.586  15.837  0.2418  0.4515 -1.8515
18440TIP3    H276736   6.272   3.708  15.926  1.2407 -1.0231  0.3563
18441TIP3   OH276737   4.526   4.455   3.853 -0.2184 -0.4791  0.2884
18441TIP3    H176738   4.521   4.502   3.770  4.5817  0.5303  0.2571
18441TIP3    H276739   4.538   4.363   3.829 -0.6440 -0.4581 -0.0126
18442TIP3   OH276740   0.346   3.063   5.692 -0.6599  0.3645 -0.0913
18442TIP3    H176741   0.383   3.145   5.658 -0.7860 -0.2977 -1.9549
18442TIP3    H276742   0.421   3.007   5.708 -0.6654  0.1943 -0.6428
18443TIP3   OH276743   0.960   3.737   1.482 -0.1290 -0.0202 -0.1631
18443TIP3    H176744   1.008   3.716   1.562 -0.7844  1.8223  0.7918
18443TIP3    H276745   0.897   3.666   1.472  0.7186 -0.8550  0.3218
18444TIP3   OH276746   3.573   0.988  15.378 -0.2514 -0.3247 -0.3960
18444TIP3    H176747   3.511   1.058  15.399 -0.3394 -0.5381  0.0600
18444TIP3    H276748   3.655   1.015  15.419 -0.1477 -0.2387 -0.6587
18445TIP3   OH276749   1.611   0.632  11.497  0.3920  0.1077 -0.3698
18445TIP3    H176750   1.684   0.628  11.560  0.8765 -2.6522 -1.0084
18445TIP3    H276751   1.558   0.706  11.528  1.6232  0.0586  2.1532
18446TIP3   OH276752   6.504   4.887   3.852  0.2139 -0.7378 -0.1762
18446TIP3    H176753   6.537   4.828   3.784 -1.3962 -0.4044 -1.3160
18446TIP3    H276754   6.512   4.836   3.933  2.9581 -0.8293 -0.4110
18447TIP3   OH276755   2.016   2.968   2.135 -0.7703  0.5334 -0.3953
18447TIP3    H176756   1.953   2.933   2.071 -0.6800 -0.1490 -0.1199
18447TIP3    H276757   2.020   3.061   2.116  0.0737  0.1830 -2.1050
18448TIP3   OH276758   6.086   1.584  15.931 -0.1635  0.0542 -0.1727
18448TIP3    H176759   6.001   1.556  15.965 -0.6158  1.7599  0.1926
18448TIP3    H276760   6.098   1.672  15.965  2.4350 -0.6408  1.0061
18449TIP3   OH276761   4.192   0.575   2.354  0.2927 -0.4160 -0.2216
18449TIP3    H176762   4.143   0.537   2.427 -0.4641  1.2343  0.1599
18449TIP3    H276763   4.131   0.636   2.313  1.5309  0.5610 -0.6717
18450TIP3   OH276764   4.181   1.271   1.088  0.2843  0.1692  0.1912
18450TIP3    H176765   4.170   1.338   1.021  2.0049 -1.3027 -1.6787
18450TIP3    H276766   4.099   1.221   1.085  0.3821  0.0481 -0.9284
18451TIP3   OH276767   6.223   0.415  12.100  0.3469 -0.8026 -0.2847
18451TIP3    H176768   6.149   0.423  12.160  0.6981 -1.0780  0.1952
18451TIP3    H276769   6.299   0.404  12.158  0.9816  1.0397 -0.7073
18452TIP3   OH276770   1.619   2.992   4.339  0.6720  0.7213 -0.1594
18452TIP3    H176771   1.528   2.966   4.325  0.3241  1.2030  1.1093
18452TIP3    H276772   1.670   2.930   4.287 -0.3931  0.8206 -1.3966
18453TIP3   OH276773   3.702   1.281  15.497  0.3757 -0.0197  0.3938
18453TIP3    H176774   3.652   1.361  15.482  0.0501 -0.2712  0.1068
18453TIP3    H276775   3.740   1.261  15.411  0.9655  0.1602  0.6033
18454TIP3   OH276776   6.613   5.247   5.477 -0.6678 -0.0503  0.2332
18454TIP3    H176777   6.561   5.173   5.445 -2.5015  0.2228  2.2880
18454TIP3    H276778   6.592   5.319   5.417  0.4057 -0.9200 -1.2281
18455TIP3   OH276779   1.328   0.724   1.765 -0.9767  0.3257 -0.0099
18455TIP3    H176780   1.335   0.764   1.678 -1.4952  0.6628  0.0979
18455TIP3    H276781   1.312   0.631   1.748  0.8980  0.0192 -0.2600
18456TIP3   OH276782   1.036   3.387   5.512  0.0240 -0.2712  0.2259
18456TIP3    H176783   0.993   3.376   5.597 -1.3568  1.1485 -0.2389
18456TIP3    H276784   1.087   3.307   5.500  0.2362 -0.5052  2.3687
18457TIP3   OH276785   3.446   2.706  11.798  1.3570 -0.5020 -0.0977
18457TIP3    H176786   3.416   2.617  11.816 -0.9500  0.4894  1.5226
18457TIP3    H276787   3.465   2.743  11.885  1.2733  0.8876 -0.6454
18458TIP3   OH276788   1.055   3.691   2.035 -0.1196 -0.1322 -0.5876
18458TIP3    H176789   1.077   3.763   2.094  1.2461  0.1295 -1.3735
18458TIP3    H276790   1.096   3.614   2.074 -1.5533 -0.5100  0.2360
18459TIP3   OH276791   0.542   2.757   5.235  0.5377  0.0924  0.4694
18459TIP3    H176792   0.483   2.700   5.184 -0.2708  0.5585  0.8600
18459TIP3    H276793   0.622   2.706   5.245 -0.4263 -1.2953  1.4438
18460TIP3   OH276794   0.850   0.648   2.826  0.0122 -0.4453  0.2404
18460TIP3    H176795   0.792   0.633   2.751  1.3333  0.7532 -1.1076
18460TIP3    H276796   0.922   0.586   2.813  0.2400 -0.2436  0.5236
18461TIP3   OH276797   6.106   2.749   5.241 -0.2618 -0.1241  0.2602
18461TIP3    H176798   6.013   2.770   5.234 -0.0593  1.1667  1.1387
18461TIP3    H276799   6.149   2.809   5.180  0.1809  0.9090  1.5531
18462TIP3   OH276800   2.077   5.073   0.778  0.4105  0.2421 -0.2356
18462TIP3    H176801   2.010   5.066   0.710  0.3351  0.8094 -0.2186
18462TIP3    H276802   2.141   5.005   0.755 -0.1536 -0.2968 -0.2627
18463TIP3   OH276803   2.287   0.501   0.917 -0.4296  0.1492 -0.3585
18463TIP3    H176804   2.343   0.575   0.893 -2.0299  0.9492 -1.8359
18463TIP3    H276805   2.240   0.531   0.994 -0.8143  0.5453 -0.7440
18464TIP3   OH276806   4.538   4.460   0.663 -0.5615  0.1442 -0.0474
18464TIP3    H176807   4.487   4.477   0.742 -1.3869  2.8266 -1.0768
18464TIP3    H276808   4.613   4.519   0.670  1.7717 -2.6677  0.7059
18465TIP3   OH276809   3.169   5.827  11.164  0.2109 -0.7955 -0.5228
18465TIP3    H176810   3.177   5.810  11.258 -1.5827  1.5182  0.1358
18465TIP3    H276811   3.094   5.775  11.136  0.2206 -0.8237 -0.4960
18466TIP3   OH276812   5.995   4.160   3.664 -0.3961  0.0100 -0.2144
18466TIP3    H176813   5.919   4.183   3.611  1.3067  4.1886 -1.3106
18466TIP3    H276814   6.070   4.170   3.605  1.2016 -0.9937  1.5256
18467TIP3   OH276815   6.307   0.682  16.288  0.1130 -0.1718 -0.7982
18467TIP3    H176816   6.220   0.673  16.250 -0.4313  0.7320  0.1861
18467TIP3    H276817   6.292   0.706  16.379  1.3590  2.7015 -1.2418
18468TIP3   OH276818   1.244   4.335   5.677  0.5889  0.0182 -0.4046
18468TIP3    H176819   1.283   4.299   5.598 -0.4173 -2.4816  0.1624
18468TIP3    H276820   1.159   4.369   5.648  1.5092  2.0473 -0.9241
18469TIP3   OH276821   5.340   2.697   4.747  0.2219  0.6522  0.1735
18469TIP3    H176822   5.391   2.652   4.680  0.4844  0.0640  0.7592
18469TIP3    H276823   5.358   2.790   4.733  0.9996  0.4837  0.0075
18470TIP3   OH276824   3.548   1.960   5.323  0.1085 -0.8699  0.6903
18470TIP3    H176825   3.522   2.010   5.246  0.9037  1.0856  1.6334
18470TIP3    H276826   3.490   1.883   5.322 -3.2816  1.4628  0.7570
18471TIP3   OH276827   2.569   6.125  15.279 -0.2334  0.0738 -0.4828
18471TIP3    H176828   2.546   6.095  15.191  0.9064 -1.1762 -0.3832
18471TIP3    H276829   2.628   6.058  15.312  0.9274  1.5144  0.4841
18472TIP3   OH276830   1.257   2.447  16.375 -0.0349 -0.0730 -0.3093
18472TIP3    H176831   1.246   2.410  16.462  1.1060  0.8310  0.2580
18472TIP3    H276832   1.278   2.372  16.319  0.6589 -0.4879  0.4925
18473TIP3   OH276833   6.476   3.108  13.131 -0.1381 -0.1869 -0.4728
18473TIP3    H176834   6.489   3.163  13.208 -2.7631 -1.9054  1.3900
18473TIP3    H276835   6.542   3.039  13.138 -1.2276 -1.1304  1.1378
18474TIP3   OH276836   0.108   1.324   1.316  0.3042 -0.2469 -0.0614
18474TIP3    H176837   0.074   1.234   1.319  1.9923 -0.9395 -0.3317
18474TIP3    H276838   0.152   1.336   1.400 -0.3087  0.5200  0.1649
18475TIP3   OH276839   2.347   3.419  17.181  0.1247 -0.6836  1.0715
18475TIP3    H176840   2.256   3.435  17.205 -0.3065 -1.5422  0.0632
18475TIP3    H276841   2.382   3.506  17.160 -1.2675 -0.6085 -1.2415
18476TIP3   OH276842   1.106   0.768  14.737  0.4570  0.2448 -0.6379
18476TIP3    H176843   1.015   0.780  14.764 -0.1202 -2.2272 -1.2591
18476TIP3    H276844   1.119   0.834  14.669 -0.4216  1.4891  0.3376
18477TIP3   OH276845   4.439   4.014  16.525  0.5337 -0.3955 -0.3245
18477TIP3    H176846   4.400   4.100  16.542 -1.2302 -1.2541  0.1205
18477TIP3    H276847   4.484   4.025  16.441 -0.6002  0.6740 -0.8268
18478TIP3   OH276848   4.852   1.111  15.466 -0.8156 -0.3356  0.6499
18478TIP3    H176849   4.886   1.161  15.540 -2.2264  2.0382 -0.2215
18478TIP3    H276850   4.796   1.044  15.506  2.2499 -2.4119  1.9215
18479TIP3   OH276851   5.415   1.654  12.829  0.2853 -0.1871 -0.6335
18479TIP3    H176852   5.394   1.742  12.861  1.6573  0.5327 -1.5903
18479TIP3    H276853   5.341   1.600  12.856 -0.3514  1.1510  0.4242
18480TIP3   OH276854   3.432   5.820   4.899  0.1105  0.5165  0.3831
18480TIP3    H176855   3.480   5.757   4.953  1.8650 -0.0322 -1.6678
18480TIP3    H276856   3.471   5.905   4.920  0.5070  0.3582  0.3064
18481TIP3   OH276857   0.758   3.820  15.310  0.5698  0.5493 -0.2195
18481TIP3    H176858   0.742   3.730  15.284  0.3054  0.4377  0.3246
18481TIP3    H276859   0.700   3.872  15.256 -0.3117  0.2849  0.4506
18482TIP3   OH276860   1.034   0.099   1.192 -0.0476 -0.3729  0.1028
18482TIP3    H176861   1.032   0.030   1.259 -0.5284  0.8229  1.3923
18482TIP3    H276862   1.081   0.061   1.119 -1.3248 -2.4853  0.2898
18483TIP3   OH276863   1.967   3.465   5.559  0.1814  0.5793  0.5494
18483TIP3    H176864   1.916   3.386   5.574 -0.1816  0.7272  0.1045
18483TIP3    H276865   2.055   3.433   5.538  0.2155  0.3207  1.0620
18484TIP3   OH276866   2.450   2.785  13.723  0.2461  0.1176 -0.0931
18484TIP3    H176867   2.380   2.762  13.661  1.8634  0.1823 -2.0484
18484TIP3    H276868   2.450   2.714  13.787 -0.9795 -0.3559 -0.5822
18485TIP3   OH276869   1.796   0.405  13.404  0.0421 -0.7279  0.4623
18485TIP3    H176870   1.825   0.488  13.441  0.2368  0.4859 -2.1886
18485TIP3    H276871   1.729   0.374  13.465  0.2604  1.1404  1.7422
18486TIP3   OH276872   5.738   6.657  16.091  0.3468 -0.4161 -0.0628
18486TIP3    H176873   5.773   6.743  16.069  0.0296  0.3966  2.3219
18486TIP3    H276874   5.692   6.629  16.012 -0.7879  2.2551 -0.4536
18487TIP3   OH276875   5.873   0.018  11.263  0.3458  0.2377  0.1970
18487TIP3    H176876   5.778   0.016  11.260  0.3555 -0.8775  0.0514
18487TIP3    H276877   5.900   0.025  11.171  0.4087  1.0832  0.2734
18488TIP3   OH276878   1.658   4.646  12.208  0.4863  0.0375 -0.1590
18488TIP3    H176879   1.636   4.682  12.122 -0.8495  0.0635  0.1789
18488TIP3    H276880   1.677   4.554  12.190  1.3409  0.2946 -0.6374
18489TIP3   OH276881   4.852   6.069   0.784  0.4388 -0.2314 -0.0716
18489TIP3    H176882   4.816   6.003   0.844 -0.6722  0.0069 -0.4529
18489TIP3    H276883   4.931   6.101   0.828  0.0806 -0.6298  0.8828
18490TIP3   OH276884   3.273   1.743   1.855 -0.4151 -0.0840 -0.0922
18490TIP3    H176885   3.364   1.718   1.839 -0.5481 -0.7058  0.1036
18490TIP3    H276886   3.258   1.722   1.947 -1.7961 -3.4201 -0.9293
18491TIP3   OH276887   6.467   5.122  13.733 -0.0015 -0.0682  0.3857
18491TIP3    H176888   6.441   5.171  13.811  0.7469  2.4391 -0.8143
18491TIP3    H276889   6.392   5.132  13.674 -0.3992 -1.6058  0.5919
18492TIP3   OH276890   3.201   3.972   3.008 -0.0035 -0.2406  0.2688
18492TIP3    H176891   3.112   3.998   3.032  0.9234  0.5095  3.3525
18492TIP3    H276892   3.199   3.877   3.008 -1.8218 -0.4616 -4.5128
18493TIP3   OH276893   4.641   2.153   5.057  0.1078 -0.4287  0.3468
18493TIP3    H176894   4.727   2.145   5.097 -0.3684 -0.2595  1.4548
18493TIP3    H276895   4.636   2.081   4.994  0.8859 -0.7040  0.5989
18494TIP3   OH276896   5.806   6.239  14.888  0.2911 -0.3903  1.0850
18494TIP3    H176897   5.853   6.317  14.914 -0.0463  0.4601 -0.7355
18494TIP3    H276898   5.864   6.195  14.826 -0.5654 -0.2575  0.1792
18495TIP3   OH276899   5.197   0.090  11.565 -0.2639 -0.3782  0.1312
18495TIP3    H176900   5.126   0.049  11.515  1.3498 -1.5310 -1.3519
18495TIP3    H276901   5.240   0.148  11.503 -0.0769  0.5562  1.1004
18496TIP3   OH276902   5.553   4.024   5.448  0.5292 -0.2887 -0.5521
18496TIP3    H176903   5.576   4.115   5.426  2.2363 -1.0611 -2.2940
18496TIP3    H276904   5.477   4.005   5.393  0.2998  0.0088 -0.3432
18497TIP3   OH276905   0.096   3.091   6.247 -0.1071 -0.5041 -0.0807
18497TIP3    H176906   0.014   3.139   6.237 -1.4025 -2.4991  0.4797
18497TIP3    H276907   0.078   3.004   6.213  1.3665 -1.4074  1.2813
18498TIP3   OH276908   3.524   5.950  11.177  0.9673  0.7087  0.6959
18498TIP3    H176909   3.619   5.960  11.173  0.8715  1.2916 -0.7850
18498TIP3    H276910   3.504   5.951  11.271  2.5098 -0.5223  1.0956
18499TIP3   OH276911   6.272   4.692   0.865 -0.9096 -0.4537  0.2337
18499TIP3    H176912   6.297   4.716   0.776 -0.6373 -0.8335  0.2043
18499TIP3    H276913   6.350   4.710   0.918  0.0498 -3.1469 -0.1190
18500TIP3   OH276914   2.105   5.460   2.057  0.0222  0.0211 -0.1274
18500TIP3    H176915   2.028   5.429   2.009  0.4239  0.3662 -1.0196
18500TIP3    H276916   2.173   5.396   2.037  0.0471 -0.1275  0.4288
18501TIP3   OH276917   6.592   3.494  14.587 -0.3816 -0.1943  0.3781
18501TIP3    H176918   6.554   3.526  14.669 -0.3189  0.6563  0.0864
18501TIP3    H276919   6.683   3.525  14.590 -0.8963  1.5813 -0.8915
18502TIP3   OH276920   2.113   6.706  13.680 -0.1088  0.4355  0.3780
18502TIP3    H176921   2.099   6.772  13.612 -0.5809 -1.0824 -1.0592
18502TIP3    H276922   2.189   6.657  13.649 -0.0306  0.0215  1.2160
18503TIP3   OH276923   1.625   0.996  16.244 -0.0170  0.1552 -0.6169
18503TIP3    H176924   1.594   1.047  16.319  0.2882 -0.8062  0.1804
18503TIP3    H276925   1.587   1.040  16.168  2.9987  3.7204 -0.3429
18504TIP3   OH276926   6.739   2.294   1.130  0.0162 -0.4214 -0.2364
18504TIP3    H176927   6.654   2.321   1.163  0.3702 -0.3544  0.6486
18504TIP3    H276928   6.754   2.349   1.053  0.2393  1.1788  0.8981
18505TIP3   OH276929   4.437   1.104  12.016  0.4649  0.2900 -0.2578
18505TIP3    H176930   4.451   1.191  11.978  3.8314  0.1164  0.2988
18505TIP3    H276931   4.406   1.121  12.105  0.3084  0.8805 -0.4233
18506TIP3   OH276932   6.317   2.389   0.828  0.3937  0.0012 -0.3722
18506TIP3    H176933   6.313   2.296   0.808  0.4528 -0.1124  0.1406
18506TIP3    H276934   6.235   2.407   0.874  0.8896 -0.0509  0.5628
18507TIP3   OH276935   6.166   2.998   4.604  0.0334  0.1366  0.2290
18507TIP3    H176936   6.242   2.941   4.591 -0.3743 -0.7079  1.4010
18507TIP3    H276937   6.139   3.022   4.515  0.2537 -1.4650 -0.3073
18508TIP3   OH276938   5.539   3.005  11.238  0.0056  0.4724 -0.3181
18508TIP3    H176939   5.604   2.938  11.259 -2.0357 -0.8550  2.3243
18508TIP3    H276940   5.513   3.041  11.323 -3.4063  0.2008 -1.0912
18509TIP3   OH276941   1.012   0.699   0.902  0.0155 -0.4522 -0.4740
18509TIP3    H176942   0.927   0.743   0.902  0.6634  0.8782 -1.6970
18509TIP3    H276943   1.043   0.706   0.993  0.1832  1.8731 -0.6542
18510TIP3   OH276944   6.711   4.421   2.250  0.0463 -0.0104 -0.7209
18510TIP3    H176945   6.712   4.325   2.261  0.3197  0.0262 -0.3934
18510TIP3    H276946   6.628   4.448   2.290  0.0077 -0.1032 -0.7368
18511TIP3   OH276947   6.705   0.025   5.992  0.6966  0.4308  0.0865
18511TIP3    H176948   6.632   0.060   6.043  0.5796 -0.9509  0.9356
18511TIP3    H276949   6.772   0.006   6.057  1.5638  1.0529 -0.6079
18512TIP3   OH276950   3.964   2.456   4.267 -0.3839 -0.4026 -0.2292
18512TIP3    H176951   3.888   2.513   4.256 -0.6184 -0.6091  0.3023
18512TIP3    H276952   3.942   2.377   4.217 -1.6259 -1.5076  1.9417
18513TIP3   OH276953   5.502   2.729   5.738  0.0134  0.0956  0.3570
18513TIP3    H176954   5.465   2.785   5.670  0.3475  0.1502  0.2188
18513TIP3    H276955   5.566   2.785   5.782  0.1025 -0.0742  0.4430
18514TIP3   OH276956   1.879   3.742   1.382 -0.0648 -0.0109  0.0440
18514TIP3    H176957   1.845   3.815   1.330  0.1957  0.8861  1.1072
18514TIP3    H276958   1.846   3.757   1.470  2.3230  0.4377  0.9353
18515TIP3   OH276959   1.937   6.303   5.506  0.1128  0.0367 -0.6425
18515TIP3    H176960   2.023   6.335   5.479 -0.3417  0.7697 -1.2727
18515TIP3    H276961   1.925   6.221   5.458 -0.0120  0.5207 -1.4589
18516TIP3   OH276962   2.084   4.005   1.872 -0.1062 -0.6097  0.7793
18516TIP3    H176963   2.153   4.035   1.932 -0.2406  0.6677  0.3224
18516TIP3    H276964   2.003   4.018   1.922 -0.2150  0.4188  0.3727
18517TIP3   OH276965   2.041   2.474  14.221 -0.1329 -0.4916  0.0483
18517TIP3    H176966   2.090   2.492  14.140 -0.4392  0.5019  0.0692
18517TIP3    H276967   2.055   2.381  14.237  0.2944 -0.6087 -0.9133
18518TIP3   OH276968   3.474   0.812   5.666 -0.0886 -0.3795 -0.3526
18518TIP3    H176969   3.480   0.744   5.599  0.5832  0.6677 -1.3919
18518TIP3    H276970   3.409   0.779   5.728 -0.2887 -1.6444 -1.1969
18519TIP3   OH276971   1.347   4.364  13.363  0.3691 -0.2487 -0.0110
18519TIP3    H176972   1.360   4.288  13.420  0.3706 -1.0432 -1.0316
18519TIP3    H276973   1.323   4.326  13.278  0.6023  0.8863 -0.6049
18520TIP3   OH276974   0.759   0.534  13.746 -0.3204 -0.1111  0.2260
18520TIP3    H176975   0.739   0.461  13.687  1.4605 -1.1233  0.8045
18520TIP3    H276976   0.814   0.496  13.814  0.6303  1.7601  0.5815
18521TIP3   OH276977   4.749   5.273   3.628 -0.4498 -0.1600 -0.1449
18521TIP3    H176978   4.832   5.320   3.634  0.2444 -1.0829 -1.7498
18521TIP3    H276979   4.728   5.249   3.718  1.2797 -0.3057  0.2505
18522TIP3   OH276980   1.558   4.759  15.042 -0.0823  0.2405  0.5458
18522TIP3    H176981   1.490   4.742  15.107 -0.8802  2.3620  0.3588
18522TIP3    H276982   1.638   4.772  15.094 -0.0847 -0.9252  0.8653
18523TIP3   OH276983   5.336   4.648  14.285  0.5256 -0.4900 -0.5220
18523TIP3    H176984   5.286   4.567  14.279 -0.4723  0.1238 -0.7611
18523TIP3    H276985   5.398   4.644  14.211 -0.1623 -0.6093 -1.1011
18524TIP3   OH276986   2.675   2.367   1.639 -0.2348  0.0471  0.0488
18524TIP3    H176987   2.657   2.334   1.551  2.4187 -0.6390 -0.3165
18524TIP3    H276988   2.721   2.449   1.625  1.8980 -0.9665  0.6521
18525TIP3   OH276989   0.848   4.749   2.408  0.1025 -0.3183 -0.2303
18525TIP3    H176990   0.934   4.781   2.435  0.2464 -1.8926  1.3871
18525TIP3    H276991   0.789   4.822   2.426  0.7161 -0.1649  1.3421
18526TIP3   OH276992   6.063   2.833   1.410 -0.0706  0.2632  0.3089
18526TIP3    H176993   6.147   2.854   1.451 -0.3479  0.5027  0.7575
18526TIP3    H276994   6.012   2.793   1.480 -0.3361  0.1298  0.0389
18527TIP3   OH276995   5.307   3.169  13.076 -0.0470  0.5970 -0.2051
18527TIP3    H176996   5.400   3.173  13.054 -0.4470  0.5110 -2.1556
18527TIP3    H276997   5.303   3.127  13.161  1.6354 -0.6411 -0.7031
18528TIP3   OH276998   5.942   2.441  16.239 -0.3424  0.8935  0.0088
18528TIP3    H176999   5.935   2.499  16.315 -0.4663  1.2611 -0.2839
18528TIP3    H277000   6.012   2.480  16.186  1.9783 -1.0572  1.4248
18529TIP3   OH277001   5.761   1.595  13.532  0.0943 -0.3855  0.0092
18529TIP3    H177002   5.827   1.527  13.550  0.4014 -0.3217 -0.8269
18529TIP3    H277003   5.678   1.556  13.560  0.5335 -0.2580  1.6100
18530TIP3   OH277004   5.769   1.087   1.451 -0.1982 -0.0401 -0.2642
18530TIP3    H177005   5.851   1.072   1.497 -0.6546 -0.7990  0.3187
18530TIP3    H277006   5.705   1.034   1.498 -1.2681  1.4172  0.0197
18531TIP3   OH277007   4.014   4.939  13.584  0.3079 -0.1478 -0.6266
18531TIP3    H177008   3.995   4.846  13.589  2.3354 -0.5916 -0.1814
18531TIP3    H277009   3.984   4.965  13.497 -0.4059 -1.1679 -0.7022
18532TIP3   OH277010   2.518   3.948   0.672 -0.4876  0.0764  0.1410
18532TIP3    H177011   2.516   3.978   0.581 -1.9613 -0.6850 -0.1050
18532TIP3    H277012   2.442   3.990   0.713 -0.8446 -0.9455  0.5519
18533TIP3   OH277013   5.271   6.591  11.354 -0.3376 -0.1761 -0.2862
18533TIP3    H177014   5.306   6.679  11.336  0.6583 -0.4848  0.0630
18533TIP3    H277015   5.219   6.570  11.277  0.0472  0.4155 -0.7160
18534TIP3   OH277016   1.882   4.785   2.891  0.4677 -0.2614 -0.1100
18534TIP3    H177017   1.892   4.868   2.938  1.2824 -1.1577  1.3981
18534TIP3    H277018   1.961   4.735   2.915 -0.5114 -1.8712 -0.1181
18535TIP3   OH277019   4.188   0.881  10.738 -0.2632 -0.0050 -0.0943
18535TIP3    H177020   4.232   0.895  10.655 -0.5836  1.3858 -0.0631
18535TIP3    H277021   4.211   0.792  10.764  2.6508  0.6783 -0.0110
18536TIP3   OH277022   0.862   0.956   0.030 -0.0583  0.5107 -0.3616
18536TIP3    H177023   0.795   0.929   0.093  0.0595  0.9829 -0.0310
18536TIP3    H277024   0.813   0.991  -0.044 -0.1953  0.0144 -0.5141
18537TIP3   OH277025   4.918   0.376  14.939  0.1859 -0.2127  0.1347
18537TIP3    H177026   4.825   0.373  14.920  0.3519 -0.5295 -0.6540
18537TIP3    H277027   4.936   0.468  14.958  0.0618  0.1780 -1.5221
18538TIP3   OH277028   2.627   3.851  15.691 -0.0579 -0.0951  0.3316
18538TIP3    H177029   2.557   3.787  15.705 -0.0381 -0.1399  0.2256
18538TIP3    H277030   2.707   3.800  15.689 -0.0491 -0.0766  0.1707
18539TIP3   OH277031   3.102   5.156  15.115  0.4286  0.3921  0.7514
18539TIP3    H177032   3.097   5.066  15.082  0.9772 -0.0533  1.8169
18539TIP3    H277033   3.061   5.209  15.047 -0.0436 -0.6802  0.1718
18540TIP3   OH277034   6.715   3.798   0.671  0.0347  0.3404 -0.1017
18540TIP3    H177035   6.780   3.854   0.713  0.2995  0.4563 -0.6584
18540TIP3    H277036   6.657   3.771   0.742  0.6078  0.3511  0.3713
18541TIP3   OH277037   3.374   0.274   3.670  0.2282 -0.0254 -0.2581
18541TIP3    H177038   3.315   0.348   3.660 -0.4331 -0.4910  0.1207
18541TIP3    H277039   3.377   0.234   3.583  0.9191  0.6898 -0.5632
18542TIP3   OH277040   4.185   5.672  16.148  0.5826  0.1904 -0.3127
18542TIP3    H177041   4.179   5.578  16.168  1.9846  0.1319 -0.0557
18542TIP3    H277042   4.095   5.701  16.145  0.1521 -0.8887  1.0032
18543TIP3   OH277043   1.066   6.704   2.601  0.1571  0.5688 -0.1668
18543TIP3    H177044   1.141   6.740   2.556  0.9351  0.4021  0.9507
18543TIP3    H277045   1.014   6.662   2.533  1.2262  0.4280 -0.9136
18544TIP3   OH277046   4.896   3.874   0.150  0.7179  0.3393  0.3328
18544TIP3    H177047   4.819   3.926   0.124 -0.7563 -1.8812 -0.0940
18544TIP3    H277048   4.883   3.857   0.243  0.4946 -0.2878  0.1949
18545TIP3   OH277049   5.941   1.775   0.350 -0.3726 -0.1269  0.1739
18545TIP3    H177050   5.873   1.707   0.350 -0.2908 -0.2095  0.2309
18545TIP3    H277051   5.951   1.799   0.442  0.3715 -0.8213  0.2869
18546TIP3   OH277052   0.239   3.525  11.218  0.2060  0.2612 -0.3909
18546TIP3    H177053   0.328   3.562  11.217  1.5723 -2.5887 -2.7155
18546TIP3    H277054   0.253   3.431  11.232 -2.4766 -0.2743 -0.7861
18547TIP3   OH277055   1.938   3.120   0.868  0.3979 -0.1168 -0.0502
18547TIP3    H177056   1.947   3.183   0.940  1.1349  0.0137 -0.2484
18547TIP3    H277057   1.987   3.043   0.898  2.3398  0.6209 -1.1746
18548TIP3   OH277058   2.330   5.712  16.126 -0.2878 -0.1452  0.1614
18548TIP3    H177059   2.403   5.667  16.083  0.7196 -1.6335  3.1505
18548TIP3    H277060   2.253   5.682  16.078  0.8080 -0.8159 -1.2885
18549TIP3   OH277061   1.934   3.677   6.140  0.0885  0.1539  0.0191
18549TIP3    H177062   1.867   3.659   6.206 -1.6951  2.7670 -0.9251
18549TIP3    H277063   2.002   3.725   6.188  0.3616 -0.7380  0.5586
18550TIP3   OH277064   2.767   4.548  16.599  0.2308  0.2918  0.3429
18550TIP3    H177065   2.787   4.495  16.676  0.3079  0.3573  0.3699
18550TIP3    H277066   2.852   4.559  16.555  0.2364  0.4985  0.4058
18551TIP3   OH277067   0.746   5.850  11.279  0.0000  0.5295  0.1389
18551TIP3    H177068   0.786   5.829  11.195  1.7012  1.8417  0.5571
18551TIP3    H277069   0.809   5.821  11.344 -1.2470 -0.3686  0.9970
18552TIP3   OH277070   0.058   5.263   4.843 -0.0999  0.5123  0.4677
18552TIP3    H177071   0.152   5.268   4.828 -0.1259  0.3760  0.2644
18552TIP3    H277072   0.049   5.267   4.939  0.0757  1.1086  0.4675
18553TIP3   OH277073   4.637   0.487  13.321 -0.2882  0.0886  0.2205
18553TIP3    H177074   4.677   0.536  13.249 -0.5223 -0.2198 -0.1233
18553TIP3    H277075   4.547   0.519  13.325 -0.1713  0.3808  0.6308
18554TIP3   OH277076   1.672   1.665  14.924 -0.1063 -0.1765 -0.2114
18554TIP3    H177077   1.588   1.688  14.963  0.2803  0.1015  0.4874
18554TIP3    H277078   1.650   1.624  14.840 -0.8526  1.8950 -1.0786
18555TIP3   OH277079   1.613   5.534  15.134  0.3792 -0.5251  0.2035
18555TIP3    H177080   1.549   5.464  15.139  0.7792 -0.9332 -0.3122
18555TIP3    H277081   1.644   5.533  15.043 -0.9720  1.5380 -0.3516
18556TIP3   OH277082   3.605   3.145   3.145  0.6829 -0.0041 -0.1240
18556TIP3    H177083   3.573   3.230   3.176 -0.2291 -0.5972  0.6473
18556TIP3    H277084   3.529   3.107   3.100  1.1626 -0.3084 -0.6775
18557TIP3   OH277085   0.890   2.612   5.370 -0.0077 -0.9236  0.2897
18557TIP3    H177086   0.983   2.635   5.365 -0.0288 -1.0024 -0.6093
18557TIP3    H277087   0.871   2.609   5.463  0.3585  1.3284  0.5082
18558TIP3   OH277088   3.560   6.366   6.575 -0.0498 -0.1415 -0.2188
18558TIP3    H177089   3.480   6.408   6.544 -0.5058 -0.5610  0.3686
18558TIP3    H277090   3.543   6.272   6.567 -0.3175 -0.2854  1.5570
18559TIP3   OH277091   6.416   1.465   4.978  0.1345  0.4079  0.1873
18559TIP3    H177092   6.365   1.437   4.901  1.0326 -0.6875 -0.0251
18559TIP3    H277093   6.419   1.560   4.970  1.0696  0.2706 -1.7280
18560TIP3   OH277094   1.365   2.164  14.264  0.0172  0.4659  0.0138
18560TIP3    H177095   1.452   2.182  14.228 -0.6336  1.0390 -1.3575
18560TIP3    H277096   1.329   2.096  14.206 -0.2966 -0.0540  0.8075
18561TIP3   OH277097   6.418   0.025  11.252 -0.9759  0.3563  0.5348
18561TIP3    H177098   6.501   0.070  11.236 -0.4562 -0.6484  0.3256
18561TIP3    H277099   6.369   0.036  11.171 -0.0037 -1.2033 -0.3167
18562TIP3   OH277100   1.270   4.123   2.219 -0.0872 -0.3665  0.6459
18562TIP3    H177101   1.334   4.113   2.149 -0.7009 -2.3771  0.3065
18562TIP3    H277102   1.204   4.183   2.184  1.5793  1.8100  1.0396
18563TIP3   OH277103   6.215   2.946  17.115 -0.5390  0.0995 -0.0967
18563TIP3    H177104   6.175   2.970  17.031  0.2985 -2.0143 -1.1891
18563TIP3    H277105   6.279   2.878  17.093 -0.0969 -0.3418  2.2287
18564TIP3   OH277106   1.467   2.064   2.684 -0.5302 -0.4815  0.1105
18564TIP3    H177107   1.519   2.004   2.630  0.8739  2.7953 -2.5446
18564TIP3    H277108   1.514   2.068   2.768  1.5439 -0.3040 -0.9902
18565TIP3   OH277109   3.576   5.553  11.302 -0.2520 -0.3263 -0.0414
18565TIP3    H177110   3.589   5.486  11.236  0.0322  0.1842 -0.5079
18565TIP3    H277111   3.660   5.597  11.309 -0.6269  0.4501 -0.2628
18566TIP3   OH277112   3.276   5.096   3.210 -0.7947  0.4885  0.1478
18566TIP3    H177113   3.315   5.166   3.158  0.6849  1.4340  2.3941
18566TIP3    H277114   3.316   5.104   3.296 -1.3099 -2.5283  0.8062
18567TIP3   OH277115   1.617   1.373  17.198 -0.0063  0.0317 -0.2551
18567TIP3    H177116   1.611   1.288  17.242 -0.0279  0.5422  0.7556
18567TIP3    H277117   1.706   1.403  17.216 -0.4672  0.8827  0.6534
18568TIP3   OH277118   3.342   5.577   3.166 -0.1205  0.2050  0.3693
18568TIP3    H177119   3.398   5.595   3.091 -0.7587  0.2651 -0.1017
18568TIP3    H277120   3.291   5.500   3.140  0.9304 -0.8869  1.4501
18569TIP3   OH277121   0.624   2.901  13.416 -0.2095 -0.0671  0.2300
18569TIP3    H177122   0.612   2.891  13.322  0.0535  0.6185  0.1176
18569TIP3    H277123   0.700   2.847  13.437  1.0644  1.4542 -0.3243
18570TIP3   OH277124   5.145   3.456  11.370  0.7676 -0.1412  0.5126
18570TIP3    H177125   5.190   3.537  11.347  2.2074 -1.3492 -1.1785
18570TIP3    H277126   5.125   3.415  11.286  1.9620 -2.5067  1.2956
18571TIP3   OH277127   6.676   6.290  13.672  0.6025 -0.2166 -0.5273
18571TIP3    H177128   6.674   6.384  13.656  2.5611  0.0141  0.3578
18571TIP3    H277129   6.684   6.282  13.768  1.6184 -1.2394 -0.6749
18572TIP3   OH277130   1.972   5.236  15.412  0.2906 -0.2012  0.0943
18572TIP3    H177131   1.997   5.197  15.328 -0.2789  1.0042 -0.6606
18572TIP3    H277132   1.925   5.166  15.458 -0.2541 -0.5828 -1.0081
18573TIP3   OH277133   1.379   4.767  15.242  0.2636 -0.2780 -0.4540
18573TIP3    H177134   1.398   4.860  15.227  3.3345 -0.8591 -0.7531
18573TIP3    H277135   1.335   4.765  15.327  0.0103  1.4216 -0.5002
18574TIP3   OH277136   5.612   4.310   5.468  0.3579 -0.2241 -0.3170
18574TIP3    H177137   5.548   4.341   5.532  0.0917 -0.6048 -0.3916
18574TIP3    H277138   5.695   4.349   5.496 -0.2434  1.9699 -1.4139
18575TIP3   OH277139   1.615   2.114   5.360  0.3870  0.2616 -0.6615
18575TIP3    H177140   1.591   2.069   5.440 -0.7221 -0.3283 -1.3088
18575TIP3    H277141   1.709   2.096   5.350 -0.0465 -2.0942 -0.9922
18576TIP3   OH277142   0.757   6.697   2.770  0.3673  0.1397 -0.1880
18576TIP3    H177143   0.694   6.693   2.842  1.0659  0.8440  0.4872
18576TIP3    H277144   0.739   6.782   2.729  0.8108  0.3090 -0.0380
18577TIP3   OH277145   5.735   1.688  16.718  0.0901  0.2631 -0.1724
18577TIP3    H177146   5.689   1.605  16.725  0.0415  0.2772 -0.3078
18577TIP3    H277147   5.751   1.698  16.624 -1.1463  1.0831 -0.3148
18578TIP3   OH277148   5.630   0.697  15.983 -0.2666  0.1076  0.0418
18578TIP3    H177149   5.666   0.622  16.030 -0.9554  0.1736  0.6965
18578TIP3    H277150   5.621   0.667  15.893  0.9499 -0.0641 -0.0441
18579TIP3   OH277151   0.101   6.094   2.729  0.2251 -0.1535 -0.0277
18579TIP3    H177152   0.174   6.113   2.788 -1.7464  0.1671  2.4870
18579TIP3    H277153   0.103   6.164   2.664  2.6177 -0.6453 -0.5501
18580TIP3   OH277154   5.061   2.356  15.599 -0.6327  1.1521 -0.0289
18580TIP3    H177155   5.117   2.279  15.597  1.3613  2.3615  2.9054
18580TIP3    H277156   5.112   2.424  15.554 -0.2953  1.9109  1.4566
18581TIP3   OH277157   1.898   0.951  11.219 -0.4843  0.5127  0.1351
18581TIP3    H177158   1.958   1.021  11.195 -0.7469  1.6247  2.4578
18581TIP3    H277159   1.943   0.871  11.191  0.4987  1.5038 -1.2349
18582TIP3   OH277160   2.264   5.465  14.897 -0.2575 -0.2415 -0.6507
18582TIP3    H177161   2.188   5.439  14.949 -1.1104 -1.0845 -2.2539
18582TIP3    H277162   2.319   5.387  14.894 -1.0797 -0.7809 -2.4713
18583TIP3   OH277163   2.061   3.956   2.619 -0.3267 -0.3352  0.5665
18583TIP3    H177164   2.083   3.863   2.627 -0.6381 -0.3365  1.6523
18583TIP3    H277165   2.083   3.979   2.529  2.7827 -0.6956  1.1255
18584TIP3   OH277166   3.306   0.929   1.450  0.6123 -0.6612 -0.6817
18584TIP3    H177167   3.227   0.893   1.491  0.3817  0.5843 -0.0028
18584TIP3    H277168   3.357   0.851   1.426 -0.0264 -1.4535  0.4283
18585TIP3   OH277169   2.826   4.810  14.907 -0.3747  0.0930  0.8875
18585TIP3    H177170   2.845   4.872  14.836  1.2728 -0.7578  0.5418
18585TIP3    H277171   2.767   4.858  14.965 -0.3500  1.4390 -0.1393
18586TIP3   OH277172   1.972   6.318   3.835 -0.4142  0.4424 -0.1561
18586TIP3    H177173   2.060   6.322   3.798 -0.3188  0.1286  0.0260
18586TIP3    H277174   1.962   6.227   3.863 -1.7063 -0.1907 -2.3919
18587TIP3   OH277175   4.844   5.275  16.149 -0.2471  0.3490 -0.2231
18587TIP3    H177176   4.840   5.325  16.068  0.1592 -0.8168 -0.9882
18587TIP3    H277177   4.837   5.341  16.218  2.1628  1.7034 -1.1472
18588TIP3   OH277178   5.097   0.607  13.255 -0.4161 -0.2462  0.2652
18588TIP3    H177179   5.065   0.517  13.256  0.4016 -0.5340  1.1462
18588TIP3    H277180   5.034   0.653  13.199 -1.6789 -1.0451  0.9653
18589TIP3   OH277181   2.725   2.302   5.689  0.5440  0.2706 -0.8035
18589TIP3    H177182   2.643   2.348   5.670  0.9817  1.6793  0.5202
18589TIP3    H277183   2.794   2.366   5.671  1.1663  0.3054  1.3405
18590TIP3   OH277184   1.641   0.815  12.039  0.4631  0.3699  0.2643
18590TIP3    H177185   1.669   0.895  11.994 -1.5626  1.5602  1.0154
18590TIP3    H277186   1.664   0.745  11.979  1.6190  1.5560 -0.7532
18591TIP3   OH277187   1.251   4.169  16.438 -0.1986 -0.0454  0.3048
18591TIP3    H177188   1.181   4.139  16.381  0.1469  0.2577 -0.2956
18591TIP3    H277189   1.299   4.233  16.385 -0.9544  1.6349  1.5506
18592TIP3   OH277190   3.710   3.607   5.184 -0.1376 -0.4933 -0.1969
18592TIP3    H177191   3.770   3.536   5.160  1.1747 -0.0939  1.6644
18592TIP3    H277192   3.760   3.660   5.247 -1.9176  0.7373  0.2473
18593TIP3   OH277193   0.933   6.575   1.780 -0.2367  0.0454 -0.3108
18593TIP3    H177194   0.930   6.621   1.696 -0.1445 -0.7713 -0.7669
18593TIP3    H277195   0.998   6.506   1.767  0.5207  0.5379  0.7559
18594TIP3   OH277196   3.647   3.778  14.374 -0.6036  0.1540 -0.6328
18594TIP3    H177197   3.706   3.748  14.305 -0.4847  1.8372 -1.3041
18594TIP3    H277198   3.701   3.834  14.430 -0.9669 -0.3147  0.2018
18595TIP3   OH277199   1.503   3.290   3.199  0.2884 -0.3001  0.4451
18595TIP3    H177200   1.545   3.281   3.113 -0.0763 -0.8596  0.3194
18595TIP3    H277201   1.574   3.314   3.258  0.4954  0.3787 -0.0656
18596TIP3   OH277202   1.395   4.342   4.346 -0.2019  0.3731  0.0039
18596TIP3    H177203   1.323   4.282   4.366  0.0230  0.6819  1.9423
18596TIP3    H277204   1.354   4.411   4.294 -1.2775  0.4221  0.8815
18597TIP3   OH277205   0.994   1.297  13.786  1.0241 -0.2999 -0.1175
18597TIP3    H177206   0.930   1.326  13.851  0.9321  0.8734 -0.7146
18597TIP3    H277207   1.008   1.373  13.730  2.8377 -0.5605 -0.0957
18598TIP3   OH277208   0.440   1.493  14.627  0.0105  0.3232 -0.2024
18598TIP3    H177209   0.508   1.479  14.693 -1.7914 -1.4294  1.4219
18598TIP3    H277210   0.360   1.461  14.668 -1.8588  2.3152 -2.0129
18599TIP3   OH277211   3.787   0.819   2.235  0.0194 -0.2647 -0.0937
18599TIP3    H177212   3.832   0.795   2.154 -0.0199 -0.1375 -0.1538
18599TIP3    H277213   3.826   0.763   2.302  0.9855  0.5544  0.0497
18600TIP3   OH277214   0.314   4.620   1.500  0.1392  0.3862 -0.1233
18600TIP3    H177215   0.328   4.535   1.542  0.7026  1.1415  1.2991
18600TIP3    H277216   0.219   4.627   1.492  0.0819 -0.3460 -0.2030
18601TIP3   OH277217   1.752   0.599  15.459  0.6938 -0.3475 -0.8017
18601TIP3    H177218   1.772   0.516  15.414 -0.2775 -1.6393  0.9937
18601TIP3    H277219   1.662   0.619  15.432 -0.1850 -1.5356  0.9664
18602TIP3   OH277220   3.520   2.764  16.519  0.1300  0.6743  0.3898
18602TIP3    H177221   3.608   2.773  16.483 -0.1756  0.9383 -0.3128
18602TIP3    H277222   3.468   2.732  16.446  0.3308 -3.1800  1.6968
18603TIP3   OH277223   5.902   4.246  14.633  0.1343 -0.6229 -1.1011
18603TIP3    H177224   5.966   4.229  14.702 -1.1165 -0.1326  0.2162
18603TIP3    H277225   5.910   4.171  14.574  1.9755 -0.5213 -1.0425
18604TIP3   OH277226   0.605   2.918  16.824 -0.2005 -0.3565  0.6402
18604TIP3    H177227   0.617   2.827  16.851  1.2103 -0.4108 -0.0605
18604TIP3    H277228   0.676   2.965  16.866  1.1048 -0.1866 -1.5684
18605TIP3   OH277229   3.089   6.618  13.049  0.0190  0.3413 -0.3124
18605TIP3    H177230   3.137   6.535  13.049  1.1153  0.9466 -0.5133
18605TIP3    H277231   3.044   6.619  12.965 -2.2952 -1.2672  0.7924
18606TIP3   OH277232   6.715   1.040   1.968  0.2487  0.2495 -0.4137
18606TIP3    H177233   6.795   0.992   1.948  0.0542  0.6300 -2.2583
18606TIP3    H277234   6.701   1.024   2.062  0.7980 -2.3334 -0.6922
18607TIP3   OH277235   1.934   0.053   0.567 -0.3078  0.4294  0.3456
18607TIP3    H177236   1.841   0.039   0.550  0.0765 -1.8657 -0.1649
18607TIP3    H277237   1.950   0.010   0.651  0.3391  0.6089  0.3208
18608TIP3   OH277238   0.234   0.985   4.064  0.1860  0.5322  0.3408
18608TIP3    H177239   0.158   0.933   4.090  1.3036 -0.7708  1.1060
18608TIP3    H277240   0.294   0.980   4.139  1.4265  0.7565 -0.6000
18609TIP3   OH277241   6.385   1.345   0.776 -0.0890  0.5871 -0.5711
18609TIP3    H177242   6.444   1.395   0.720 -0.6244  2.1771  0.2098
18609TIP3    H277243   6.331   1.412   0.820 -1.4972 -0.7284 -0.1972
18610TIP3   OH277244   3.773   2.795   0.233 -0.4056 -0.0766 -0.8381
18610TIP3    H177245   3.765   2.782   0.138 -2.6696  1.1874 -0.8918
18610TIP3    H277246   3.683   2.793   0.265  0.3451 -0.9724  1.3934
18611TIP3   OH277247   0.415   3.391  16.375  0.1839 -0.5938  0.2037
18611TIP3    H177248   0.438   3.364  16.464  1.0217  0.0579  0.1951
18611TIP3    H277249   0.327   3.356  16.361  0.3518 -1.3693  1.0030
18612TIP3   OH277250   1.381   4.118   1.947 -0.2349  0.5311 -0.5385
18612TIP3    H177251   1.350   4.208   1.931  0.8330  1.4576  2.0453
18612TIP3    H277252   1.303   4.064   1.937 -1.1618  1.8821 -1.0138
18613TIP3   OH277253   3.141   3.374   4.674 -0.3680 -0.3421 -0.9513
18613TIP3    H177254   3.222   3.346   4.631 -0.4479 -1.4423 -0.4120
18613TIP3    H277255   3.162   3.375   4.767 -0.8882 -0.3214 -0.8316
18614TIP3   OH277256   5.545   1.139   4.382  0.0144  0.4276 -0.3356
18614TIP3    H177257   5.562   1.167   4.472 -0.1170  1.5814 -0.6482
18614TIP3    H277258   5.470   1.080   4.389  1.6166 -1.6359  0.6037
18615TIP3   OH277259   1.623   1.024  14.392  0.2105  0.3037  0.0968
18615TIP3    H177260   1.535   0.998  14.366  0.1202 -0.3581  1.0298
18615TIP3    H277261   1.637   1.109  14.350  0.5518 -1.2189 -3.1844
18616TIP3   OH277262   3.002   0.341   6.206 -0.7368 -0.1066 -1.1833
18616TIP3    H177263   2.923   0.378   6.244 -0.6159 -0.5307 -0.4953
18616TIP3    H277264   2.977   0.252   6.179 -0.1629 -0.7378  0.2751
18617TIP3   OH277265   2.001   4.045   0.142  0.0609 -0.1555  0.1091
18617TIP3    H177266   2.072   4.097   0.105  0.3584  0.6126  1.6630
18617TIP3    H277267   1.928   4.056   0.081  0.2218  1.8427  0.1980
18618TIP3   OH277268   0.479   0.140  16.981 -0.0355  0.0560  0.0107
18618TIP3    H177269   0.566   0.151  16.943 -0.0189  1.6204  0.4544
18618TIP3    H277270   0.426   0.102  16.911  0.7515  0.0481 -0.5873
18619TIP3   OH277271   6.084   0.156  15.412 -0.4067  0.3527  1.2751
18619TIP3    H177272   6.136   0.184  15.487  1.0422  0.6159  0.2409
18619TIP3    H277273   6.066   0.238  15.364  2.1639 -0.1022 -0.7276
18620TIP3   OH277274   1.698   0.482   5.236  0.2445  0.1146  0.3250
18620TIP3    H177275   1.643   0.560   5.247  2.8985  1.9754  1.4343
18620TIP3    H277276   1.748   0.500   5.156  0.7609 -0.5299  0.5008
18621TIP3   OH277277   0.118   4.029  15.864  0.2418  0.5731  0.4362
18621TIP3    H177278   0.086   4.078  15.788 -1.2472  0.3018  0.8523
18621TIP3    H277279   0.207   4.004  15.840 -0.1780  0.5116 -1.2168
18622TIP3   OH277280   2.418   3.281   6.227 -0.7037  0.2221 -0.5280
18622TIP3    H177281   2.449   3.190   6.227 -0.8946  0.1557 -1.1377
18622TIP3    H277282   2.486   3.329   6.274 -0.5397 -0.2153 -0.3065
18623TIP3   OH277283   5.493   4.589  12.397 -0.4640 -0.1558  0.1183
18623TIP3    H177284   5.446   4.617  12.319 -0.5816 -1.3812 -0.2724
18623TIP3    H277285   5.583   4.575  12.367 -0.0803  1.0739  0.6118
18624TIP3   OH277286   3.259   6.646   4.211 -0.2967 -0.0182  0.0362
18624TIP3    H177287   3.217   6.642   4.125  0.0588  0.0505 -0.1456
18624TIP3    H277288   3.272   6.554   4.236 -1.9218 -0.0642  0.7863
18625TIP3   OH277289   0.793   3.235   0.619 -0.4188  0.2007  0.2562
18625TIP3    H177290   0.750   3.237   0.534  1.0812 -0.6583 -0.5747
18625TIP3    H277291   0.800   3.141   0.640 -0.8389  0.4024  1.3686
18626TIP3   OH277292   1.953   0.181   5.410  0.0480 -0.0442 -0.3524
18626TIP3    H177293   1.868   0.183   5.365 -0.8348 -2.4008  1.0251
18626TIP3    H277294   1.984   0.091   5.399  2.0040  0.5454 -0.1019
18627TIP3   OH277295   4.026   3.217   1.167 -0.5569 -0.4875  0.1462
18627TIP3    H177296   3.961   3.155   1.133  0.1158 -3.5946  3.8000
18627TIP3    H277297   4.108   3.168   1.169  0.6296  1.4129  0.8437
18628TIP3   OH277298   0.881   2.219  15.023 -0.0602 -0.1383 -0.3069
18628TIP3    H177299   0.949   2.276  14.986 -0.1234  0.9528  1.1888
18628TIP3    H277300   0.880   2.239  15.116 -1.0380 -1.6336  0.0385
18629TIP3   OH277301   5.269   3.725  11.771 -0.1970  0.0735  0.0399
18629TIP3    H177302   5.266   3.656  11.838  0.4717  0.9105  0.9692
18629TIP3    H277303   5.204   3.789  11.799  1.7357  1.6162  1.3136
18630TIP3   OH277304   5.650   1.137   0.567  1.0777 -0.3100  0.1494
18630TIP3    H177305   5.701   1.071   0.520  0.4830 -0.6950  0.0331
18630TIP3    H277306   5.595   1.087   0.627  0.6618  0.0810  0.0993
18631TIP3   OH277307   3.476   6.744  14.117  0.0864  0.7408  0.4627
18631TIP3    H177308   3.523   6.782  14.043 -0.3833  1.5773  0.5819
18631TIP3    H277309   3.400   6.801  14.130 -0.4149 -0.0091  0.9159
18632TIP3   OH277310   2.455   3.654   2.032  0.0173  0.3289 -0.5560
18632TIP3    H177311   2.430   3.736   2.075 -1.8357 -0.5144  0.1120
18632TIP3    H277312   2.371   3.615   2.005  0.8649 -1.2179 -1.0851
18633TIP3   OH277313   2.836   3.512  11.030 -0.1074  0.7284 -0.1815
18633TIP3    H177314   2.745   3.508  11.060 -0.2536  1.5015 -0.4982
18633TIP3    H277315   2.841   3.447  10.960 -0.3536  0.5260 -0.0131
18634TIP3   OH277316   1.387   5.818   3.351 -0.1231  0.2977  0.0980
18634TIP3    H177317   1.380   5.861   3.436 -0.9536  1.1807 -0.4027
18634TIP3    H277318   1.334   5.739   3.359  2.7960 -1.6902  1.6011
18635TIP3   OH277319   4.113   5.932   5.690 -0.6802 -0.1700 -0.4395
18635TIP3    H177320   4.043   5.867   5.691 -1.4410  0.5741 -1.6775
18635TIP3    H277321   4.071   6.014   5.716 -0.1508  0.1903 -0.6849
18636TIP3   OH277322   1.444   2.077  13.168 -0.2182  0.3135 -0.2655
18636TIP3    H177323   1.383   2.058  13.239  3.1093 -2.2170  2.2334
18636TIP3    H277324   1.410   2.025  13.094 -0.3218 -2.4158  1.5464
18637TIP3   OH277325   5.836   3.713  16.872  0.7989  0.3633 -0.3193
18637TIP3    H177326   5.806   3.682  16.787 -0.1295 -2.6773  0.9858
18637TIP3    H277327   5.931   3.722  16.863  0.6446  0.6844 -1.7950
18638TIP3   OH277328   2.320   4.532  12.167  0.6700  0.2547 -0.1690
18638TIP3    H177329   2.291   4.623  12.174 -0.0219  0.0136  0.2231
18638TIP3    H277330   2.240   4.481  12.181  1.4264 -0.4655  1.7724
18639TIP3   OH277331   1.479   3.227  16.271  0.1287  0.6853 -0.0130
18639TIP3    H177332   1.497   3.269  16.187 -1.8735  1.8900  0.0839
18639TIP3    H277333   1.552   3.254  16.327  1.7510 -0.5309 -1.4294
18640TIP3   OH277334   0.032   3.282  15.617  0.1125  0.1966 -0.0322
18640TIP3    H177335   0.027   3.374  15.644  0.5890  0.8298 -1.9506
18640TIP3    H277336   0.079   3.239  15.689 -0.0148  1.4605  0.8499
18641TIP3   OH277337   1.271   2.262  13.576 -0.1154  0.5695  0.3593
18641TIP3    H177338   1.234   2.323  13.512 -0.5682 -0.2316 -0.1544
18641TIP3    H277339   1.246   2.299  13.661  2.2516  2.8098  0.2362
18642TIP3   OH277340   6.058   0.276  14.254  0.2091 -0.0172 -0.3288
18642TIP3    H177341   6.061   0.355  14.308 -0.0501  1.5403 -2.4270
18642TIP3    H277342   6.006   0.214  14.304 -2.0448  2.1580  0.2207
18643TIP3   OH277343   1.332   1.603   1.433 -1.0095 -0.1452  0.3993
18643TIP3    H177344   1.274   1.594   1.358 -0.8043 -0.7337  0.3077
18643TIP3    H277345   1.277   1.585   1.509 -0.4161 -3.3683  0.1870
18644TIP3   OH277346   0.378   6.731  14.326 -0.6730  0.1516  0.2161
18644TIP3    H177347   0.455   6.787  14.335 -1.4283  0.9703  2.2130
18644TIP3    H277348   0.379   6.676  14.404 -2.6516  0.9442  0.8686
18645TIP3   OH277349   2.401   4.648   2.503  0.3862 -0.0930 -0.4001
18645TIP3    H177350   2.424   4.618   2.591  1.9247 -1.2121 -1.1407
18645TIP3    H277351   2.381   4.741   2.514 -0.6285 -0.4658  1.3128
18646TIP3   OH277352   5.996   5.352   0.864 -0.2292 -0.0175 -0.3186
18646TIP3    H177353   6.025   5.263   0.882 -1.0413 -0.1976  0.1615
18646TIP3    H277354   5.908   5.357   0.902 -0.7332  0.5689 -1.4992
18647TIP3   OH277355   4.282   0.063  17.341  0.1314 -0.8432  0.2271
18647TIP3    H177356   4.216   0.131  17.354  0.2971 -0.5261 -0.5539
18647TIP3    H277357   4.361   0.097  17.383 -0.2912 -1.3966  1.5142
18648TIP3   OH277358   4.671   4.172   1.263  0.7058 -0.0540 -0.1369
18648TIP3    H177359   4.583   4.197   1.290  0.3131 -0.6439 -0.8433
18648TIP3    H277360   4.716   4.150   1.345 -0.1964 -0.9837  0.1274
18649TIP3   OH277361   2.711   3.484  13.154  0.1062  0.0915 -0.0195
18649TIP3    H177362   2.664   3.488  13.237 -0.2223  0.2591 -0.2116
18649TIP3    H277363   2.750   3.571  13.145  0.2931  0.0152  0.0452
18650TIP3   OH277364   2.924   5.709   0.084  0.4449 -0.2044  0.0162
18650TIP3    H177365   2.892   5.628   0.045  0.2913  0.2082 -0.7351
18650TIP3    H277366   2.848   5.745   0.130 -0.4365  1.0832 -2.2732
18651TIP3   OH277367   5.784   0.677   2.564 -0.5940 -0.2437 -0.1766
18651TIP3    H177368   5.874   0.673   2.597 -0.4434  0.8573 -0.4054
18651TIP3    H277369   5.779   0.762   2.520 -1.4984 -0.6620 -0.8998
18652TIP3   OH277370   2.835   6.564   2.826  0.5572 -0.2217  0.3222
18652TIP3    H177371   2.761   6.589   2.771 -0.1857 -1.1239  0.8657
18652TIP3    H277372   2.882   6.499   2.774  1.2548  0.6930 -0.2143
18653TIP3   OH277373   4.501   4.952  17.361 -0.1056  0.3993 -0.1719
18653TIP3    H177374   4.523   4.861  17.384 -0.1448  0.6271  0.8014
18653TIP3    H277375   4.566   5.004  17.408 -0.6237  0.9150 -0.0197
18654TIP3   OH277376   0.606   3.241  12.350  0.0549 -0.3599  0.2731
18654TIP3    H177377   0.692   3.263  12.385  1.2542 -0.2914 -2.5376
18654TIP3    H277378   0.623   3.195  12.268 -2.5803  0.1244 -0.6688
18655TIP3   OH277379   3.609   2.594  13.612 -0.1039  0.2579 -0.4396
18655TIP3    H177380   3.522   2.569  13.642 -0.5790 -0.2743 -2.1318
18655TIP3    H277381   3.622   2.682  13.649  0.2813 -1.0934  2.9741
18656TIP3   OH277382   6.709   1.805  13.013 -0.1202 -0.2668  0.4882
18656TIP3    H177383   6.633   1.828  12.959  0.8999 -0.0454 -0.8830
18656TIP3    H277384   6.761   1.885  13.016  0.0585 -0.4055  1.4640
18657TIP3   OH277385   2.885   2.485  14.027 -0.5556  0.1340 -0.7412
18657TIP3    H177386   2.909   2.450  14.113 -3.0678 -2.8529 -1.0867
18657TIP3    H277387   2.790   2.474  14.022 -0.6462  1.3092 -3.4816
18658TIP3   OH277388   4.425   4.303   1.686 -0.1283  0.0258  0.4537
18658TIP3    H177389   4.419   4.396   1.704  0.0214  0.3006 -0.7843
18658TIP3    H277390   4.507   4.293   1.638 -0.1406 -0.7363  0.5760
18659TIP3   OH277391   1.116   0.620   3.266 -0.1159  0.2243 -0.4480
18659TIP3    H177392   1.159   0.669   3.336  1.4578  0.2650 -1.3985
18659TIP3    H277393   1.037   0.671   3.246 -0.3268  0.4627  0.9485
18660TIP3   OH277394   5.493   0.638  13.849  0.3759  0.8490 -0.1551
18660TIP3    H177395   5.569   0.604  13.803  0.9782 -0.5879  1.7901
18660TIP3    H277396   5.420   0.584  13.819  0.6529  0.3206  0.1178
18661TIP3   OH277397   4.376   5.351  11.017 -0.3368  0.0529 -0.0000
18661TIP3    H177398   4.360   5.403  10.938  2.5156 -0.1703 -0.8213
18661TIP3    H277399   4.304   5.288  11.019 -0.2538 -0.2624 -2.7303
18662TIP3   OH277400   0.815   0.796  14.000 -0.8066 -0.4606  0.8012
18662TIP3    H177401   0.904   0.779  13.969 -1.4548 -2.0945 -0.2941
18662TIP3    H277402   0.820   0.783  14.095 -0.1845 -2.1704  0.5713
18663TIP3   OH277403   2.257   3.758  13.104  0.0759  0.0939 -0.1768
18663TIP3    H177404   2.176   3.717  13.133 -0.6911  0.4350 -1.7131
18663TIP3    H277405   2.274   3.827  13.168  0.9082 -1.9555  1.9519
18664TIP3   OH277406   5.059   3.285   0.856 -0.0343 -0.2078  0.6255
18664TIP3    H177407   5.050   3.264   0.763  1.6198 -0.0553  0.3890
18664TIP3    H277408   5.154   3.281   0.872 -0.3338 -1.2402  2.5427
18665TIP3   OH277409   3.071   3.399  16.616 -0.6219 -0.8618  0.4292
18665TIP3    H177410   3.058   3.436  16.704 -3.1646  2.1104 -1.0036
18665TIP3    H277411   3.090   3.475  16.561  1.3612 -2.6952 -1.6225
18666TIP3   OH277412   4.118   2.673  15.979  0.4893 -0.1007  0.6699
18666TIP3    H177413   4.109   2.580  15.959 -0.4160  0.2114 -0.5075
18666TIP3    H277414   4.029   2.708  15.969  1.1402  1.2552 -0.9485
18667TIP3   OH277415   0.520   4.383  11.554 -0.2846 -0.0432 -0.0622
18667TIP3    H177416   0.472   4.465  11.565 -1.2221 -0.5349 -0.4013
18667TIP3    H277417   0.567   4.371  11.637  0.5314  1.2479 -0.3096
18668TIP3   OH277418   0.930   6.701   1.536 -0.5466  0.1551 -1.1800
18668TIP3    H177419   1.000   6.667   1.479 -0.4772  1.1927 -1.7355
18668TIP3    H277420   0.939   6.796   1.531 -0.0525  0.2778  1.2013
18669TIP3   OH277421   2.452   5.602  15.536 -0.1226 -0.7519 -0.4695
18669TIP3    H177422   2.502   5.574  15.460 -0.2371 -0.0753 -0.8050
18669TIP3    H277423   2.478   5.694  15.549 -0.3086 -0.7795  0.1397
18670TIP3   OH277424   4.623   0.283   4.669  0.2757  0.1042  0.3326
18670TIP3    H177425   4.695   0.242   4.716  0.2817  0.2407  0.4456
18670TIP3    H277426   4.607   0.226   4.594  1.7273  1.0056 -0.7389
18671TIP3   OH277427   3.104   1.380  17.319 -0.2046 -0.5670 -0.2786
18671TIP3    H177428   3.103   1.368  17.414  0.5554 -2.5797 -0.4766
18671TIP3    H277429   3.072   1.469  17.305 -1.6367 -0.7018  1.7908
18672TIP3   OH277430   5.041   1.631   1.247  0.1856 -0.4529 -0.2799
18672TIP3    H177431   5.024   1.549   1.294 -0.0428 -0.2688 -0.0352
18672TIP3    H277432   5.031   1.608   1.155 -0.2743 -0.6149 -0.1949
18673TIP3   OH277433   5.731   3.264  13.230  0.3059  0.2523  0.3936
18673TIP3    H177434   5.781   3.202  13.178 -0.6634 -0.1013 -0.1284
18673TIP3    H277435   5.717   3.339  13.172  0.0682  0.2719  0.4735
18674TIP3   OH277436   4.393   6.581  11.523  0.2126  0.0161  0.3258
18674TIP3    H177437   4.335   6.507  11.503 -0.0932  0.6589 -1.2946
18674TIP3    H277438   4.469   6.568  11.467 -0.2186  1.3448 -0.6247
18675TIP3   OH277439   1.036   0.583  16.517 -0.2819 -0.2264 -0.0065
18675TIP3    H177440   0.945   0.614  16.520 -0.2041 -0.0884  1.2648
18675TIP3    H277441   1.032   0.495  16.554  0.0399 -0.3873 -0.3529
18676TIP3   OH277442   0.521   1.213   3.584  0.0998  0.0911  0.3082
18676TIP3    H177443   0.603   1.170   3.560 -0.0752 -0.5673  0.8323
18676TIP3    H277444   0.544   1.305   3.597  0.5643  0.0954 -0.4611
18677TIP3   OH277445   1.837   2.176  17.169  0.1963 -0.1736 -0.0504
18677TIP3    H177446   1.817   2.254  17.221 -1.3007  0.5332 -1.5706
18677TIP3    H277447   1.922   2.148  17.200  0.3810  1.5514  1.1729
18678TIP3   OH277448   4.688   3.441   6.413 -0.9385 -0.3692 -0.0737
18678TIP3    H177449   4.715   3.527   6.443 -1.9454  0.2881 -0.9764
18678TIP3    H277450   4.742   3.380   6.463  3.0804  0.7978 -2.5120
18679TIP3   OH277451   2.116   2.629   0.675 -0.4173 -0.0201 -0.3548
18679TIP3    H177452   2.171   2.559   0.711 -1.7332 -0.4864  0.8302
18679TIP3    H277453   2.167   2.709   0.688 -0.7675 -0.1532  2.5821
18680TIP3   OH277454   1.123   3.694  10.910  0.0415  0.3434  0.3792
18680TIP3    H177455   1.209   3.701  10.869 -0.1833  1.6543  0.0941
18680TIP3    H277456   1.138   3.724  11.000  0.5406 -2.5462  1.3564
18681TIP3   OH277457   4.387   2.767  11.665 -0.1438  0.4503 -0.0632
18681TIP3    H177458   4.346   2.851  11.642  1.1179  0.9576 -0.5540
18681TIP3    H277459   4.470   2.791  11.706 -0.9169 -0.5164  2.2549
18682TIP3   OH277460   1.508   4.051  14.121  0.2065 -0.0165  0.8872
18682TIP3    H177461   1.450   4.014  14.055 -0.2240 -0.3550  1.4544
18682TIP3    H277462   1.594   4.016  14.100 -0.3958 -2.4480  2.2075
18683TIP3   OH277463   0.591   3.180   3.751 -0.3210  0.1087  0.1081
18683TIP3    H177464   0.617   3.171   3.659 -1.4666  4.6441 -0.8979
18683TIP3    H277465   0.508   3.134   3.757 -0.2727 -0.1807 -1.1260
18684TIP3   OH277466   1.407   3.158   2.015  0.5045 -0.7498  0.0243
18684TIP3    H177467   1.327   3.165   2.067  0.4506  1.0733 -0.2494
18684TIP3    H277468   1.384   3.098   1.944 -1.6483  1.9808 -1.7742
18685TIP3   OH277469   4.345   5.469  14.979 -0.0044 -0.5668 -0.6195
18685TIP3    H177470   4.325   5.475  14.886  0.4714  0.8786 -0.6540
18685TIP3    H277471   4.276   5.520  15.022  0.8339  0.3850 -0.3577
18686TIP3   OH277472   4.093   5.228   1.175  0.0237  0.1729 -0.5749
18686TIP3    H177473   4.031   5.243   1.104  1.9590  0.6471 -2.2677
18686TIP3    H277474   4.071   5.293   1.241  0.4617  2.3049 -2.3937
18687TIP3   OH277475   2.036   3.688  10.888 -0.4582 -0.2590  0.4475
18687TIP3    H177476   2.022   3.768  10.940  2.5731 -0.2575  1.4396
18687TIP3    H277477   2.058   3.720  10.801 -1.9446 -0.1540  0.0792
18688TIP3   OH277478   1.019   4.712   2.115  0.4077 -0.5270 -0.2836
18688TIP3    H177479   1.098   4.753   2.080  0.8209  0.4736  1.6790
18688TIP3    H277480   0.977   4.781   2.166  0.2456 -2.0489  1.7707
18689TIP3   OH277481   2.684   4.449  12.581  0.3889 -0.2853 -0.3884
18689TIP3    H177482   2.653   4.366  12.546 -0.4133  0.0429 -0.4740
18689TIP3    H277483   2.780   4.442  12.578  0.3388 -0.7047 -1.5696
18690TIP3   OH277484   3.757   6.105  13.111 -0.5082  0.1151 -0.1620
18690TIP3    H177485   3.696   6.165  13.068  0.4847  0.4141 -1.2024
18690TIP3    H277486   3.769   6.141  13.199 -3.4977 -1.1543  0.9413
18691TIP3   OH277487   6.675   2.765  17.290  0.2902 -0.4927 -0.3795
18691TIP3    H177488   6.598   2.814  17.260 -0.0660 -0.7536  0.1061
18691TIP3    H277489   6.648   2.673  17.284  0.1645 -0.5435  0.8757
18692TIP3   OH277490   1.025   3.623   2.846 -0.0196 -0.2175 -0.0752
18692TIP3    H177491   0.934   3.599   2.868  0.0955  0.0858  0.7556
18692TIP3    H277492   1.066   3.539   2.823 -0.5861 -0.3172 -0.7716
18693TIP3   OH277493   1.976   0.550  17.275 -0.2888  0.0607 -0.0128
18693TIP3    H177494   2.014   0.469  17.311 -0.6020  1.0675  2.8513
18693TIP3    H277495   1.883   0.543  17.296 -0.7575  0.1632 -1.8892
18694TIP3   OH277496   5.697   5.412  15.543  0.0869  0.0646 -0.1157
18694TIP3    H177497   5.651   5.496  15.547 -0.6785 -0.3624  0.3236
18694TIP3    H277498   5.785   5.434  15.513 -0.6386  0.8077 -1.7981
18695TIP3   OH277499   1.263   0.742   0.812  0.3038  0.4023  0.5678
18695TIP3    H177500   1.168   0.738   0.826  0.2941  0.0145  0.3969
18695TIP3    H277501   1.297   0.781   0.892 -0.1325  1.8095  0.0959
18696TIP3   OH277502   0.676   1.659   1.424 -0.3957  0.2695 -0.8668
18696TIP3    H177503   0.654   1.592   1.360 -1.4248  2.7102 -3.2961
18696TIP3    H277504   0.771   1.655   1.431 -0.4082 -1.1896 -1.2248
18697TIP3   OH277505   4.782   3.144   4.367 -0.7023  0.0600 -0.0155
18697TIP3    H177506   4.861   3.101   4.399 -0.7018 -0.1547 -0.3052
18697TIP3    H277507   4.723   3.073   4.343 -0.8406  0.2189 -0.1493
18698TIP3   OH277508   3.112   6.572  15.663  0.8240  0.1736 -0.3118
18698TIP3    H177509   3.105   6.507  15.593  0.5499  1.1449 -1.2143
18698TIP3    H277510   3.044   6.548  15.725  0.0771  0.1643 -1.1222
18699TIP3   OH277511   3.736   4.624  13.000  0.0558  0.0287 -0.4024
18699TIP3    H177512   3.682   4.604  12.924 -2.1045 -1.5847  1.4023
18699TIP3    H277513   3.790   4.546  13.013  1.1181  0.6776 -0.7884
18700TIP3   OH277514   0.815   5.010  14.679  0.0400 -0.3306  0.3699
18700TIP3    H177515   0.845   4.920  14.665  1.6119  0.6227 -3.9516
18700TIP3    H277516   0.896   5.061  14.690 -0.4759  1.0611 -1.7487
18701TIP3   OH277517   5.652   6.409   5.426  0.0000  0.2169 -0.8118
18701TIP3    H177518   5.739   6.433   5.458  0.4454 -1.5631 -0.5617
18701TIP3    H277519   5.665   6.325   5.382 -1.3748  0.5571 -1.9453
18702TIP3   OH277520   6.188   2.173  11.807  0.2182  0.0439  0.2899
18702TIP3    H177521   6.135   2.170  11.727  1.0294  1.6746 -0.3601
18702TIP3    H277522   6.155   2.101  11.861 -0.7887 -0.6857 -1.2347
18703TIP3   OH277523   3.942   0.769   2.783 -0.2010 -0.7064 -0.2021
18703TIP3    H177524   3.905   0.684   2.805  1.4034 -1.3390  0.1542
18703TIP3    H277525   4.028   0.749   2.747  0.2505  0.7785  0.0016
18704TIP3   OH277526   5.065   2.177  11.637 -0.7760  0.0341 -0.6936
18704TIP3    H177527   4.993   2.140  11.585 -1.6159  0.3762  0.1822
18704TIP3    H277528   5.140   2.121  11.618 -1.0604  0.1318 -2.2255
18705TIP3   OH277529   6.254   1.191   3.259 -0.0125 -0.5863 -0.7320
18705TIP3    H177530   6.196   1.186   3.335  0.2328  0.9607 -0.4136
18705TIP3    H277531   6.342   1.198   3.296  0.1585 -0.4011 -1.1672
18706TIP3   OH277532   1.434   4.048   1.591  0.7664 -0.7848 -0.2088
18706TIP3    H177533   1.459   4.110   1.523 -1.0245  0.3166  0.0841
18706TIP3    H277534   1.375   4.096   1.648  0.5915 -2.2934  0.9642
18707TIP3   OH277535   0.567   1.267   3.031 -0.0061 -0.2017  0.6707
18707TIP3    H177536   0.612   1.350   3.048 -0.0591 -0.1447  0.5318
18707TIP3    H277537   0.508   1.286   2.958 -0.5509 -0.1704  1.1124
18708TIP3   OH277538   1.507   0.129   1.451  0.3939  0.0791  0.4680
18708TIP3    H177539   1.440   0.195   1.467  0.5055 -0.1125  1.8665
18708TIP3    H277540   1.476   0.080   1.376 -1.2036 -0.2305  1.3026
18709TIP3   OH277541   0.051   0.365  16.929 -0.5084  0.6097 -0.0033
18709TIP3    H177542   0.019   0.441  16.880 -1.6210  0.4518  0.4391
18709TIP3    H277543  -0.016   0.298  16.915  1.1062 -0.7512 -1.4604
18710TIP3   OH277544   1.182   3.877  15.806  0.1535 -0.3784 -0.3424
18710TIP3    H177545   1.177   3.858  15.712  2.3669 -0.4289 -0.5107
18710TIP3    H277546   1.266   3.923  15.816  0.9375 -2.1381  1.8747
18711TIP3   OH277547   4.330   2.515  15.031  0.2012  0.1049  0.2894
18711TIP3    H177548   4.398   2.526  15.097  0.1934  1.3319  0.1211
18711TIP3    H277549   4.298   2.604  15.015  2.3745  0.4043 -3.7086
18712TIP3   OH277550   0.725   6.284   0.301  0.1990  0.3554  0.2963
18712TIP3    H177551   0.797   6.236   0.343  1.3373  0.4773 -1.4115
18712TIP3    H277552   0.758   6.305   0.214 -1.4783  1.4921 -0.1123
18713TIP3   OH277553   5.490   1.826   3.963  0.2959  0.0128 -0.2166
18713TIP3    H177554   5.480   1.921   3.966 -2.1971 -0.1844  0.7995
18713TIP3    H277555   5.402   1.793   3.944  1.4029 -2.0784 -2.1696
18714TIP3   OH277556   2.745   4.648  13.689  0.3360  0.0885  0.1312
18714TIP3    H177557   2.784   4.600  13.615 -0.1590 -0.2075  0.0594
18714TIP3    H277558   2.784   4.607  13.766 -0.6255 -0.9358  0.0972
18715TIP3   OH277559   4.377   4.199  15.986  0.0834 -0.0939  0.3096
18715TIP3    H177560   4.470   4.222  15.979  0.0455  0.1643  0.6331
18715TIP3    H277561   4.367   4.167  16.075 -0.3822  1.0221  0.6744
18716TIP3   OH277562   5.990   2.182   2.911 -0.3983  0.2578  0.0675
18716TIP3    H177563   6.011   2.264   2.955 -1.4564 -0.1250  1.3436
18716TIP3    H277564   5.939   2.132   2.975 -0.9509 -0.8332 -1.1668
18717TIP3   OH277565   6.137   0.959   4.239 -0.0308  0.3179  0.1540
18717TIP3    H177566   6.081   0.904   4.293 -0.0544  0.9426  0.7780
18717TIP3    H277567   6.129   0.922   4.151 -1.0744  0.1426  0.3123
18718TIP3   OH277568   6.694   5.822   5.247 -0.1027 -0.0040 -0.3548
18718TIP3    H177569   6.723   5.868   5.325  0.2068  0.8037 -0.9351
18718TIP3    H277570   6.745   5.860   5.175  0.4792 -1.5348 -0.8122
18719TIP3   OH277571   6.555   0.094  17.174  0.8847  0.0654 -0.2322
18719TIP3    H177572   6.551   0.139  17.089 -0.2346 -3.0856 -2.0198
18719TIP3    H277573   6.645   0.061  17.178  1.6186  1.9963  0.9517
18720TIP3   OH277574   1.539   2.821   4.583  0.3677 -0.0859 -0.4586
18720TIP3    H177575   1.550   2.894   4.644 -2.4035  1.0942 -1.1855
18720TIP3    H277576   1.566   2.855   4.498  0.5869 -0.4323 -0.5293
18721TIP3   OH277577   0.780   0.440  15.611  0.2317 -0.6272  0.2949
18721TIP3    H177578   0.697   0.407  15.577  0.1075  1.0526 -1.1809
18721TIP3    H277579   0.846   0.407  15.550  0.1467  1.3462 -0.9705
18722TIP3   OH277580   0.734   0.746   1.579  0.0742  0.4895 -0.7013
18722TIP3    H177581   0.797   0.817   1.570 -0.5649  1.2123  0.2939
18722TIP3    H277582   0.716   0.741   1.673 -1.1840  0.1728 -0.9316
18723TIP3   OH277583   1.259   0.459   1.641 -0.1235 -0.5612 -0.2654
18723TIP3    H177584   1.297   0.409   1.569 -2.2960  0.0273 -1.9302
18723TIP3    H277585   1.167   0.433   1.642 -0.4841  0.6430  1.2803
18724TIP3   OH277586   4.578   0.122   4.430 -0.5987  0.3767  0.1656
18724TIP3    H177587   4.587   0.053   4.364 -0.9047  0.0503  0.4606
18724TIP3    H277588   4.612   0.200   4.387  2.2798 -0.4645  0.6932
18725TIP3   OH277589   3.325   6.654  15.897  0.4623  0.0040  0.1343
18725TIP3    H177590   3.406   6.681  15.854  1.1172 -0.5579  0.9775
18725TIP3    H277591   3.262   6.643  15.826  0.9809  0.9185 -0.4878
18726TIP3   OH277592   1.071   0.904   0.454 -0.1554  0.3052  0.0049
18726TIP3    H177593   1.073   0.843   0.380 -0.7987  0.2008  0.0679
18726TIP3    H277594   1.153   0.888   0.500  0.3589  0.5173 -0.8001
18727TIP3   OH277595   5.844   5.347   2.343 -0.2421  0.3915  0.6468
18727TIP3    H177596   5.837   5.303   2.428 -0.3363 -2.1836 -0.6275
18727TIP3    H277597   5.938   5.357   2.330 -0.0783 -1.9052 -0.2108
18728TIP3   OH277598   1.877   5.652   5.523 -0.3393 -0.8289 -0.1823
18728TIP3    H177599   1.807   5.716   5.512  0.9367  0.5516 -0.5526
18728TIP3    H277600   1.945   5.699   5.572  1.2408 -1.3851 -1.7336
18729TIP3   OH277601   1.827   1.785  11.618 -0.4124 -0.1439  0.1269
18729TIP3    H177602   1.900   1.843  11.596 -1.3629  0.7282 -0.9032
18729TIP3    H277603   1.764   1.800  11.548 -0.7324 -2.4073 -0.1246
18730TIP3   OH277604   4.174   6.602  14.603 -0.0630  0.4987  0.6927
18730TIP3    H177605   4.254   6.581  14.556 -1.2029 -0.7976 -0.7749
18730TIP3    H277606   4.170   6.539  14.675  0.3292  0.7206  0.9127
18731TIP3   OH277607   5.953   3.452  12.565  0.0860  0.4973  0.2938
18731TIP3    H177608   6.039   3.491  12.551  0.0499  0.6214  0.4140
18731TIP3    H277609   5.970   3.358  12.571 -0.1902  0.1101 -3.1652
18732TIP3   OH277610   5.610   1.340  12.583 -0.2366 -0.0864  0.2635
18732TIP3    H177611   5.673   1.316  12.651 -0.2641  0.3369  0.4431
18732TIP3    H277612   5.658   1.330  12.501 -0.0170 -0.0243  0.3834
18733TIP3   OH277613   1.016   1.593  15.414  0.1916  0.0031 -0.5118
18733TIP3    H177614   1.053   1.586  15.502 -1.2556 -3.1797 -0.0334
18733TIP3    H277615   1.093   1.598  15.356  1.2431 -0.9186  0.7525
18734TIP3   OH277616   3.134   5.774   5.298  0.3121 -0.1331  0.6568
18734TIP3    H177617   3.115   5.741   5.210  0.3866  1.9796 -0.2055
18734TIP3    H277618   3.229   5.790   5.298 -0.0942  2.6339  0.0579
18735TIP3   OH277619   6.709   1.106  14.680  0.3301  0.2770  0.0933
18735TIP3    H177620   6.615   1.094  14.688  0.3480  0.6594  0.9840
18735TIP3    H277621   6.724   1.121  14.587 -0.4268 -0.2962 -0.1189
18736TIP3   OH277622   3.361   5.510  16.704  0.0816 -0.0276 -0.2900
18736TIP3    H177623   3.404   5.553  16.778  0.6817  0.2689 -0.7962
18736TIP3    H277624   3.270   5.541  16.708  0.3379  0.7478 -0.2356
18737TIP3   OH277625   1.177   1.522   2.929 -0.3238  0.2286  0.4108
18737TIP3    H177626   1.254   1.505   2.983 -0.6385 -0.0538  0.7804
18737TIP3    H277627   1.169   1.445   2.873 -0.6168  0.0338  0.7154
18738TIP3   OH277628   1.697   3.551   5.472  0.2821 -0.6828 -0.7196
18738TIP3    H177629   1.789   3.526   5.484  0.8960  1.1404 -1.3529
18738TIP3    H277630   1.699   3.612   5.398 -0.9983  1.7660  1.1280
18739TIP3   OH277631   1.242   6.433  15.313  0.0306 -0.4630 -0.1607
18739TIP3    H177632   1.216   6.393  15.396 -0.0574 -2.1023 -0.9409
18739TIP3    H277633   1.322   6.386  15.288  1.3251  1.4931  0.0237
18740TIP3   OH277634   5.080   6.434  17.215  0.1631 -0.2940 -0.1085
18740TIP3    H177635   5.071   6.512  17.160  1.0254 -0.4307 -0.4563
18740TIP3    H277636   5.094   6.468  17.303 -1.4038 -0.0705  0.0938
18741TIP3   OH277637   5.755   0.088   1.727 -0.0054  0.4949  0.6084
18741TIP3    H177638   5.773   0.108   1.819 -0.4613  2.3965  0.3269
18741TIP3    H277639   5.840   0.061   1.691  0.4265  0.9183  1.3011
18742TIP3   OH277640   1.324   2.618   3.643  0.5939  0.1136  0.2814
18742TIP3    H177641   1.234   2.649   3.656  0.7426  0.7881 -0.2453
18742TIP3    H277642   1.353   2.593   3.731  0.1085  0.4990  0.5604
18743TIP3   OH277643   4.839   2.791  10.789  0.4000 -0.2160 -0.1107
18743TIP3    H177644   4.767   2.833  10.837  0.6658 -0.5985  0.6388
18743TIP3    H277645   4.862   2.854  10.721  1.4191  1.3359  1.5677
18744TIP3   OH277646   4.862   1.260  13.062 -0.7609 -0.0880  0.2324
18744TIP3    H177647   4.831   1.350  13.073 -0.6887 -0.1356  0.8881
18744TIP3    H277648   4.820   1.212  13.134 -3.0344 -1.1686 -1.6745
18745TIP3   OH277649   4.738   3.853  15.753 -0.0479  0.0046 -0.0855
18745TIP3    H177650   4.682   3.788  15.796 -3.5061  1.6933 -1.6425
18745TIP3    H277651   4.791   3.890  15.823 -1.0962 -1.5089  1.5763
18746TIP3   OH277652   5.137   1.278   2.921  0.3856  0.5136 -0.4169
18746TIP3    H177653   5.067   1.226   2.960 -0.8575  1.7216 -0.9565
18746TIP3    H277654   5.218   1.236   2.951 -0.5316 -1.7913 -0.9208
18747TIP3   OH277655   3.083   0.104   1.592  0.1310 -0.1532  0.3125
18747TIP3    H177656   3.028   0.070   1.663  0.3499 -1.7008 -0.2087
18747TIP3    H277657   3.106   0.026   1.540  1.2565  0.7185 -0.5610
18748TIP3   OH277658   1.954   0.054  11.394 -0.6917 -0.0271  0.0436
18748TIP3    H177659   1.937  -0.025  11.445  0.9893 -0.5062 -0.0787
18748TIP3    H277660   1.935   0.030  11.304 -3.1775  0.6713  0.3185
18749TIP3   OH277661   6.202   0.020  15.070  0.3085  0.5029 -0.1895
18749TIP3    H177662   6.225  -0.045  15.138  1.1178  3.4600  2.6057
18749TIP3    H277663   6.287   0.055  15.042 -0.1376  0.5959 -1.4882
18750TIP3   OH277664   0.198   4.217   2.222 -0.2711 -0.5214 -0.1151
18750TIP3    H177665   0.145   4.161   2.279 -1.1004 -0.9021 -1.2240
18750TIP3    H277666   0.275   4.164   2.201 -0.9366 -1.1842 -0.9627
18751TIP3   OH277667   4.421   2.506   4.261 -0.2777  0.3112  0.0346
18751TIP3    H177668   4.430   2.471   4.350 -0.9973  0.4925  0.1846
18751TIP3    H277669   4.333   2.482   4.235  1.1424 -3.2557 -2.1789
18752TIP3   OH277670   0.678   6.154  13.440  0.1813  0.2456 -0.9084
18752TIP3    H177671   0.620   6.108  13.379 -0.0691 -0.0555 -0.4556
18752TIP3    H277672   0.735   6.085  13.475  0.0262  0.3379 -0.4701
18753TIP3   OH277673   6.187   5.752  16.157 -0.2663  0.2589  0.6200
18753TIP3    H177674   6.270   5.774  16.115 -0.6784 -0.2948 -0.5606
18753TIP3    H277675   6.207   5.676  16.212  0.2316  0.8255  1.2339
18754TIP3   OH277676   0.950   5.744  10.677  0.0842  0.0528 -0.3683
18754TIP3    H177677   0.954   5.808  10.748 -0.9343 -0.0701 -0.1855
18754TIP3    H277678   1.040   5.737  10.646  0.3082  1.1642 -0.0301
18755TIP3   OH277679   2.634   1.024   0.553 -0.6697 -0.4498 -0.4403
18755TIP3    H177680   2.685   1.027   0.473 -1.0817  0.8612 -0.6745
18755TIP3    H277681   2.696   1.049   0.622 -0.4597 -1.0121 -0.4219
18756TIP3   OH277682   3.755   0.780   3.724  0.6354  0.0897 -0.2505
18756TIP3    H177683   3.833   0.835   3.716  1.5231 -1.3568 -2.7387
18756TIP3    H277684   3.739   0.748   3.635 -2.4074 -0.2397  0.3083
18757TIP3   OH277685   6.470   0.839   3.460  0.5797  0.2083  0.0644
18757TIP3    H177686   6.466   0.916   3.517 -1.6027 -0.0034  0.2626
18757TIP3    H277687   6.388   0.841   3.412  0.8640 -1.5593 -0.5464
18758TIP3   OH277688   6.125   5.383  15.943 -0.6839  0.7238 -0.4535
18758TIP3    H177689   6.178   5.460  15.921 -0.5389  0.4001 -1.3160
18758TIP3    H277690   6.149   5.319  15.875  0.7530 -0.8225  1.3933
18759TIP3   OH277691   3.524   5.778   4.420 -0.1389  0.6403 -0.8638
18759TIP3    H177692   3.584   5.838   4.377  0.0721  0.7169 -0.4645
18759TIP3    H277693   3.490   5.827   4.495 -0.2083  0.3734 -0.7177
18760TIP3   OH277694   0.892   2.584  11.320 -0.1912  0.2078  0.2114
18760TIP3    H177695   0.801   2.602  11.342  0.3169  0.1266  2.6150
18760TIP3    H277696   0.904   2.491  11.338  0.2222  0.0603 -0.7301
18761TIP3   OH277697   3.774   2.692   3.864 -0.0085  0.0510  0.0074
18761TIP3    H177698   3.836   2.713   3.933 -0.4183  1.6709 -0.0800
18761TIP3    H277699   3.827   2.690   3.784  0.2033 -0.2808  0.1520
18762TIP3   OH277700   6.121   0.005   4.501  0.0943  0.3707 -0.2482
18762TIP3    H177701   6.101   0.086   4.547  2.0933 -0.5255  2.4685
18762TIP3    H277702   6.085  -0.064   4.557  0.4095 -0.7166 -1.3426
18763TIP3   OH277703   1.865   1.381   6.036 -0.2611 -0.5439  0.0692
18763TIP3    H177704   1.799   1.442   6.002 -0.4485 -0.2518  0.9418
18763TIP3    H277705   1.947   1.430   6.032 -0.2886 -0.4964  0.0897
18764TIP3   OH277706   6.230   4.125  12.249 -0.1590  0.3031  0.1738
18764TIP3    H177707   6.311   4.133  12.299 -1.5341  0.6089  2.4821
18764TIP3    H277708   6.204   4.215  12.229 -0.4027  0.2501  0.2422
18765TIP3   OH277709   4.474   5.877   1.798  0.3267 -0.7825 -0.2587
18765TIP3    H177710   4.462   5.891   1.704 -1.1342  0.8280  0.1121
18765TIP3    H277711   4.479   5.782   1.808 -0.0228 -0.9977 -1.9081
18766TIP3   OH277712   6.729   2.737   0.971 -0.5029 -0.0859 -0.2827
18766TIP3    H177713   6.807   2.712   1.020  0.2999  1.1825 -0.8692
18766TIP3    H277714   6.666   2.763   1.038  0.1546  0.4574  0.1374
18767TIP3   OH277715   1.299   6.159   0.004  0.9983 -0.3487 -0.8339
18767TIP3    H177716   1.235   6.088  -0.006 -0.8960  1.0010  0.8100
18767TIP3    H277717   1.307   6.196  -0.084 -1.9322  0.5009 -0.8766
18768TIP3   OH277718   6.407   3.735   1.974 -0.2999  0.0921  0.0632
18768TIP3    H177719   6.470   3.668   1.948 -1.4859 -2.1604  2.5048
18768TIP3    H277720   6.323   3.702   1.944 -0.7627  1.2819 -0.0143
18769TIP3   OH277721   3.145   4.688  13.623  0.5427 -0.4803 -0.4643
18769TIP3    H177722   3.194   4.743  13.562  0.7788  0.6579  0.6899
18769TIP3    H277723   3.100   4.751  13.680 -0.2094 -1.5063  0.0905
18770TIP3   OH277724   5.190   5.071   3.860  0.4858 -0.2365 -0.0727
18770TIP3    H177725   5.159   5.153   3.899 -0.9892 -1.3510  1.2455
18770TIP3    H277726   5.145   5.065   3.776  3.3354  1.9634 -1.9503
18771TIP3   OH277727   0.966   3.681   1.791  0.0510 -0.2559 -0.7015
18771TIP3    H177728   0.872   3.690   1.807 -0.1744 -0.3718 -1.8705
18771TIP3    H277729   1.004   3.670   1.878 -1.0934 -0.8838 -0.2533
18772TIP3   OH277730   0.260   4.170   0.330 -0.1289  0.1334 -0.0329
18772TIP3    H177731   0.331   4.117   0.367 -2.7004 -3.7959 -0.1375
18772TIP3    H277732   0.285   4.183   0.239  1.0155 -0.0225  0.2375
18773TIP3   OH277733   4.844   2.892   2.444  0.1401 -0.5672  0.1264
18773TIP3    H177734   4.874   2.863   2.530 -1.6865  0.0485  1.0258
18773TIP3    H277735   4.755   2.925   2.459 -0.9362 -2.0470 -2.2824
18774TIP3   OH277736   6.002   3.405   1.703 -0.2522 -0.2829 -0.1718
18774TIP3    H177737   5.969   3.440   1.785 -1.4111  0.6772 -1.0295
18774TIP3    H277738   5.987   3.310   1.710 -0.0937 -0.2489  0.8069
18775TIP3   OH277739   2.781   1.967   2.617  0.3151 -0.3544  0.2961
18775TIP3    H177740   2.791   1.874   2.634 -1.1055 -0.6564 -0.3544
18775TIP3    H277741   2.689   1.977   2.593  0.6917  1.0397 -0.6961
18776TIP3   OH277742   0.298   0.549   2.617 -0.2642  0.5956 -0.0535
18776TIP3    H177743   0.283   0.613   2.687  2.2783  2.4664 -1.0612
18776TIP3    H277744   0.228   0.565   2.554 -1.2008  0.4904  0.9155
18777TIP3   OH277745   3.995   2.348   0.361  0.4511  0.0759  0.0784
18777TIP3    H177746   3.925   2.283   0.369 -0.8671  1.6139  1.8208
18777TIP3    H277747   3.950   2.431   0.349  1.8478  1.3190  2.5438
18778TIP3   OH277748   3.101   5.010   1.272  0.4042  0.0489 -0.1250
18778TIP3    H177749   3.147   5.020   1.189 -1.6752  0.5311 -1.3038
18778TIP3    H277750   3.028   4.952   1.252 -0.8715  1.1899  1.0160
18779TIP3   OH277751   2.126   4.796   5.819  0.0158 -0.3374 -1.1197
18779TIP3    H177752   2.072   4.808   5.742 -1.0170 -0.4452 -0.4398
18779TIP3    H277753   2.081   4.844   5.889  0.1762 -1.3582 -0.2744
18780TIP3   OH277754   5.753   2.790   4.721 -0.0735  0.1290  0.3885
18780TIP3    H177755   5.672   2.747   4.748 -0.0052  0.0929  0.5389
18780TIP3    H277756   5.800   2.724   4.671 -1.0194  0.7573 -1.4183
18781TIP3   OH277757   4.993   5.693  13.386  0.1411  0.3465  0.0784
18781TIP3    H177758   4.964   5.608  13.355  1.2371  0.3415 -0.9973
18781TIP3    H277759   4.941   5.757  13.337  0.3641  0.3088 -0.2098
18782TIP3   OH277760   4.204   2.144  14.001  0.0717 -0.3766  0.3707
18782TIP3    H177761   4.266   2.086  14.046  2.5952  0.2681 -1.9889
18782TIP3    H277762   4.159   2.087  13.938  0.1000 -0.3730  0.3471
18783TIP3   OH277763   1.487   3.192   0.220  0.3892 -0.7172  0.0789
18783TIP3    H177764   1.574   3.188   0.260 -0.0937 -1.9108  1.0708
18783TIP3    H277765   1.474   3.285   0.202  2.0207 -0.5528 -0.4473
18784TIP3   OH277766   0.417   0.483   1.496  0.2301 -0.1567  0.0263
18784TIP3    H177767   0.445   0.503   1.586  2.5216 -0.6386 -0.5198
18784TIP3    H277768   0.497   0.456   1.452  0.1892  4.3248 -3.4613
18785TIP3   OH277769   1.526   5.503   1.536 -0.5453  0.5640  0.2770
18785TIP3    H177770   1.479   5.498   1.619  0.8374  1.8309  1.1892
18785TIP3    H277771   1.530   5.596   1.517  2.8892  0.7123  1.0854
18786TIP3   OH277772   2.112   2.921  10.961 -0.1207  0.1182 -0.2277
18786TIP3    H177773   2.029   2.939  10.917  0.0015  0.0935 -0.4689
18786TIP3    H277774   2.099   2.951  11.051 -0.3871  0.1232 -0.2701
18787TIP3   OH277775   6.598   2.917  12.539 -0.4941  0.0521 -0.1007
18787TIP3    H177776   6.629   3.005  12.561  0.7783 -0.0140 -1.4887
18787TIP3    H277777   6.586   2.874  12.624  0.0630  1.1756  0.5705
18788TIP3   OH277778   4.915   0.745  12.398 -0.5258 -0.1151  0.5506
18788TIP3    H177779   4.908   0.839  12.381 -0.2110 -0.3298 -0.8554
18788TIP3    H277780   4.844   0.706  12.347  0.0505 -0.7443  0.2193
18789TIP3   OH277781   5.192   0.394   1.881  0.2344 -0.3462 -0.1533
18789TIP3    H177782   5.145   0.421   1.802  2.3596 -1.7565 -2.0066
18789TIP3    H277783   5.129   0.339   1.928 -0.7380 -0.3200 -1.3698
18790TIP3   OH277784   2.388   5.235  15.705  0.3485  0.2745  0.4212
18790TIP3    H177785   2.321   5.231  15.773  0.8958  2.1995  1.1392
18790TIP3    H277786   2.345   5.278  15.631 -0.1824 -1.6228 -0.4314
18791TIP3   OH277787   3.682   4.278   0.854 -0.7755 -0.0860  0.2831
18791TIP3    H177788   3.774   4.295   0.874 -0.8893  0.8626  0.0244
18791TIP3    H277789   3.684   4.209   0.787 -0.2954 -0.7686  0.9726
18792TIP3   OH277790   3.843   3.935  15.513 -0.2508 -0.5862  0.0456
18792TIP3    H177791   3.922   3.973  15.475  0.1359 -0.9779  0.4592
18792TIP3    H277792   3.828   3.855  15.464  0.1753 -1.0257  0.6326
18793TIP3   OH277793   2.535   4.724  14.714 -0.1942  0.0383  0.2901
18793TIP3    H177794   2.576   4.644  14.749  1.6851  0.1835 -1.3616
18793TIP3    H277795   2.590   4.747  14.639 -2.5499  1.1152 -1.2085
18794TIP3   OH277796   0.212   2.173   1.261  0.3466  0.0015  0.2366
18794TIP3    H177797   0.135   2.216   1.223  0.0215  0.0477  0.9304
18794TIP3    H277798   0.285   2.230   1.240  0.2311 -0.1382 -0.6019
18795TIP3   OH277799   4.040   6.284   6.151 -0.0492  0.4516 -0.2651
18795TIP3    H177800   3.948   6.262   6.134 -0.6358  1.2902  1.5207
18795TIP3    H277801   4.087   6.202   6.142 -1.0304 -0.0688 -0.8285
18796TIP3   OH277802   5.218   2.162  13.205 -0.1658  0.2482  0.1861
18796TIP3    H177803   5.128   2.135  13.189  0.3426 -0.2108 -2.2545
18796TIP3    H277804   5.270   2.083  13.191  0.6640  0.5846  1.2225
18797TIP3   OH277805   2.434   1.603  15.996 -0.1017 -0.6017 -0.5862
18797TIP3    H177806   2.495   1.543  15.953 -0.6963 -1.0327 -0.8382
18797TIP3    H277807   2.354   1.552  16.007 -0.7207  0.2368 -1.0677
18798TIP3   OH277808   4.060   1.258  16.133  0.3359  0.0295 -0.4859
18798TIP3    H177809   4.095   1.233  16.047 -0.9410  1.1379 -1.3691
18798TIP3    H277810   3.966   1.249  16.124  0.1663  0.4535  0.7197
18799TIP3   OH277811   3.718   1.628  17.328 -0.0671 -0.6216  0.5192
18799TIP3    H177812   3.804   1.668  17.319  0.8744 -2.5190  0.5812
18799TIP3    H277813   3.696   1.598  17.240 -1.3929  1.1536  0.1877
18800TIP3   OH277814   4.842   0.987   0.506 -0.1607 -0.2640  0.0018
18800TIP3    H177815   4.791   1.031   0.574  0.3034  0.5406 -0.1576
18800TIP3    H277816   4.889   0.919   0.552  1.3620  1.2578  0.8044
18801TIP3   OH277817   0.732   5.808   3.850  0.3362  0.4416 -0.1182
18801TIP3    H177818   0.674   5.877   3.883 -1.6442  0.5769 -3.4440
18801TIP3    H277819   0.807   5.855   3.814 -0.7588  0.9079 -1.8995
18802TIP3   OH277820   0.292   3.241  11.243 -0.0585 -0.5793  0.3260
18802TIP3    H177821   0.228   3.239  11.314 -1.9967 -0.4531 -1.3220
18802TIP3    H277822   0.288   3.154  11.203  0.9162 -0.6151  0.2693
18803TIP3   OH277823   1.806   0.391   2.194  0.5648  0.4852  0.3119
18803TIP3    H177824   1.747   0.406   2.121  1.3265  2.9895  0.0991
18803TIP3    H277825   1.848   0.307   2.175 -0.7508  0.0995 -1.0388
18804TIP3   OH277826   1.573   0.096  12.497  0.9014  0.0455  0.0145
18804TIP3    H177827   1.554   0.138  12.581  0.9638  2.2511 -0.9931
18804TIP3    H277828   1.488   0.070  12.463  0.4062  2.5448 -0.8543
18805TIP3   OH277829   0.544   4.107  13.466  0.2584 -0.9817  0.8977
18805TIP3    H177830   0.537   4.137  13.376  2.3663 -0.5145  0.8358
18805TIP3    H277831   0.541   4.187  13.519  0.5170 -1.1111  1.1159
18806TIP3   OH277832   5.030   3.878   4.158 -0.0165  0.3303 -0.3392
18806TIP3    H177833   5.082   3.814   4.110 -0.3220 -0.4996  0.4100
18806TIP3    H277834   5.080   3.895   4.238 -1.1473 -0.9432  0.6846
18807TIP3   OH277835   3.823   5.461  16.646 -0.1837  0.0402 -0.7839
18807TIP3    H177836   3.763   5.431  16.715  0.4665  0.6425  0.0745
18807TIP3    H277837   3.785   5.544  16.616  0.1412  0.3756 -0.3036
18808TIP3   OH277838   6.655   0.016   4.287 -0.0872 -0.3192 -0.0333
18808TIP3    H177839   6.645  -0.044   4.362 -1.9039 -0.5661 -0.4146
18808TIP3    H277840   6.676  -0.041   4.214 -2.8545 -0.7540 -0.6247
18809TIP3   OH277841   1.950   3.860   4.811  0.5323 -0.6488  0.4855
18809TIP3    H177842   2.026   3.888   4.861  1.0794 -1.0838 -0.0812
18809TIP3    H277843   1.971   3.885   4.720  0.5421 -1.8570  0.1411
18810TIP3   OH277844   1.487   3.308   6.374  0.3609  0.2110  0.0690
18810TIP3    H177845   1.460   3.260   6.452  0.6031  1.5790  1.0211
18810TIP3    H277846   1.482   3.400   6.399 -3.0022  0.9630 -2.5690
18811TIP3   OH277847   2.622   2.390  13.365 -0.2252  0.6622  0.4997
18811TIP3    H177848   2.555   2.345  13.416 -0.3277  0.4507  0.1788
18811TIP3    H277849   2.694   2.405  13.428  0.4849 -1.3679  0.2407
18812TIP3   OH277850   5.670   1.755  12.875 -0.3381  0.2852  0.7895
18812TIP3    H177851   5.747   1.743  12.819  0.9660  0.2754  2.4990
18812TIP3    H277852   5.612   1.682  12.853 -2.2075  2.7540 -3.9373
18813TIP3   OH277853   3.779   5.742  15.097 -0.0846 -0.2056  0.5691
18813TIP3    H177854   3.711   5.785  15.046  1.4251 -0.7744 -2.0680
18813TIP3    H277855   3.735   5.717  15.179 -2.3060  1.7507  0.1003
18814TIP3   OH277856   5.040   5.357  15.271 -0.7341 -0.2041 -0.2678
18814TIP3    H177857   4.958   5.364  15.320 -1.4365  1.4171 -1.5454
18814TIP3    H277858   5.013   5.351  15.179  0.5634  0.5982 -0.7426
18815TIP3   OH277859   2.433   5.462   0.649  0.0992 -0.0578  0.0297
18815TIP3    H177860   2.393   5.541   0.612  0.2099 -0.2090 -0.4167
18815TIP3    H277861   2.523   5.464   0.616  0.2577 -0.0951  0.4497
18816TIP3   OH277862   1.196   5.977   2.323 -0.1731  0.1812 -0.1792
18816TIP3    H177863   1.124   5.917   2.341  0.3031 -0.9082 -1.6433
18816TIP3    H277864   1.244   5.983   2.406 -1.2202 -0.0850  0.4544
18817TIP3   OH277865   6.144   6.024   0.906 -0.0204  0.3126 -0.1372
18817TIP3    H177866   6.219   6.005   0.963  1.6966  0.0695 -2.3520
18817TIP3    H277867   6.111   5.938   0.881  0.5382  0.3635 -1.0995
18818TIP3   OH277868   6.100   1.846  12.745 -0.4552  0.4587 -0.5033
18818TIP3    H177869   6.098   1.807  12.832  2.2344  0.2961 -0.4482
18818TIP3    H277870   6.143   1.780  12.690  0.5090  1.7123 -1.3050
18819TIP3   OH277871   6.384   6.442  15.785 -0.0484  0.2833 -0.0531
18819TIP3    H177872   6.467   6.456  15.739  0.7438  1.0422  1.5548
18819TIP3    H277873   6.400   6.473  15.874 -1.6024 -0.9783  0.7069
18820TIP3   OH277874   3.808   0.423   0.928 -0.4447  0.0766 -0.3041
18820TIP3    H177875   3.890   0.382   0.900 -0.1982 -0.5149  1.2252
18820TIP3    H277876   3.756   0.428   0.847 -0.4472 -3.1567 -0.6581
18821TIP3   OH277877   0.417   3.333   5.622  0.1823  0.1969 -0.0878
18821TIP3    H177878   0.391   3.414   5.578 -1.7014 -0.4237 -0.1819
18821TIP3    H277879   0.443   3.361   5.710 -1.6726  0.7927  0.3046
18822TIP3   OH277880   3.969   4.804  16.906  0.1767  0.4559  0.3068
18822TIP3    H177881   4.065   4.812  16.901  0.3546 -1.7117 -0.9354
18822TIP3    H277882   3.949   4.821  16.998  1.9314 -0.3437  0.8966
18823TIP3   OH277883   3.298   4.875  14.024  0.0048 -0.0427  0.4474
18823TIP3    H177884   3.280   4.947  14.086  0.8227  0.6344 -0.0664
18823TIP3    H277885   3.369   4.909  13.969  0.3588 -1.2299  0.1432
18824TIP3   OH277886   5.722   5.562   6.693 -0.2997 -0.4532  0.3330
18824TIP3    H177887   5.717   5.626   6.765  0.5113 -0.4416  0.3892
18824TIP3    H277888   5.659   5.593   6.629 -1.4688 -0.7723  1.2742
18825TIP3   OH277889   3.559   4.287  14.704  0.3337  0.0710  0.2999
18825TIP3    H177890   3.547   4.369  14.657 -0.3891  2.0056  3.5147
18825TIP3    H277891   3.490   4.229  14.671 -0.3153  1.4058 -0.7468
18826TIP3   OH277892   5.457   0.303  16.650  0.1295 -0.2338  0.5359
18826TIP3    H177893   5.419   0.381  16.689  0.8368 -0.0470  0.8699
18826TIP3    H277894   5.462   0.239  16.722  1.9667  0.3013  0.9547
18827TIP3   OH277895   0.042   1.117  12.862  0.4084 -0.5554 -0.3994
18827TIP3    H177896  -0.047   1.091  12.839  0.6642 -1.4300 -0.4431
18827TIP3    H277897   0.031   1.178  12.934 -0.1528 -2.8703  1.6222
18828TIP3   OH277898   1.990   3.232  16.562  0.0134  0.1272 -0.0567
18828TIP3    H177899   2.068   3.184  16.533 -0.0745 -0.1129  0.1027
18828TIP3    H277900   2.023   3.317  16.591 -0.0177  0.8297 -1.9398
18829TIP3   OH277901   0.550   2.232  13.866 -0.0630  0.2288 -0.0111
18829TIP3    H177902   0.519   2.284  13.792 -2.6550 -0.5364  0.4254
18829TIP3    H277903   0.598   2.294  13.921  2.1405  0.7677 -2.3468
18830TIP3   OH277904   4.814   0.833  11.765  0.0624  0.5688  0.1116
18830TIP3    H177905   4.720   0.820  11.781 -0.0316 -0.1021 -0.9259
18830TIP3    H277906   4.857   0.762  11.813 -0.0653 -0.0259 -0.6409
18831TIP3   OH277907   3.311   1.463  16.708  0.2228 -0.0388 -0.4449
18831TIP3    H177908   3.292   1.485  16.799  3.2287 -0.9243  0.5192
18831TIP3    H277909   3.309   1.367  16.706  1.8341 -0.0832 -0.8536
18832TIP3   OH277910   0.498   4.049   4.404  0.6937  0.2069 -0.6113
18832TIP3    H177911   0.561   4.089   4.464  0.5029  1.1007 -0.9845
18832TIP3    H277912   0.505   4.101   4.324 -0.6259  0.4236 -0.6079
18833TIP3   OH277913   6.212   2.493  13.261 -0.3539  0.1341 -0.5677
18833TIP3    H177914   6.259   2.553  13.319 -2.0839  1.5955 -0.5974
18833TIP3    H277915   6.225   2.530  13.173 -1.6198  0.6526 -0.5630
18834TIP3   OH277916   4.080   5.156   2.426 -0.2209  0.3157 -0.3472
18834TIP3    H177917   4.086   5.252   2.422  0.9063  0.2522 -0.5646
18834TIP3    H277918   4.112   5.127   2.340 -1.0281 -0.2427 -0.4630
18835TIP3   OH277919   4.891   6.219  16.896 -0.0796  0.4759  0.2848
18835TIP3    H177920   4.843   6.300  16.879  1.0892  1.4405  1.3645
18835TIP3    H277921   4.896   6.175  16.811 -1.6560  0.9917 -0.1074
18836TIP3   OH277922   1.945   1.033   4.722 -0.6846  0.9298  0.0405
18836TIP3    H177923   2.006   0.979   4.773 -0.9849 -0.4527 -0.9966
18836TIP3    H277924   2.000   1.082   4.662 -0.5693 -1.6581 -2.1620
18837TIP3   OH277925   0.686   4.279  12.836 -0.1904 -0.3959 -0.6028
18837TIP3    H177926   0.657   4.337  12.765  2.5954  0.9643 -0.7704
18837TIP3    H277927   0.692   4.192  12.795 -0.0474  0.0886 -1.6391
18838TIP3   OH277928   5.912   4.805   6.530  0.0404  0.3314 -0.2287
18838TIP3    H177929   5.883   4.714   6.538  1.6679 -0.2659 -0.7880
18838TIP3    H277930   5.870   4.835   6.449 -0.9442  0.2740  0.2430
18839TIP3   OH277931   5.128   4.737  15.665  0.0342 -0.3442 -0.2944
18839TIP3    H177932   5.109   4.646  15.686  2.3848 -0.9276 -0.4745
18839TIP3    H277933   5.204   4.733  15.607 -0.1031  1.7237 -0.6932
18840TIP3   OH277934   5.635   0.091  13.291  1.0182  0.1615 -0.3273
18840TIP3    H177935   5.643   0.029  13.219  2.3726 -0.7658  0.5667
18840TIP3    H277936   5.547   0.128  13.281  1.3023  0.3617 -2.6375
18841TIP3   OH277937   3.172   3.044   5.206 -0.0553 -0.4524 -0.4543
18841TIP3    H177938   3.200   3.133   5.228 -1.7342  0.2919 -1.1180
18841TIP3    H277939   3.134   3.010   5.288  0.3868 -0.4740 -0.2582
18842TIP3   OH277940   6.386   0.728   0.765  0.6656 -0.0238 -0.1938
18842TIP3    H177941   6.415   0.758   0.679 -2.1592  1.8244 -0.6355
18842TIP3    H277942   6.367   0.809   0.813 -2.6603 -0.9697  0.3129
18843TIP3   OH277943   0.921   2.471   2.063  0.4901  0.0916 -0.2894
18843TIP3    H177944   0.922   2.463   1.967  0.5426 -0.6030 -0.2391
18843TIP3    H277945   0.832   2.444   2.088  1.4759 -3.3035  0.0980
18844TIP3   OH277946   1.539   3.300  16.005 -0.0897  0.0137 -0.0413
18844TIP3    H177947   1.447   3.326  16.010 -0.0934 -0.1023  0.6010
18844TIP3    H277948   1.586   3.382  15.991 -0.2414  0.1538  0.2618
18845TIP3   OH277949   2.431   1.335  15.375 -0.1453  0.4462 -0.1427
18845TIP3    H177950   2.388   1.330  15.461  0.6933 -1.8346  0.2121
18845TIP3    H277951   2.360   1.349  15.313 -1.3280 -1.9502  0.5643
18846TIP3   OH277952   5.269   2.592  17.134 -0.0461 -0.4077  0.0721
18846TIP3    H177953   5.354   2.633  17.149 -0.0457 -0.8618  1.4246
18846TIP3    H277954   5.217   2.614  17.212 -1.6211  0.9097 -1.2509
18847TIP3   OH277955   4.361   1.522  14.230 -0.1694 -0.1835  0.0274
18847TIP3    H177956   4.295   1.478  14.283 -0.4913  0.8887  0.5601
18847TIP3    H277957   4.346   1.489  14.141 -1.3695 -0.0349  0.1536
18848TIP3   OH277958   0.063   5.657  10.887  0.4158  0.2927 -0.0349
18848TIP3    H177959   0.129   5.692  10.827  1.1694 -2.0170 -0.6414
18848TIP3    H277960  -0.006   5.625  10.830  0.4199 -0.5091  0.4016
18849TIP3   OH277961   0.182   6.567   5.812  0.4223  0.2313 -0.5453
18849TIP3    H177962   0.211   6.645   5.859  0.2607  0.7124 -1.2299
18849TIP3    H277963   0.252   6.549   5.749  0.8248 -0.6453  0.1276
18850TIP3   OH277964   6.715   2.917  13.090  0.7081 -0.2820 -0.0583
18850TIP3    H177965   6.707   2.841  13.032 -0.2974 -0.9635  0.9403
18850TIP3    H277966   6.736   2.880  13.176  1.8189  0.6937  0.1226
18851TIP3   OH277967   5.625   4.090  10.661 -0.3311  0.1871  0.0833
18851TIP3    H177968   5.549   4.061  10.612  1.5191 -2.6399 -1.3755
18851TIP3    H277969   5.640   4.180  10.632 -0.8219 -0.5381 -2.6075
18852TIP3   OH277970   2.238   3.613   1.214  0.2748  0.0987 -0.2244
18852TIP3    H177971   2.318   3.659   1.240  0.7087 -0.8378  0.1014
18852TIP3    H277972   2.184   3.611   1.293  0.3995 -0.2470 -0.1468
18853TIP3   OH277973   2.822   3.269  16.594 -0.2780 -0.4202  0.3860
18853TIP3    H177974   2.766   3.335  16.635  0.6680  1.7312 -1.5663
18853TIP3    H277975   2.911   3.299  16.615  0.1913 -2.1058  0.9254
18854TIP3   OH277976   0.288   3.666  14.329 -0.0738 -0.0790  0.1477
18854TIP3    H177977   0.357   3.601  14.343 -0.3833 -0.8528 -1.7242
18854TIP3    H277978   0.224   3.649  14.398  0.3029 -1.1344  0.2494
18855TIP3   OH277979   0.802   6.436  11.188 -0.1811  0.3187  0.3238
18855TIP3    H177980   0.754   6.367  11.233 -0.6449  0.5323  0.1677
18855TIP3    H277981   0.757   6.517  11.213 -1.3900  0.3268 -1.6320
18856TIP3   OH277982   3.996   4.784  13.097  0.9018 -0.1268 -0.2037
18856TIP3    H177983   4.020   4.693  13.077 -0.6921 -0.9071  1.1591
18856TIP3    H277984   3.909   4.795  13.058  1.2866  0.9937 -0.7756
18857TIP3   OH277985   0.123   0.408   5.002  0.9188  0.2846  0.6330
18857TIP3    H177986   0.124   0.412   5.098 -0.5017 -2.0057  0.8172
18857TIP3    H277987   0.032   0.424   4.978  0.8223 -1.2894 -0.1585
18858TIP3   OH277988   5.530   3.585   4.804 -0.3847  0.5493  0.1154
18858TIP3    H177989   5.528   3.492   4.830 -0.5325  0.7227  0.7474
18858TIP3    H277990   5.551   3.583   4.711 -1.4988 -0.1674 -0.1405
18859TIP3   OH277991   6.617   6.745  13.888  1.1233  0.2461  0.0311
18859TIP3    H177992   6.591   6.798  13.964  1.6164 -0.9673  1.0838
18859TIP3    H277993   6.583   6.793  13.813 -1.8745  0.1325  1.1441
18860TIP3   OH277994   6.680   6.113   0.029 -0.0504  0.3866  1.2256
18860TIP3    H177995   6.612   6.169   0.065 -0.6756  1.1946 -1.0279
18860TIP3    H277996   6.754   6.171   0.014 -0.4341  0.5146 -0.4015
18861TIP3   OH277997   6.550   6.558   6.583 -0.0550 -0.2117 -0.3296
18861TIP3    H177998   6.493   6.503   6.528  1.2382 -1.3796 -0.5515
18861TIP3    H277999   6.632   6.564   6.534  0.2486  0.9024  0.2845
18862TIP3   OH278000   0.496   0.173   4.399  0.1117  0.2173 -0.2737
18862TIP3    H178001   0.522   0.259   4.432 -0.2842  1.4883 -2.9628
18862TIP3    H278002   0.415   0.189   4.351  0.2193 -1.5811 -1.1469
18863TIP3   OH278003   0.281   1.968  16.395  0.3499 -0.6422  0.3483
18863TIP3    H178004   0.348   2.006  16.452 -1.8935  1.0639  2.0459
18863TIP3    H278005   0.279   2.027  16.319 -0.4123  0.3787  1.1345
18864TIP3   OH278006   3.226   5.810   0.864 -0.2750 -0.4369  0.2003
18864TIP3    H178007   3.312   5.809   0.823 -0.2617  0.3728  0.1887
18864TIP3    H278008   3.242   5.834   0.955 -0.3832 -1.4415  0.4957
18865TIP3   OH278009   3.191   5.729   3.889 -0.5245  0.2498 -0.4576
18865TIP3    H178010   3.277   5.749   3.852 -0.8631  1.3764 -0.6821
18865TIP3    H278011   3.129   5.755   3.820 -1.0857  0.6508  0.1800
18866TIP3   OH278012   0.156   4.685  10.940  0.0098 -0.8222  0.2530
18866TIP3    H178013   0.137   4.773  10.906  0.4107 -0.0279  1.9809
18866TIP3    H278014   0.126   4.626  10.871 -1.2805  0.6301 -0.4921
18867TIP3   OH278015   2.293   5.547   5.343  0.8818 -0.1280 -0.2028
18867TIP3    H178016   2.290   5.493   5.422  0.1782 -1.2785 -0.9886
18867TIP3    H278017   2.203   5.547   5.311  0.8701  1.4684 -0.2847
18868TIP3   OH278018   5.722   0.094  13.715 -0.6327 -0.5465 -0.0710
18868TIP3    H178019   5.627   0.105  13.711 -0.8544 -1.4908  1.6235
18868TIP3    H278020   5.752   0.112  13.626 -2.1518  1.7575 -0.2021
18869TIP3   OH278021   6.168   2.176  13.803 -0.3397  0.3562 -0.1417
18869TIP3    H178022   6.244   2.133  13.843  0.4081  2.0236  0.3169
18869TIP3    H278023   6.093   2.131  13.841  0.3837 -1.2700 -0.5336
18870TIP3   OH278024   5.469   0.366   6.898  0.0750  0.2516  0.2445
18870TIP3    H178025   5.496   0.324   6.817  1.6101 -2.9211  2.2021
18870TIP3    H278026   5.526   0.442   6.907  3.4799 -2.1390  0.6330
18871TIP3   OH278027   6.568   0.454   5.376  0.3438  0.1272 -0.1678
18871TIP3    H178028   6.655   0.480   5.348  1.0011 -1.6246  0.1691
18871TIP3    H278029   6.532   0.405   5.302 -0.1908  0.4512 -0.1310
18872TIP3   OH278030   2.213   1.332  14.930 -0.4834 -0.0189  0.3831
18872TIP3    H178031   2.261   1.264  14.882 -1.7744 -0.3683 -0.4580
18872TIP3    H278032   2.218   1.409  14.874  0.3181  0.3709  0.9766
18873TIP3   OH278033   6.103   0.353   4.305 -0.4465  0.0526  0.3380
18873TIP3    H178034   6.120   0.404   4.226 -0.9099 -0.2356  0.0499
18873TIP3    H278035   6.020   0.388   4.339 -1.5833 -1.4958 -0.6960
18874TIP3   OH278036   6.718   3.981  12.670  0.1288 -0.3009 -0.2081
18874TIP3    H178037   6.767   3.965  12.589 -0.3595 -0.2065 -0.5270
18874TIP3    H278038   6.749   3.913  12.730 -1.0759 -1.7584 -1.1720
18875TIP3   OH278039   1.865   3.473   1.278 -0.4682 -0.9724 -0.1887
18875TIP3    H178040   1.887   3.409   1.346  2.6699  0.2248  0.0891
18875TIP3    H278041   1.888   3.558   1.316 -1.4160  0.0256 -1.7238
18876TIP3   OH278042   3.804   6.269  13.348  0.1197 -0.0946 -0.1136
18876TIP3    H178043   3.751   6.347  13.329 -1.8230 -1.1857  0.4865
18876TIP3    H278044   3.891   6.303  13.365 -0.7744  2.0125  0.6201
18877TIP3   OH278045   0.640   4.288   6.308 -0.2437 -0.7531  0.0527
18877TIP3    H178046   0.603   4.264   6.392  0.7366 -2.1253  0.1177
18877TIP3    H278047   0.591   4.238   6.243  1.3847 -2.5636  0.1375
18878TIP3   OH278048   0.141   2.995  16.712  0.1794 -0.1708  0.1857
18878TIP3    H178049   0.219   2.951  16.679  0.2817 -1.9898  2.5995
18878TIP3    H278050   0.118   3.058  16.643  4.0548  0.8738 -0.3662
18879TIP3   OH278051   4.253   1.102  14.364 -0.0848  0.8221 -0.0868
18879TIP3    H178052   4.332   1.150  14.385  0.3402  0.0252  0.1754
18879TIP3    H278053   4.194   1.168  14.328  1.4100  1.0964 -2.2043
18880TIP3   OH278054   0.586   3.781   2.367 -0.3323 -0.2762  0.2123
18880TIP3    H178055   0.592   3.796   2.272 -1.9780  2.1831  0.4121
18880TIP3    H278056   0.493   3.768   2.383  0.0091 -1.4063  1.4409
18881TIP3   OH278057   0.175   1.932  11.211 -0.8051  0.3274 -0.4737
18881TIP3    H178058   0.258   1.918  11.257 -0.3013  2.5538 -0.6123
18881TIP3    H278059   0.109   1.926  11.280 -0.4196 -0.1339 -0.1356
18882TIP3   OH278060   0.903   0.315  10.427  0.7762  0.0794 -0.0847
18882TIP3    H178061   0.981   0.367  10.407  1.2165 -1.4347 -2.7892
18882TIP3    H278062   0.892   0.257  10.351 -1.4219 -1.6684  1.4167
18883TIP3   OH278063   6.236   2.310  14.214  0.3809  0.2555  0.1210
18883TIP3    H178064   6.235   2.353  14.128  0.9520  1.8439  0.8833
18883TIP3    H278065   6.280   2.226  14.198  0.2026  0.3943 -1.1961
18884TIP3   OH278066   4.257   2.357   3.659  0.1360  0.4667  0.3688
18884TIP3    H178067   4.326   2.309   3.614 -1.2281 -0.8712 -0.3634
18884TIP3    H278068   4.278   2.348   3.752 -0.7119 -2.7147  0.3711
18885TIP3   OH278069   0.114   3.222  17.043 -0.0969 -0.6278 -0.9435
18885TIP3    H178070   0.111   3.316  17.059  0.6801 -0.9009  1.1693
18885TIP3    H278071   0.199   3.207  17.001  0.9142 -0.6265  1.0080
18886TIP3   OH278072   5.256   0.827   4.771 -0.1370 -0.2365 -0.2989
18886TIP3    H178073   5.208   0.789   4.697 -0.1759  1.2207 -1.0737
18886TIP3    H278074   5.189   0.841   4.838 -0.0491 -1.8395  0.1533
18887TIP3   OH278075   5.329   5.025  16.864 -0.0189  0.2403 -0.2276
18887TIP3    H178076   5.291   5.081  16.931  1.1822  0.5406  0.2403
18887TIP3    H278077   5.398   5.079  16.824 -1.1818  0.3321 -2.2182
18888TIP3   OH278078   0.507   3.042   2.512 -0.3986  0.0682  0.4244
18888TIP3    H178079   0.567   2.996   2.454 -0.1504 -1.4842  1.8538
18888TIP3    H278080   0.499   3.129   2.473 -0.7217 -1.0700 -2.2449
18889TIP3   OH278081   2.399   3.056   4.726 -0.4443 -0.9735 -0.5018
18889TIP3    H178082   2.355   3.038   4.642 -1.4293 -0.3933 -0.1253
18889TIP3    H278083   2.487   3.019   4.715 -0.8755 -1.7720 -1.4370
18890TIP3   OH278084   5.105   4.730  16.707  0.1163  0.2385 -0.6165
18890TIP3    H178085   5.127   4.802  16.649 -0.2371 -0.4786 -1.6641
18890TIP3    H278086   5.175   4.730  16.773 -0.6547  2.4285  0.2898
18891TIP3   OH278087   4.712   0.453   3.212  0.3304  0.0770  0.3270
18891TIP3    H178088   4.666   0.526   3.170 -0.2580 -0.3426  0.2208
18891TIP3    H278089   4.797   0.489   3.238 -0.5602  1.2678  1.7632
18892TIP3   OH278090   5.964   4.248   0.166 -0.2830  1.1249 -0.2167
18892TIP3    H178091   6.043   4.196   0.156 -0.3960  1.2675 -2.3923
18892TIP3    H278092   5.897   4.185   0.195  0.7489  1.1899  2.6374
18893TIP3   OH278093   4.508   2.299  15.273 -0.3717 -0.5243  0.1869
18893TIP3    H178094   4.456   2.220  15.292 -1.0480 -0.7136 -2.1202
18893TIP3    H278095   4.456   2.371  15.310  0.0736 -1.0687  1.9988
18894TIP3   OH278096   2.599   3.915  11.179  0.3197 -0.5234  0.2325
18894TIP3    H178097   2.677   3.907  11.233 -0.4794  1.8189  1.9339
18894TIP3    H278098   2.535   3.856  11.220  0.9980 -2.0923 -0.8871
18895TIP3   OH278099   6.527   4.109  13.442 -1.0578 -0.1569  0.3821
18895TIP3    H178100   6.604   4.124  13.497 -0.1048  0.5585 -1.0918
18895TIP3    H278101   6.484   4.194  13.436 -1.2946 -0.2851  0.2220
18896TIP3   OH278102   5.686   4.142  13.907  0.3076 -0.3144 -0.3130
18896TIP3    H178103   5.674   4.125  14.000  0.5238 -0.8071 -0.3721
18896TIP3    H278104   5.711   4.234  13.902 -1.4953  0.2250 -0.0250
18897TIP3   OH278105   3.328   3.809   4.867  0.0985 -0.2914  0.6770
18897TIP3    H178106   3.334   3.871   4.794 -1.1601  1.8242  2.2435
18897TIP3    H278107   3.418   3.782   4.883  0.4982 -0.1619 -1.0936
18898TIP3   OH278108   3.694   5.432   3.122 -0.5211  0.5614 -0.1122
18898TIP3    H178109   3.691   5.488   3.200  2.3623  0.6105  0.0649
18898TIP3    H278110   3.779   5.450   3.082 -1.3662 -0.4559 -2.5678
18899TIP3   OH278111   3.057   2.639   3.220  0.2978 -0.0822 -0.1795
18899TIP3    H178112   3.059   2.574   3.290 -1.7349 -0.6313 -0.5818
18899TIP3    H278113   3.143   2.681   3.225  1.1701 -1.8702  0.9478
18900TIP3   OH278114   5.242   6.445  11.817  0.1240  0.1124  0.3125
18900TIP3    H178115   5.180   6.444  11.744  1.3525 -1.8124 -0.8098
18900TIP3    H278116   5.244   6.536  11.847 -1.8270  0.5647 -0.8029
18901TIP3   OH278117   0.806   5.336   0.698  0.1783  0.1848  0.4108
18901TIP3    H178118   0.859   5.371   0.770  0.1142  1.0748  0.0382
18901TIP3    H278119   0.819   5.398   0.627  2.2329 -1.9137 -1.2327
18902TIP3   OH278120   0.400   6.084  16.040  0.0599  0.1341  0.4229
18902TIP3    H178121   0.423   6.055  15.952  0.9742  0.1460  0.6412
18902TIP3    H278122   0.355   6.009  16.079  0.4234 -0.1832  0.2383
18903TIP3   OH278123   4.345   4.989  13.476  0.1600 -0.6952 -0.7282
18903TIP3    H178124   4.285   5.032  13.415 -1.9360  0.5077  1.9642
18903TIP3    H278125   4.306   4.903  13.491 -1.6049  0.4004  1.6912
18904TIP3   OH278126   4.875   6.571  14.097 -0.7932  0.1141 -0.0211
18904TIP3    H178127   4.887   6.513  14.172 -2.5690 -0.3836 -0.0833
18904TIP3    H278128   4.910   6.655  14.127  1.5178 -0.8349  0.1706
18905TIP3   OH278129   3.866   3.408  16.544  0.1234 -0.1049  0.0758
18905TIP3    H178130   3.849   3.493  16.584  0.2909 -0.4678  0.9451
18905TIP3    H278131   3.940   3.372  16.595 -0.4494 -1.0954  0.2342
18906TIP3   OH278132   1.562   0.027   2.146  0.2593 -0.3728 -0.5414
18906TIP3    H178133   1.583   0.027   2.239  1.3848 -0.3841 -0.7765
18906TIP3    H278134   1.473  -0.009   2.141 -1.1911  2.6452  0.7796
18907TIP3   OH278135   5.909   5.018  14.963  0.2355  0.3144  0.0172
18907TIP3    H178136   5.828   4.980  14.928  0.6831 -0.0547 -0.6482
18907TIP3    H278137   5.890   5.035  15.055 -0.0801 -1.2692  0.2783
18908TIP3   OH278138   6.663   0.100  11.161  0.5584 -0.0088  0.2824
18908TIP3    H178139   6.651   0.055  11.078 -2.0147  2.3458 -0.8076
18908TIP3    H278140   6.727   0.168  11.143  0.1117  0.4078  0.2367
18909TIP3   OH278141   2.323   4.258  11.471 -0.5057  0.3358  0.2042
18909TIP3    H178142   2.242   4.306  11.491  0.3441  2.3121 -0.8245
18909TIP3    H278143   2.301   4.208  11.392 -1.0066  0.1139  0.4805
18910TIP3   OH278144   4.994   1.073   3.045 -0.1911 -0.1618  0.3668
18910TIP3    H178145   4.938   1.085   3.122 -0.5039 -0.3818  0.1784
18910TIP3    H278146   4.937   1.029   2.982 -0.0635  0.3964 -0.1415
18911TIP3   OH278147   5.955   5.654   2.090 -0.0015  0.8770  0.1374
18911TIP3    H178148   5.874   5.693   2.125  0.3694  2.1396 -0.3360
18911TIP3    H278149   5.925   5.594   2.022 -0.5464  1.4395 -0.1283
18912TIP3   OH278150   4.570   1.917   2.956  0.2132 -0.0465 -0.1779
18912TIP3    H178151   4.646   1.962   2.917 -0.8489 -0.3558 -2.7987
18912TIP3    H278152   4.581   1.825   2.932  0.1663 -0.5113  1.4630
18913TIP3   OH278153   1.080   3.739  14.530 -0.1290  0.2491  0.1879
18913TIP3    H178154   1.054   3.747  14.622  0.1066 -0.5413  0.3375
18913TIP3    H278155   1.123   3.822  14.510  0.8329  0.0139  1.1404
18914TIP3   OH278156   0.204   2.249  15.147  0.1031 -0.5130  0.7092
18914TIP3    H178157   0.220   2.338  15.115 -0.0422 -0.1233  1.6739
18914TIP3    H278158   0.126   2.221  15.100  0.6206 -0.4511 -0.2123
18915TIP3   OH278159   2.224   2.056   3.332  0.2310 -0.2292 -0.3890
18915TIP3    H178160   2.301   2.071   3.277 -0.8140  1.3456 -1.5026
18915TIP3    H278161   2.257   2.003   3.404  1.9541 -1.1990 -1.7950
18916TIP3   OH278162   5.814   6.146   6.380 -0.1614 -0.2859  0.0522
18916TIP3    H178163   5.889   6.097   6.346  1.8933  1.4712  1.7736
18916TIP3    H278164   5.783   6.094   6.454  1.4984  0.4952  1.3666
18917TIP3   OH278165   2.537   4.419  12.053  0.4543  0.2381  0.1450
18917TIP3    H178166   2.525   4.446  11.962  0.8240  0.2567  0.1017
18917TIP3    H278167   2.470   4.467  12.101 -0.9355 -1.1062 -0.3534
18918TIP3   OH278168   1.511   3.008  11.239  0.2636  0.0674 -0.4441
18918TIP3    H178169   1.583   3.069  11.228 -1.8697  2.6354 -1.2924
18918TIP3    H278170   1.447   3.034  11.173 -0.4681 -3.7408 -1.5091
18919TIP3   OH278171   1.011   2.116   0.140  0.1521  0.3718 -0.1809
18919TIP3    H178172   0.925   2.096   0.102  0.9814 -1.4794 -1.2303
18919TIP3    H278173   1.053   2.030   0.149  0.9970  0.9863  2.6054
18920TIP3   OH278174   5.424   3.545   2.945  0.0973  0.3542 -0.9410
18920TIP3    H178175   5.352   3.580   2.893 -0.6112 -0.9415 -0.8941
18920TIP3    H278176   5.434   3.455   2.915  2.8115  0.9330 -2.0716
18921TIP3   OH278177   4.683   4.985  13.088  0.3953  0.3400  0.0172
18921TIP3    H178178   4.742   4.909  13.086  0.7650  0.5750  1.3697
18921TIP3    H278179   4.630   4.972  13.166 -0.1066  1.0678 -0.1997
18922TIP3   OH278180   3.619   1.963   5.632 -0.3576 -0.4717  0.1333
18922TIP3    H178181   3.589   1.952   5.541  1.4058  0.9461 -0.6676
18922TIP3    H278182   3.611   1.875   5.670 -1.9951 -0.9009 -1.0935
18923TIP3   OH278183   4.559   0.674   1.585 -0.2112  0.2976  0.3668
18923TIP3    H178184   4.505   0.738   1.632  2.2237  2.0398  1.0111
18923TIP3    H278185   4.544   0.693   1.493 -0.0287  1.3849  0.5452
18924TIP3   OH278186   3.249   6.323   5.092  0.6853 -0.1582  0.3674
18924TIP3    H178187   3.194   6.260   5.045  1.1202 -0.8216  0.7322
18924TIP3    H278188   3.243   6.296   5.184  1.3755 -0.0556  0.4477
18925TIP3   OH278189   2.150   5.622  16.749 -0.0550  0.3148  0.8535
18925TIP3    H178190   2.098   5.700  16.769 -0.5008  0.3898 -0.5385
18925TIP3    H278191   2.233   5.657  16.717  0.2230  0.1989  1.4311
18926TIP3   OH278192   2.236   2.506   4.485 -0.6379 -0.5050 -0.0410
18926TIP3    H178193   2.260   2.550   4.567 -0.5594  0.9165 -0.7805
18926TIP3    H278194   2.160   2.453   4.507  0.8094 -2.0840  1.4836
18927TIP3   OH278195   0.299   2.446  12.557 -0.1329 -0.4134 -0.2963
18927TIP3    H178196   0.322   2.493  12.477  0.1596 -0.3581 -0.1804
18927TIP3    H278197   0.219   2.398  12.534 -1.4195  1.4329  0.0740
18928TIP3   OH278198   6.151   1.811   0.992 -0.5025 -0.7110 -0.5814
18928TIP3    H178199   6.169   1.759   0.914  2.5827  2.2934 -2.1600
18928TIP3    H278200   6.211   1.776   1.059  0.5839 -0.1145 -1.2153
18929TIP3   OH278201   3.753   6.274   4.961 -0.0778  0.6730  0.0044
18929TIP3    H178202   3.685   6.286   5.028  1.4579  0.0593  1.7457
18929TIP3    H278203   3.758   6.359   4.917 -0.2921  1.5017  1.5050
18930TIP3   OH278204   5.755   5.295  12.128  0.0423 -0.3218 -0.2732
18930TIP3    H178205   5.716   5.275  12.212 -0.0180  0.7249 -0.0407
18930TIP3    H278206   5.814   5.369  12.145 -0.6577  0.5120 -1.2949
18931TIP3   OH278207   1.384   0.370  12.657  0.6614  0.4239  0.2609
18931TIP3    H178208   1.304   0.334  12.619  0.9422 -0.2345  0.2830
18931TIP3    H278209   1.359   0.394  12.747  0.4546  0.3451  0.2253
18932TIP3   OH278210   3.575   3.996  16.394 -0.4491 -0.1604  0.0833
18932TIP3    H178211   3.617   3.971  16.476 -1.4841  1.0570  1.0192
18932TIP3    H278212   3.648   4.021  16.337  0.3612 -2.0322  0.2179
18933TIP3   OH278213   1.613   3.508   1.886  0.1464 -0.4772  0.0719
18933TIP3    H178214   1.607   3.469   1.973 -1.9518  1.7292  1.0336
18933TIP3    H278215   1.522   3.525   1.861  0.7414 -0.2963 -2.2266
18934TIP3   OH278216   3.617   1.129   4.243  0.0543  0.5633  0.0665
18934TIP3    H178217   3.588   1.059   4.302  2.3004 -1.9836 -1.6098
18934TIP3    H278218   3.545   1.139   4.181 -0.5497  0.1959  0.6880
18935TIP3   OH278219   4.638   3.328   4.589  0.0914 -0.6259 -1.0065
18935TIP3    H178220   4.695   3.312   4.514 -0.0645 -1.4542 -0.9573
18935TIP3    H278221   4.608   3.418   4.578  0.5703 -0.5313 -1.5933
18936TIP3   OH278222   1.314   5.883   3.617 -0.3687 -0.2119 -0.0925
18936TIP3    H178223   1.371   5.898   3.693 -1.2319 -1.1570  0.7758
18936TIP3    H278224   1.225   5.888   3.652 -0.7682 -1.5781 -0.8498
18937TIP3   OH278225   6.381   6.146   2.283  0.4459  0.0758 -0.0831
18937TIP3    H178226   6.421   6.176   2.365 -0.3600  1.7164 -0.2418
18937TIP3    H278227   6.292   6.119   2.308  0.2594  0.4075 -0.3778
18938TIP3   OH278228   1.632   3.557  12.242 -0.0523  0.2591  0.3500
18938TIP3    H178229   1.678   3.543  12.160 -0.0424  0.4410  0.3231
18938TIP3    H278230   1.551   3.602  12.217  0.3751  1.1588  0.5280
18939TIP3   OH278231   3.423   0.476   4.224 -0.2624  0.0330 -0.3665
18939TIP3    H178232   3.432   0.533   4.300 -0.5159  0.5675 -0.7322
18939TIP3    H278233   3.387   0.532   4.156 -1.7500 -0.8648 -0.3635
18940TIP3   OH278234   1.582   5.856   5.263  0.0272 -0.1982  0.0536
18940TIP3    H178235   1.578   5.882   5.355  0.4778 -1.6378  0.5019
18940TIP3    H278236   1.513   5.907   5.220  0.2555  0.9833  1.0510
18941TIP3   OH278237   0.899   2.646   2.297 -0.0601 -0.1535 -0.2528
18941TIP3    H178238   0.890   2.580   2.228 -0.8746 -0.2139 -0.1039
18941TIP3    H278239   0.967   2.705   2.265 -0.2120 -0.3540 -0.9711
18942TIP3   OH278240   5.298   5.501  14.412 -0.0014 -0.0426  0.1309
18942TIP3    H178241   5.290   5.583  14.363  1.3840  1.1487  1.7419
18942TIP3    H278242   5.321   5.435  14.347  0.4581  1.1869 -0.9917
18943TIP3   OH278243   1.903   0.731   6.253  0.3615  0.3399  0.6772
18943TIP3    H178244   1.852   0.653   6.233  2.6644 -0.8688 -1.0212
18943TIP3    H278245   1.978   0.698   6.303  0.1218  1.8754  2.1469
18944TIP3   OH278246   5.208   0.924   5.400  0.0635 -0.0448 -0.5601
18944TIP3    H178247   5.303   0.922   5.396  0.2602 -1.3139  2.0476
18944TIP3    H278248   5.186   1.017   5.408  1.2828  0.1730  0.7119
18945TIP3   OH278249   5.091   2.915   4.761 -0.4176  0.0540  0.2390
18945TIP3    H178250   5.185   2.910   4.748 -0.4467 -1.8764  0.4853
18945TIP3    H278251   5.081   2.945   4.852 -0.0042 -1.0728  0.6698
18946TIP3   OH278252   6.219   2.950  13.348  0.0951  0.1230  0.3367
18946TIP3    H178253   6.228   2.855  13.343 -1.1212  0.0274 -0.8037
18946TIP3    H278254   6.124   2.965  13.352  0.2340  1.2971 -0.1648
18947TIP3   OH278255   6.056   5.943  15.359 -0.7641 -0.4675  0.3434
18947TIP3    H178256   6.042   6.010  15.292 -1.9148 -0.4228  0.6234
18947TIP3    H278257   6.143   5.908  15.338  0.1311  1.4801  0.5205
18948TIP3   OH278258   5.604   4.967   3.255 -0.1737  0.2202  0.3482
18948TIP3    H178259   5.585   4.873   3.250 -1.7172  0.5427 -0.8704
18948TIP3    H278260   5.696   4.972   3.279  1.0230 -1.7087 -3.1418
18949TIP3   OH278261   2.311   2.637  12.333 -0.4802  0.1127  0.2997
18949TIP3    H178262   2.399   2.673  12.325 -0.1951 -0.2365  1.6651
18949TIP3    H278263   2.270   2.655  12.248  0.0834  2.4621  0.4749
18950TIP3   OH278264   3.303   4.696   1.797 -0.3463 -0.0225  0.5967
18950TIP3    H178265   3.344   4.643   1.866  0.4984 -0.9811 -0.6114
18950TIP3    H278266   3.355   4.679   1.719 -1.5718  0.6852 -0.4141
18951TIP3   OH278267   5.280   6.712   5.809 -0.2563  0.1766  0.3020
18951TIP3    H178268   5.348   6.656   5.846 -1.4439 -1.5340 -0.0274
18951TIP3    H278269   5.220   6.727   5.882 -0.4126  0.3039  0.1471
18952TIP3   OH278270   3.778   4.360  15.956  0.0248 -0.5476  0.5302
18952TIP3    H178271   3.788   4.451  15.928  2.1156 -1.3002 -1.5005
18952TIP3    H278272   3.708   4.325  15.901  0.2007 -0.5229  0.2886
18953TIP3   OH278273   4.584   0.223  12.189  0.4805  0.0810  0.7431
18953TIP3    H178274   4.507   0.276  12.167  1.9149  3.3239  2.7991
18953TIP3    H278275   4.565   0.187  12.275  1.2871  1.1378  1.3931
18954TIP3   OH278276   4.135   2.596   3.970 -0.8670  0.0897 -0.6115
18954TIP3    H178277   4.084   2.514   3.968 -0.8207 -0.0693  1.8080
18954TIP3    H278278   4.194   2.589   3.895  0.4513 -3.0309  0.5335
18955TIP3   OH278279   1.244   2.029   3.483  0.9133 -0.8170  0.2552
18955TIP3    H178280   1.213   1.996   3.399 -0.1134 -0.1494  0.3505
18955TIP3    H278281   1.327   2.073   3.462  0.3899 -0.1629 -0.5276
18956TIP3   OH278282   2.437   2.753  17.098 -0.0307 -0.2017 -0.3158
18956TIP3    H178283   2.456   2.835  17.052 -0.9591  0.7984  0.9922
18956TIP3    H278284   2.523   2.715  17.114  0.3668 -0.0436 -1.8776
18957TIP3   OH278285   3.428   0.488  14.573 -0.1959  0.3566  0.1607
18957TIP3    H178286   3.419   0.422  14.504 -0.9576  0.4086  0.2010
18957TIP3    H278287   3.520   0.513  14.570 -0.2317  0.4096 -0.8870
18958TIP3   OH278288   3.450   4.045   3.796  0.0314  0.2899  0.3493
18958TIP3    H178289   3.498   4.126   3.777  0.5396  0.0222  0.4672
18958TIP3    H278290   3.364   4.058   3.757  0.9204 -0.1104 -1.8829
18959TIP3   OH278291   3.687   3.841   0.275 -0.3448  0.2093 -0.1515
18959TIP3    H178292   3.649   3.772   0.220  0.5339 -1.3829  1.1564
18959TIP3    H278293   3.692   3.803   0.362  4.2469  0.1636 -0.1666
18960TIP3   OH278294   6.153   0.551   3.278 -0.8212  0.3055 -0.0391
18960TIP3    H178295   6.189   0.463   3.281 -0.4084  0.4984  0.9754
18960TIP3    H278296   6.154   0.574   3.185 -1.6197 -1.0221 -0.3920
18961TIP3   OH278297   0.230   4.427   1.681  0.2745  0.2694 -0.1045
18961TIP3    H178298   0.161   4.460   1.739 -0.6746 -3.0482  0.8833
18961TIP3    H278299   0.219   4.332   1.683  2.6214 -0.1893 -2.8308
18962TIP3   OH278300   5.315   1.987   5.501  0.2648  0.0038 -0.4462
18962TIP3    H178301   5.248   1.953   5.442 -0.5227 -1.4913  1.2372
18962TIP3    H278302   5.271   2.054   5.553  0.6357  0.4440 -0.6843
18963TIP3   OH278303   3.243   4.190  13.891 -0.7762  0.2462  0.3901
18963TIP3    H178304   3.205   4.103  13.887 -0.7330  0.2538 -0.8974
18963TIP3    H278305   3.178   4.244  13.934 -0.9747 -0.3431  0.8302
18964TIP3   OH278306   0.758   5.711  11.018 -0.5387  0.2978 -0.4617
18964TIP3    H178307   0.814   5.636  11.040  0.6120  1.4060  0.6160
18964TIP3    H278308   0.793   5.744  10.936 -0.0481  0.5507 -0.1585
18965TIP3   OH278309   5.629   5.413   3.523  0.0473  0.7976 -0.1763
18965TIP3    H178310   5.710   5.410   3.574  0.8547  2.6227 -1.2560
18965TIP3    H278311   5.643   5.484   3.460 -1.7871  0.1071 -1.4423
18966TIP3   OH278312   4.157   1.682  16.984 -0.2346  0.0680 -0.4355
18966TIP3    H178313   4.090   1.647  17.043  0.1063  1.6546  0.9475
18966TIP3    H278314   4.200   1.752  17.034 -0.4895  2.0794 -2.8544
18967TIP3   OH278315   5.889   6.218  12.873  0.7066 -0.1995  0.2143
18967TIP3    H178316   5.968   6.168  12.894  0.8938  0.9446  2.5601
18967TIP3    H278317   5.830   6.154  12.834  2.4501 -1.2804 -0.7651
18968TIP3   OH278318   6.696   4.521  13.358 -0.3910 -0.2961  0.3620
18968TIP3    H178319   6.752   4.478  13.294 -0.5693 -1.4309  0.9451
18968TIP3    H278320   6.719   4.614  13.352  1.0791 -0.6542  0.1392
18969TIP3   OH278321   6.666   3.708   2.878  0.8116  0.2044  0.1345
18969TIP3    H178322   6.612   3.689   2.955 -2.6511  0.3127 -2.0074
18969TIP3    H278323   6.629   3.651   2.810  0.8375  3.0469 -2.4476
18970TIP3   OH278324   1.040   3.066  15.594 -0.1837 -0.4091  0.3435
18970TIP3    H178325   0.986   3.114  15.531  0.0319 -1.1189 -0.3810
18970TIP3    H278326   1.043   3.124  15.670 -1.9178 -0.3190  0.3921
18971TIP3   OH278327   2.654   5.309   5.595 -0.5311 -0.7894 -0.2688
18971TIP3    H178328   2.561   5.307   5.620 -0.6279 -0.2373 -0.5741
18971TIP3    H278329   2.699   5.262   5.666 -0.9132 -0.1089  0.4390
18972TIP3   OH278330   1.487   0.548   0.003  0.3003 -0.2175  0.4356
18972TIP3    H178331   1.427   0.473   0.004  0.5787 -0.4520  0.0828
18972TIP3    H278332   1.567   0.514   0.045  1.7924 -1.3187 -2.9877
18973TIP3   OH278333   2.675   5.558   1.856 -0.3210  0.4938 -0.0765
18973TIP3    H178334   2.726   5.488   1.816 -0.7926  0.0077  0.1421
18973TIP3    H278335   2.676   5.629   1.792  0.3181  0.3564 -0.2236
18974TIP3   OH278336   4.221   0.800  16.749 -0.5058  0.3650  0.5044
18974TIP3    H178337   4.258   0.855  16.679  0.0349  1.5016  1.6386
18974TIP3    H278338   4.268   0.717  16.742 -0.0623  0.6621 -0.1274
18975TIP3   OH278339   1.943   2.322   1.751 -0.3441  0.4317 -0.2938
18975TIP3    H178340   2.036   2.345   1.758 -0.0115 -0.8678 -0.0415
18975TIP3    H278341   1.902   2.366   1.825  0.2447  0.2780  0.1366
18976TIP3   OH278342   3.945   0.861  16.075  0.1656 -0.2817 -0.3521
18976TIP3    H178343   4.009   0.792  16.058 -0.8118 -1.9426  2.0927
18976TIP3    H278344   3.860   0.819  16.062 -0.4673  0.3364  1.4187
18977TIP3   OH278345   3.323   3.679  11.730  0.1405 -0.2210  0.0502
18977TIP3    H178346   3.239   3.712  11.698  0.5284  1.1398  0.3955
18977TIP3    H278347   3.381   3.755  11.729  1.3784 -1.1349 -0.1793
18978TIP3   OH278348   6.213   6.387   6.096 -0.2418 -0.1887  0.4664
18978TIP3    H178349   6.272   6.313   6.080 -0.2790  0.1925 -1.7319
18978TIP3    H278350   6.257   6.439   6.164  1.7647 -0.1524 -0.7907
18979TIP3   OH278351   3.392   4.547  17.268  0.0526 -0.1417 -0.3386
18979TIP3    H178352   3.361   4.602  17.340  0.0299  0.3053 -0.6823
18979TIP3    H278353   3.321   4.485  17.253 -0.3171  0.3311 -0.5616
18980TIP3   OH278354   3.272   3.111  11.924  0.2491 -0.1346 -0.0956
18980TIP3    H178355   3.291   3.017  11.931  0.6478 -0.1404 -1.1322
18980TIP3    H278356   3.308   3.148  12.004  0.4356 -0.8164  0.1482
18981TIP3   OH278357   1.282   0.374  14.357 -0.6270 -0.2272 -0.1298
18981TIP3    H178358   1.271   0.420  14.440  0.3306  0.9700 -0.6444
18981TIP3    H278359   1.376   0.362  14.348 -0.8009 -1.4823 -0.4576
18982TIP3   OH278360   4.471   1.206  14.084 -0.2900  0.1565 -0.2575
18982TIP3    H178361   4.485   1.136  14.021 -0.3372 -0.4740  0.4233
18982TIP3    H278362   4.391   1.250  14.054  0.4187  0.7032 -1.3831
18983TIP3   OH278363   6.174   2.585   3.818 -0.3587  0.6004  0.2633
18983TIP3    H178364   6.153   2.662   3.871 -2.1369  0.3063  0.0270
18983TIP3    H278365   6.089   2.551   3.790  0.4706 -0.3536 -1.2156
18984TIP3   OH278366   4.737   1.404  13.671 -0.0538 -0.1020 -0.3370
18984TIP3    H178367   4.801   1.449  13.725  0.2225 -0.4369 -0.3807
18984TIP3    H278368   4.652   1.438  13.700  0.1519  0.4418 -0.3764
18985TIP3   OH278369   0.090   2.066   2.497 -0.1829  0.1713  0.5175
18985TIP3    H178370   0.042   2.146   2.517  1.7258  1.1862  1.2731
18985TIP3    H278371   0.032   1.996   2.527 -2.5120  1.1183 -1.4657
18986TIP3   OH278372   0.223   6.262   3.871  0.2974  0.1334  0.2114
18986TIP3    H178373   0.263   6.240   3.787 -1.1271 -0.5300 -0.3258
18986TIP3    H278374   0.266   6.344   3.897  0.6779  0.4254 -1.2172
18987TIP3   OH278375   2.506   4.790   1.786  0.0223 -0.1261  0.2110
18987TIP3    H178376   2.416   4.800   1.816 -0.6109 -1.0970 -1.2062
18987TIP3    H278377   2.503   4.812   1.693  1.5150  1.0219  0.3984
18988TIP3   OH278378   4.941   4.635  17.059 -0.1656 -0.7706  0.2185
18988TIP3    H178379   4.950   4.608  17.150 -1.1173 -1.4578  0.1262
18988TIP3    H278380   5.029   4.631  17.023  0.3867  0.4424  1.3463
18989TIP3   OH278381   5.425   5.637   0.458 -0.3879 -0.5244 -0.1319
18989TIP3    H178382   5.387   5.702   0.400  0.0878 -0.0647  0.0670
18989TIP3    H278383   5.367   5.561   0.450  0.1583 -0.7951 -1.8698
18990TIP3   OH278384   2.196   5.842  11.106 -0.0368  0.1528 -0.2526
18990TIP3    H178385   2.208   5.929  11.068 -1.4827 -0.3983 -2.1276
18990TIP3    H278386   2.263   5.788  11.065  1.1822  0.4286  1.2798
18991TIP3   OH278387   1.554   2.348  13.564  0.4356  0.6496 -0.8757
18991TIP3    H178388   1.574   2.382  13.651  1.8583 -0.7446 -0.6104
18991TIP3    H278389   1.471   2.301  13.575  1.4369 -0.9751  0.1966
18992TIP3   OH278390   2.367   2.658  13.035  0.5964  0.2780  0.0872
18992TIP3    H178391   2.292   2.641  13.091 -0.8225  2.4757 -1.0129
18992TIP3    H278392   2.392   2.749  13.054  0.7086  0.7493 -2.0616
18993TIP3   OH278393   4.076   4.199   1.380 -0.4338  0.3314 -0.1270
18993TIP3    H178394   4.134   4.141   1.429 -1.4951 -0.2086  0.5443
18993TIP3    H278395   4.098   4.287   1.412 -0.1815  0.1100  0.3246
18994TIP3   OH278396   5.817   0.406   0.315 -0.0472 -0.5612  0.1806
18994TIP3    H178397   5.799   0.492   0.278  1.7160 -1.2077 -2.5366
18994TIP3    H278398   5.870   0.423   0.393 -0.8502  0.8295  0.4365
18995TIP3   OH278399   4.969   2.596  12.572 -0.4475  0.0339  0.0985
18995TIP3    H178400   4.896   2.650  12.541 -0.1373  0.5330  0.2281
18995TIP3    H278401   5.027   2.588  12.497 -0.8925 -0.8287 -0.1722
18996TIP3   OH278402   1.541   2.522  12.205 -0.1427 -0.1618 -0.2164
18996TIP3    H178403   1.455   2.553  12.235  0.0663  0.3888 -0.1797
18996TIP3    H278404   1.551   2.560  12.118 -0.6290 -1.5338 -0.9070
18997TIP3   OH278405   3.762   1.506   2.287  0.0830 -0.0778  0.1559
18997TIP3    H178406   3.673   1.474   2.296  0.2295 -1.0325 -1.3223
18997TIP3    H278407   3.813   1.429   2.261  1.5452  0.2397  1.8531
18998TIP3   OH278408   4.670   6.556  16.037  0.2698 -0.2174  0.4353
18998TIP3    H178409   4.726   6.502  16.093  2.2551  0.8329 -0.4667
18998TIP3    H278410   4.635   6.623  16.096  2.4224  0.9398  0.4981
18999TIP3   OH278411   0.032   4.361  11.185 -0.3290 -0.7948 -0.2071
18999TIP3    H178412   0.044   4.322  11.099  3.1107 -4.1813  1.4966
18999TIP3    H278413  -0.030   4.303  11.230 -1.3410  0.3836 -0.0209
19000TIP3   OH278414   2.588   6.426   3.420  0.4297 -0.1227  0.2034
19000TIP3    H178415   2.680   6.430   3.393  0.7767  2.5973  1.4082
19000TIP3    H278416   2.539   6.418   3.339  1.6984 -0.4364 -0.5600
19001TIP3   OH278417   2.599   1.120  17.378 -0.0197  0.3095 -0.1030
19001TIP3    H178418   2.560   1.045  17.422 -0.9491  0.8675  0.0528
19001TIP3    H278419   2.560   1.196  17.421  1.2146  0.8956  0.0217
19002TIP3   OH278420   6.333   1.292   1.247  0.4167  0.1655 -0.7435
19002TIP3    H178421   6.320   1.382   1.277 -0.8458 -0.8460  2.0454
19002TIP3    H278422   6.420   1.269   1.278  0.0869 -0.0834  0.0165
19003TIP3   OH278423   6.603   1.764  15.756 -0.3402 -0.8076 -0.1881
19003TIP3    H178424   6.570   1.836  15.702 -0.1094 -1.4612 -1.2296
19003TIP3    H278425   6.564   1.685  15.718  1.0072 -1.4304 -0.3383
19004TIP3   OH278426   2.838   4.955   2.028 -0.2342 -0.4314  0.2140
19004TIP3    H178427   2.786   4.875   2.036  0.5884 -0.8430  1.9413
19004TIP3    H278428   2.888   4.959   2.110  1.1525  0.8620 -0.6509
19005TIP3   OH278429   6.684   4.061   0.974  0.2209  0.0294  0.3347
19005TIP3    H178430   6.652   4.149   0.955  1.3994  0.3722 -0.1736
19005TIP3    H278431   6.619   4.003   0.934  0.3600  0.7002 -0.9093
19006TIP3   OH278432   0.533   6.493  14.187 -0.0535 -0.1357  0.0139
19006TIP3    H178433   0.572   6.535  14.264  1.1020  0.7779 -1.0161
19006TIP3    H278434   0.460   6.550  14.163  0.1892  0.1130 -0.1349
19007TIP3   OH278435   4.829   0.242  13.063  0.6476 -0.0159 -0.1593
19007TIP3    H178436   4.883   0.319  13.081  0.9536 -0.2488 -0.0963
19007TIP3    H278437   4.815   0.245  12.968  0.5766  0.1710 -0.1436
19008TIP3   OH278438   0.878   3.950  14.898  0.2374 -0.3165 -0.0162
19008TIP3    H178439   0.946   3.952  14.831 -0.3379 -2.0937 -0.7198
19008TIP3    H278440   0.865   3.856  14.916  1.7710  0.0823  4.0960
19009TIP3   OH278441   5.638   2.191  11.235  0.4366  0.2723 -0.3639
19009TIP3    H178442   5.685   2.206  11.153  1.8250  1.0536  0.5348
19009TIP3    H278443   5.598   2.275  11.255  1.3815  0.5357  0.5110
19010TIP3   OH278444   4.684   5.649  14.543 -0.7003 -0.3438  0.0912
19010TIP3    H178445   4.627   5.718  14.578 -1.2838 -1.3359  1.1901
19010TIP3    H278446   4.643   5.568  14.573  0.8649 -1.1135  0.2171
19011TIP3   OH278447   5.854   1.802  11.577 -0.1563  0.4463 -0.2386
19011TIP3    H178448   5.892   1.734  11.522  1.1356  0.6749  0.3091
19011TIP3    H278449   5.874   1.775  11.666 -0.2280  1.1934  0.0161
19012TIP3   OH278450   5.222   3.019  14.688 -0.3580  0.3647 -0.2266
19012TIP3    H178451   5.274   2.947  14.723 -0.9913 -0.0114 -0.0506
19012TIP3    H278452   5.132   2.998  14.712 -0.6637  0.7256 -1.0066
19013TIP3   OH278453   1.553   5.593  12.907  0.8350  0.1983 -0.1169
19013TIP3    H178454   1.567   5.685  12.929 -0.1134 -0.1012  2.0405
19013TIP3    H278455   1.594   5.545  12.979  1.6131 -1.1096 -1.3794
19014TIP3   OH278456   3.058   4.085  16.671 -0.3492  0.7835 -0.6721
19014TIP3    H178457   3.138   4.126  16.704  1.0008 -1.7113 -0.6288
19014TIP3    H278458   3.044   4.126  16.586  0.7387  1.5472 -0.5072
19015TIP3   OH278459   3.583   4.075   2.693 -0.4623 -0.5953  0.4532
19015TIP3    H178460   3.606   4.064   2.601  0.2380  0.8512  0.4372
19015TIP3    H278461   3.491   4.103   2.692 -0.8911 -1.9266  0.2938
19016TIP3   OH278462   2.212   1.048   3.865 -0.0895  0.4552 -0.0920
19016TIP3    H178463   2.121   1.039   3.894  0.0393  0.4477  0.3173
19016TIP3    H278464   2.262   1.063   3.946  0.5034 -1.2811 -0.0837
19017TIP3   OH278465   5.842   1.942   0.825  0.2142  0.3794  0.1083
19017TIP3    H178466   5.831   1.857   0.783  0.5092  0.3235  0.1447
19017TIP3    H278467   5.792   2.002   0.770 -0.1656  0.1516  0.1968
19018TIP3   OH278468   1.853   0.054   0.240 -0.0255 -0.2042 -0.0250
19018TIP3    H178469   1.805  -0.022   0.273 -0.2474 -0.2792 -0.5207
19018TIP3    H278470   1.935   0.053   0.290 -0.8566  0.3871  1.3935
19019TIP3   OH278471   0.431   4.769  12.243  0.5024  0.6857  0.1456
19019TIP3    H178472   0.381   4.782  12.162  3.1395  1.6679 -1.4546
19019TIP3    H278473   0.480   4.688  12.228 -0.1005  0.0355  1.4543
19020TIP3   OH278474   5.112   0.960  16.586  0.3140  0.4324  0.1393
19020TIP3    H178475   5.052   0.898  16.628 -1.4380  0.8549 -1.5958
19020TIP3    H278476   5.087   1.045  16.623  1.7912  0.3266  1.4927
19021TIP3   OH278477   2.091   3.579  15.039 -0.3806 -0.8557 -0.4758
19021TIP3    H178478   2.008   3.608  15.077  0.6182  0.6509  0.6476
19021TIP3    H278479   2.109   3.642  14.969  0.6442 -0.0886  0.4389
19022TIP3   OH278480   4.513   6.061  16.970 -0.2180  0.7009  0.4138
19022TIP3    H178481   4.498   6.144  17.015 -0.8928  0.5920  0.3985
19022TIP3    H278482   4.467   6.070  16.887  1.3170  1.0323 -0.4401
19023TIP3   OH278483   0.789   5.753  14.388 -0.3404 -0.2381 -0.2349
19023TIP3    H178484   0.724   5.728  14.322 -0.7952 -1.6662  0.6993
19023TIP3    H278485   0.773   5.693  14.461  1.2847  0.1443  0.4795
19024TIP3   OH278486   1.145   3.361  14.051  0.0254 -0.4452  0.0189
19024TIP3    H178487   1.074   3.403  14.003 -1.8789 -0.4471  2.6391
19024TIP3    H278488   1.109   3.276  14.076  1.0090 -0.5159  1.2697
19025TIP3   OH278489   0.079   6.480   6.064  0.0141  0.0147 -0.2706
19025TIP3    H178490   0.037   6.477   5.978 -3.3515  0.3231  1.2157
19025TIP3    H278491   0.121   6.567   6.067  1.3837 -0.5210 -2.0145
19026TIP3   OH278492   5.889   5.940   6.837  0.4812 -1.3783  0.5543
19026TIP3    H178493   5.815   5.883   6.858 -0.9710  1.2051  3.0766
19026TIP3    H278494   5.881   5.956   6.743 -2.0493 -1.3637  0.7146
19027TIP3   OH278495   5.500   2.905  13.599  0.2533 -0.3605  0.0180
19027TIP3    H178496   5.440   2.832  13.584 -0.0008 -0.3461  0.9021
19027TIP3    H278497   5.451   2.966  13.654  0.7276  0.1302 -0.0899
19028TIP3   OH278498   3.634   6.669   4.791 -0.0662 -0.2447  0.0531
19028TIP3    H178499   3.594   6.736   4.846  1.8535  1.9014 -0.9587
19028TIP3    H278500   3.725   6.667   4.819  0.0621 -2.0043 -0.3950
19029TIP3   OH278501   3.497   3.219  14.081 -0.3270  0.2010  0.6022
19029TIP3    H178502   3.479   3.215  13.987 -0.2503  2.1041  0.4750
19029TIP3    H278503   3.514   3.128  14.105 -0.0098 -0.2932 -1.2826
19030TIP3   OH278504   5.610   0.826   0.713  0.2906 -0.3527  0.8108
19030TIP3    H178505   5.677   0.829   0.645 -0.0313 -0.7577  0.4682
19030TIP3    H278506   5.529   0.845   0.667 -0.0526 -1.5194  0.8961
19031TIP3   OH278507   0.726   4.679  13.514 -0.0566  0.3242 -0.3553
19031TIP3    H178508   0.744   4.713  13.426  0.8541  1.6937  0.3170
19031TIP3    H278509   0.771   4.595  13.516  0.1191  0.3866 -1.1344
19032TIP3   OH278510   4.656   3.130   1.838 -0.0902 -0.4529 -0.3037
19032TIP3    H178511   4.578   3.130   1.895 -0.2969 -0.1907 -0.5842
19032TIP3    H278512   4.727   3.103   1.896 -0.1072  0.8287  0.3424
19033TIP3   OH278513   4.857   3.065   5.685  0.1865 -0.1652  0.0267
19033TIP3    H178514   4.898   3.003   5.625 -1.8426 -0.1873 -1.4368
19033TIP3    H278515   4.879   3.151   5.650  1.0708 -0.0964  0.7219
19034TIP3   OH278516   5.056   3.813   2.529 -0.1626  0.4316  0.3021
19034TIP3    H178517   5.027   3.726   2.556  0.7655  0.1956  0.5663
19034TIP3    H278518   5.005   3.832   2.449  0.6670 -0.9674 -0.5930
19035TIP3   OH278519   4.123   1.981  14.718 -0.1945  0.4490 -0.2845
19035TIP3    H178520   4.158   1.960  14.805 -0.6033  1.1776  0.0664
19035TIP3    H278521   4.028   1.986  14.731 -0.5843 -2.2651 -1.3714
19036TIP3   OH278522   1.115   1.039   3.855 -0.0624  0.5365  0.2340
19036TIP3    H178523   1.052   0.970   3.877  0.7141 -0.2475  0.0485
19036TIP3    H278524   1.061   1.108   3.816 -0.9148  0.2399  0.8533
19037TIP3   OH278525   1.401   2.750   6.146  0.7772 -0.8732  0.2863
19037TIP3    H178526   1.462   2.802   6.094  0.6255 -1.5191 -0.5635
19037TIP3    H278527   1.338   2.813   6.181  0.8688 -0.4285 -0.3414
19038TIP3   OH278528   3.105   2.519   2.681 -0.1790  0.1181  0.7186
19038TIP3    H178529   3.132   2.510   2.773  0.3971 -0.3136  0.5084
19038TIP3    H278530   3.039   2.451   2.668  0.2037 -0.2399  0.6388
19039TIP3   OH278531   3.204   6.390   6.178  0.1906 -0.5354 -0.0997
19039TIP3    H178532   3.155   6.437   6.246  0.7080 -0.5128  0.2711
19039TIP3    H278533   3.234   6.310   6.222  1.6552  0.1026  0.1080
19040TIP3   OH278534   5.650   0.048   0.088 -0.1970 -0.0552 -0.3706
19040TIP3    H178535   5.569   0.091   0.115 -1.7784 -2.2383 -1.3704
19040TIP3    H278536   5.703   0.118   0.049 -2.3025  1.1664 -1.1713
19041TIP3   OH278537   3.893   3.346   4.694  0.8901  0.1060 -0.1072
19041TIP3    H178538   3.949   3.279   4.733  1.1997  0.5404  0.1969
19041TIP3    H278539   3.953   3.417   4.671  0.6648  0.0070 -1.0547
19042TIP3   OH278540   6.525   1.453  14.151 -0.5671 -0.3849 -0.3593
19042TIP3    H178541   6.543   1.480  14.242  0.7850 -0.9778 -0.4284
19042TIP3    H278542   6.563   1.523  14.098 -1.3555 -0.0413 -0.4839
19043TIP3   OH278543   6.663   2.252   3.489  0.0575  0.1455  0.2846
19043TIP3    H178544   6.703   2.338   3.479  0.3597 -0.0059  0.2052
19043TIP3    H278545   6.585   2.255   3.432 -0.7786  0.8910  1.4186
19044TIP3   OH278546   5.503   0.883  11.456  0.4841 -0.2917 -0.4944
19044TIP3    H178547   5.491   0.969  11.414 -0.2181  0.2973  0.8545
19044TIP3    H278548   5.460   0.822  11.397 -0.7803  0.5649 -0.4988
19045TIP3   OH278549   0.135   4.440   0.458  0.6803  0.2548  0.3511
19045TIP3    H178550   0.212   4.420   0.512  0.4986 -0.0716  0.4939
19045TIP3    H278551   0.067   4.463   0.522 -0.3236 -2.6716  0.4762
19046TIP3   OH278552   2.547   1.779  13.154  0.4244 -0.1795 -0.4582
19046TIP3    H178553   2.553   1.873  13.170  1.6099  0.2009 -2.7194
19046TIP3    H278554   2.453   1.762  13.149  0.1963  1.0261 -0.7344
19047TIP3   OH278555   6.301   2.396   2.859  0.2549 -0.4959 -0.6439
19047TIP3    H178556   6.279   2.477   2.906 -2.8430 -1.2445 -0.6273
19047TIP3    H278557   6.387   2.371   2.894  1.1873  2.5900 -0.4535
19048TIP3   OH278558   1.619   1.934   5.584 -0.0271  0.3394 -0.4681
19048TIP3    H178559   1.712   1.951   5.597 -0.0062  0.1612 -0.3898
19048TIP3    H278560   1.613   1.840   5.568 -0.3883  0.0185  1.3599
19049TIP3   OH278561   2.069   3.977   5.930 -0.0245 -0.1029 -0.1827
19049TIP3    H178562   2.107   3.975   6.018 -0.0954  1.1379 -0.1034
19049TIP3    H278563   1.979   3.948   5.943 -0.8133  2.4358  0.6283
19050TIP3   OH278564   4.273   6.407   1.764  0.0274 -0.2923 -0.2447
19050TIP3    H178565   4.217   6.386   1.838 -2.7564 -0.6525 -2.2930
19050TIP3    H278566   4.316   6.324   1.742  1.1723 -0.0939  1.1239
19051TIP3   OH278567   6.033   1.171   3.454  0.3523 -0.0390  0.6757
19051TIP3    H178568   5.988   1.255   3.461  0.8633  0.4846 -1.6092
19051TIP3    H278569   5.980   1.119   3.394  0.7948 -0.8202  0.9362
19052TIP3   OH278570   6.741   3.170   1.464 -0.6676 -0.2999 -0.4332
19052TIP3    H178571   6.793   3.092   1.442 -0.8665  0.2396 -3.0334
19052TIP3    H278572   6.796   3.244   1.437 -1.2959  0.4184  0.1934
19053TIP3   OH278573   4.643   4.025  13.378  0.2218 -0.2807  0.6950
19053TIP3    H178574   4.612   4.058  13.462 -1.8067 -0.7933  0.2119
19053TIP3    H278575   4.657   3.931  13.393  0.7559 -0.2049  0.6880
19054TIP3   OH278576   4.802   5.695  16.126  0.7086  0.0175  0.4723
19054TIP3    H178577   4.827   5.787  16.125 -0.3017  0.3079 -0.6798
19054TIP3    H278578   4.834   5.661  16.042  0.8223 -0.6162  0.7667
19055TIP3   OH278579   1.536   4.795   4.252 -0.5016 -0.4661  0.2762
19055TIP3    H178580   1.533   4.733   4.179 -1.3826 -0.5635  0.3844
19055TIP3    H278581   1.470   4.763   4.313  0.0020 -0.1960  0.9686
19056TIP3   OH278582   0.207   1.064   1.188 -0.3337 -0.2781 -0.4515
19056TIP3    H178583   0.197   1.066   1.093  1.9157 -0.2168 -0.7475
19056TIP3    H278584   0.165   0.983   1.215  1.6705 -1.9105 -1.9219
19057TIP3   OH278585   1.934   1.151  15.114 -0.0033  0.7701 -0.7110
19057TIP3    H178586   1.859   1.094  15.130 -1.0840  1.6718 -2.2109
19057TIP3    H278587   2.007   1.111  15.161 -1.0935 -0.9557 -0.4386
19058TIP3   OH278588   0.309   6.300  15.547 -0.8120 -0.5776  0.0970
19058TIP3    H178589   0.370   6.347  15.490  0.6407 -0.0924  1.9746
19058TIP3    H278590   0.227   6.297  15.497 -0.3163  1.9798 -0.9989
19059TIP3   OH278591   6.724   2.185  15.341  0.3258  0.5834  0.1215
19059TIP3    H178592   6.773   2.104  15.329 -0.9642 -0.2940  0.5028
19059TIP3    H278593   6.763   2.247  15.280  1.5642 -0.2228  0.0750
19060TIP3   OH278594   1.290   5.109   0.564 -0.5422 -0.4808  0.3361
19060TIP3    H178595   1.342   5.100   0.644 -0.7623  0.7374  0.6524
19060TIP3    H278596   1.200   5.105   0.594 -0.6518  1.5334  0.4152
19061TIP3   OH278597   0.244   5.511  16.643 -0.4315  0.6666  0.6269
19061TIP3    H178598   0.192   5.431  16.648 -1.3142  1.2826  2.0032
19061TIP3    H278599   0.291   5.515  16.727 -0.0166  1.3414  0.3688
19062TIP3   OH278600   2.461   2.122   1.687 -1.2977 -0.0761  0.0998
19062TIP3    H178601   2.497   2.205   1.654 -1.8345  0.2945  0.4249
19062TIP3    H278602   2.536   2.062   1.687 -1.1893  0.0015 -1.4417
19063TIP3   OH278603   4.880   4.386  15.033 -0.3088  0.1041 -0.0657
19063TIP3    H178604   4.947   4.347  15.088  0.2695 -2.0296 -2.1012
19063TIP3    H278605   4.894   4.480  15.040  1.0389 -0.1776  1.7490
19064TIP3   OH278606   4.649   0.133   2.603 -0.0450 -0.1646  0.1834
19064TIP3    H178607   4.661   0.089   2.519 -2.2698  0.2837 -0.4186
19064TIP3    H278608   4.691   0.219   2.591 -1.0417  0.2028 -0.7641
19065TIP3   OH278609   1.345   3.597  12.274 -0.1118  0.0414 -0.1740
19065TIP3    H178610   1.314   3.631  12.191 -2.3048 -1.1336  0.0913
19065TIP3    H278611   1.324   3.504  12.272 -0.4180  0.0130  1.7462
19066TIP3   OH278612   3.085   1.131   0.987 -0.3609  0.2744  0.0544
19066TIP3    H178613   3.095   1.037   0.970 -0.7397  0.2035  0.2257
19066TIP3    H278614   3.141   1.148   1.063  0.1668  0.3040 -0.3340
19067TIP3   OH278615   3.352   6.390  13.072  0.4917  0.4371 -0.8996
19067TIP3    H178616   3.346   6.420  13.163  1.0961 -1.7329 -0.0654
19067TIP3    H278617   3.330   6.297  13.076  0.1013  0.3772 -3.0752
19068TIP3   OH278618   4.309   5.109  14.547  0.5094 -0.0183 -0.5758
19068TIP3    H178619   4.311   5.191  14.498  0.7679  0.6805  0.5760
19068TIP3    H278620   4.389   5.064  14.519  2.7302  2.0474  1.9116
19069TIP3   OH278621   3.848   3.482  16.273  0.0855  0.0850 -0.1784
19069TIP3    H178622   3.885   3.419  16.212  1.1075  2.1565 -1.8195
19069TIP3    H278623   3.875   3.451  16.359  1.6637 -1.0060 -1.0285
19070TIP3   OH278624   6.124   5.118  13.797 -0.6030 -0.3087  0.2736
19070TIP3    H178625   6.099   5.156  13.881 -0.9301 -1.5497  0.7463
19070TIP3    H278626   6.124   5.024  13.811 -2.3972 -0.6569 -1.5801
19071TIP3   OH278627   5.290   1.116  11.926 -0.7092  0.2903 -1.0785
19071TIP3    H178628   5.209   1.065  11.916 -0.6739 -0.2235  0.8987
19071TIP3    H278629   5.299   1.129  12.020  0.3548  2.2782 -1.4019
19072TIP3   OH278630   5.321   4.596   4.517 -0.1982 -0.1837  0.0740
19072TIP3    H178631   5.406   4.641   4.518 -0.4455  0.3353  1.9047
19072TIP3    H278632   5.344   4.503   4.517  0.3843 -0.0497  0.3593
19073TIP3   OH278633   2.542   1.015   4.128 -0.0789  0.1691  0.3429
19073TIP3    H178634   2.573   0.951   4.193  0.0654  0.9330  1.0391
19073TIP3    H278635   2.607   1.011   4.058 -0.1215 -0.5122  0.3287
19074TIP3   OH278636   4.641   4.170  14.299 -0.4565 -0.1472 -0.7488
19074TIP3    H178637   4.605   4.209  14.219  0.2522  2.3993  0.0945
19074TIP3    H278638   4.726   4.136  14.273 -0.0982  0.9438 -1.0340
19075TIP3   OH278639   0.252   4.454   2.765 -0.2358 -0.1556  0.8527
19075TIP3    H178640   0.314   4.510   2.719 -1.4645  2.1734  1.8553
19075TIP3    H278641   0.202   4.410   2.696 -1.0028  2.0600 -0.0758
19076TIP3   OH278642   3.209   1.092   2.637  0.0089 -0.1252 -0.4137
19076TIP3    H178643   3.206   1.177   2.682 -0.2585  0.3428 -1.2849
19076TIP3    H278644   3.127   1.088   2.587  0.1467 -0.7709 -0.6047
19077TIP3   OH278645   3.972   1.339   5.360 -0.2023 -0.7068 -0.6564
19077TIP3    H178646   3.880   1.349   5.384  0.6251  1.7344  2.2473
19077TIP3    H278647   3.980   1.385   5.277 -1.1924  1.8869  0.5464
19078TIP3   OH278648   1.045   3.257   1.307 -0.7142  0.5603 -0.1521
19078TIP3    H178649   1.123   3.227   1.260 -0.6532  0.3982  0.0528
19078TIP3    H278650   1.029   3.345   1.274  0.0653  0.9344  0.4474
19079TIP3   OH278651   5.610   1.338   5.589 -0.0482 -0.2977 -0.5666
19079TIP3    H178652   5.657   1.399   5.646  1.7188 -0.7041 -1.5333
19079TIP3    H278653   5.567   1.278   5.650  2.7060 -1.4093  0.4446
19080TIP3   OH278654   3.261   6.274   4.781  0.4295  0.6069  0.2711
19080TIP3    H178655   3.357   6.277   4.784  0.3795  1.2884  1.2921
19080TIP3    H278656   3.237   6.341   4.718  0.6860 -1.1994 -1.9070
19081TIP3   OH278657   6.498   1.401  17.359 -0.3950 -0.8284 -0.5477
19081TIP3    H178658   6.472   1.484  17.320 -0.0579 -0.9851 -1.1250
19081TIP3    H278659   6.486   1.337  17.289  0.9791 -0.9882 -0.6610
19082TIP3   OH278660   5.592   0.945   1.880  0.0624 -0.5114  0.3152
19082TIP3    H178661   5.628   0.857   1.887 -1.4141 -1.1364  0.3567
19082TIP3    H278662   5.500   0.936   1.906 -0.3924  0.8423 -0.7046
19083TIP3   OH278663   5.421   4.796   1.030  0.2288 -0.6695 -0.2633
19083TIP3    H178664   5.329   4.819   1.037  0.2346 -0.7865  0.2557
19083TIP3    H278665   5.422   4.705   1.002  0.2002 -0.3089 -1.4803
19084TIP3   OH278666   1.648   5.792  16.934  0.2445 -0.0483 -0.0518
19084TIP3    H178667   1.591   5.738  16.989  0.2760 -1.0917 -1.0043
19084TIP3    H278668   1.678   5.732  16.866  2.3095  0.5385  0.2884
19085TIP3   OH278669   4.843   4.969   5.431 -0.2975 -0.6827  0.2963
19085TIP3    H178670   4.889   5.021   5.365  1.3530 -0.5882  1.4521
19085TIP3    H278671   4.911   4.914   5.469 -1.3962 -1.4005  1.2747
19086TIP3   OH278672   2.958   0.418   5.746 -0.5012 -0.0672 -0.1833
19086TIP3    H178673   2.868   0.438   5.718 -0.7993 -0.9563  0.1178
19086TIP3    H278674   2.982   0.492   5.802 -0.5608  0.8265 -1.3140
19087TIP3   OH278675   5.611   5.979   5.629 -1.0173 -0.0391 -0.4253
19087TIP3    H178676   5.627   5.956   5.538  0.4527 -1.0093  0.0380
19087TIP3    H278677   5.697   5.976   5.670 -1.2699  2.6855  0.5280
19088TIP3   OH278678   6.101   5.588   2.578  0.0954 -0.0432  0.1275
19088TIP3    H178679   6.119   5.506   2.533  0.9544  0.5062 -0.5721
19088TIP3    H278680   6.154   5.583   2.658 -0.5376 -0.5344  0.5218
19089TIP3   OH278681   4.872   2.373  12.722 -0.2213 -0.4944 -0.1270
19089TIP3    H178682   4.938   2.393  12.656  1.3082 -0.8864  1.2280
19089TIP3    H278683   4.873   2.278  12.730 -0.7282 -0.4839  0.1176
19090TIP3   OH278684   1.676   1.304  12.855  0.4032 -0.0805 -0.7376
19090TIP3    H178685   1.654   1.307  12.948  0.8615  1.6846 -0.6484
19090TIP3    H278686   1.712   1.217  12.842  0.7347 -0.2108  0.8398
19091TIP3   OH278687   5.807   3.119   5.207  0.0316 -0.2088  0.2806
19091TIP3    H178688   5.744   3.117   5.279 -0.5153 -0.1578 -0.1896
19091TIP3    H278689   5.772   3.184   5.146  0.6454 -0.0326  0.1044
19092TIP3   OH278690   0.539   4.329  13.927  0.2207 -0.2407 -0.3977
19092TIP3    H178691   0.545   4.398  13.993 -0.8441 -2.2864  1.9807
19092TIP3    H278692   0.453   4.342  13.887 -0.4092 -0.7469  0.7568
19093TIP3   OH278693   4.010   5.167  12.117 -0.5875 -0.3491 -0.4471
19093TIP3    H178694   4.087   5.112  12.104 -0.4372  0.2219 -2.1700
19093TIP3    H278695   4.032   5.221  12.193 -0.6727 -2.4639  1.1942
19094TIP3   OH278696   3.463   5.165  16.865 -0.0101 -0.1119  0.1200
19094TIP3    H178697   3.383   5.189  16.818  0.1060  0.2576  0.1143
19094TIP3    H278698   3.431   5.121  16.944 -0.2019 -1.1078 -0.4936
19095TIP3   OH278699   6.623   4.877   2.600  0.1421 -0.1642 -0.5617
19095TIP3    H178700   6.643   4.969   2.619 -0.8321 -0.1012  0.2396
19095TIP3    H278701   6.672   4.858   2.520  1.3466  0.6878 -0.0515
19096TIP3   OH278702   5.965   0.978  16.936  0.3511 -0.2254 -0.1184
19096TIP3    H178703   5.881   0.999  16.896 -0.6455 -1.7119  1.0536
19096TIP3    H278704   5.962   0.884  16.950  1.1941 -0.0027  2.0899
19097TIP3   OH278705   1.155   4.898  11.831  0.2753  0.2743 -0.0499
19097TIP3    H178706   1.076   4.866  11.875 -0.6751  2.1995 -0.2774
19097TIP3    H278707   1.165   4.840  11.755 -0.6730 -0.2522  0.2091
19098TIP3   OH278708   2.197   2.462   4.978 -0.4040 -0.0594 -0.0413
19098TIP3    H178709   2.245   2.395   5.027 -0.5463  0.3253  0.6263
19098TIP3    H278710   2.105   2.447   4.999 -0.8080 -1.8958 -2.6628
19099TIP3   OH278711   0.918   2.251   1.534  0.2263 -0.0755 -0.1604
19099TIP3    H178712   0.901   2.181   1.470 -2.1531  1.9113 -1.8884
19099TIP3    H278713   0.989   2.302   1.494  0.8706 -0.5449  0.3463
19100TIP3   OH278714   2.940   5.834   1.766 -0.3573  0.6724 -0.0457
19100TIP3    H178715   2.986   5.868   1.689  0.7803  0.9176  0.7270
19100TIP3    H278716   2.851   5.816   1.734 -0.3375  2.1613 -1.0465
19101TIP3   OH278717   2.161   0.080   1.645 -0.4584 -0.6329 -0.3891
19101TIP3    H178718   2.245   0.055   1.684 -0.7603 -1.8596 -0.4805
19101TIP3    H278719   2.186   0.124   1.563  0.1371  0.8945  0.5737
19102TIP3   OH278720   3.421   6.080  12.579  0.0419  0.1194 -0.1697
19102TIP3    H178721   3.385   6.014  12.637  2.9239  0.1413  1.8737
19102TIP3    H278722   3.440   6.034  12.497 -0.4099 -0.9064  0.2946
19103TIP3   OH278723   1.817   6.521  16.189 -0.2108  0.0626 -0.2824
19103TIP3    H178724   1.860   6.604  16.173  0.2538 -0.0692  0.2667
19103TIP3    H278725   1.811   6.514  16.284 -0.8894 -0.2066 -0.3367
19104TIP3   OH278726   5.686   6.017  11.368  0.1108 -0.6602 -0.3113
19104TIP3    H178727   5.702   5.970  11.286 -1.5213 -1.7726 -0.0322
19104TIP3    H278728   5.621   6.083  11.345  0.7580  0.0069 -0.2240
19105TIP3   OH278729   2.094   3.020  11.236  0.0916 -0.5553 -0.1819
19105TIP3    H178730   2.169   3.028  11.295 -0.2998  1.2499  0.1170
19105TIP3    H278731   2.021   2.996  11.293 -0.3043  1.2699  0.1355
19106TIP3   OH278732   1.033   5.864  13.595 -0.7975 -0.2012 -0.4836
19106TIP3    H178733   0.946   5.899  13.577  0.3624  3.5174  0.4415
19106TIP3    H278734   1.037   5.856  13.690  0.4073  1.4246 -0.3538
19107TIP3   OH278735   0.612   0.856   5.606  0.0199 -0.2291  0.3629
19107TIP3    H178736   0.564   0.847   5.523 -1.7042 -1.3538  1.4258
19107TIP3    H278737   0.700   0.881   5.579 -1.0907  1.8552 -1.6916
19108TIP3   OH278738   2.708   2.267   2.326  0.2931  0.3229 -0.0383
19108TIP3    H178739   2.742   2.197   2.270 -1.6846 -0.5637 -0.1900
19108TIP3    H278740   2.684   2.336   2.264  0.3780  0.3322 -0.0616
19109TIP3   OH278741   1.097   4.468  10.968 -0.4571  0.2026 -0.1752
19109TIP3    H178742   1.059   4.553  10.991  0.5287  0.5377  0.2856
19109TIP3    H278743   1.191   4.478  10.986  0.0493 -0.2404 -2.2935
19110TIP3   OH278744   4.567   0.374  14.134  0.1732  0.0906 -0.2050
19110TIP3    H178745   4.519   0.406  14.057 -0.4170 -0.9052 -0.2664
19110TIP3    H278746   4.604   0.453  14.173  0.9493  0.5871 -1.8134
19111TIP3   OH278747   6.478   1.849   0.796  0.7503  0.1060 -0.0004
19111TIP3    H178748   6.546   1.783   0.786  2.4021  1.6269  0.7761
19111TIP3    H278749   6.495   1.890   0.880 -1.8515 -0.1967  0.7807
19112TIP3   OH278750   4.355   1.561  16.539 -0.7807 -0.5430  0.2059
19112TIP3    H178751   4.330   1.472  16.513  0.1011 -0.7456  0.0330
19112TIP3    H278752   4.369   1.555  16.633  0.2353 -0.8218  0.0424
19113TIP3   OH278753   5.251   5.099  16.042 -0.0300  0.5541  0.0837
19113TIP3    H178754   5.344   5.118  16.050  0.0664 -0.0356  0.4596
19113TIP3    H278755   5.246   5.034  15.972  0.0588 -0.8366  1.3212
19114TIP3   OH278756   4.178   6.433   1.180 -0.0894 -0.1326 -0.3874
19114TIP3    H178757   4.214   6.384   1.106  0.4118  0.7910 -0.7737
19114TIP3    H278758   4.227   6.401   1.256  0.6279  0.1430 -0.7166
19115TIP3   OH278759   5.599   1.129  15.352  0.6290  0.1248  0.2988
19115TIP3    H178760   5.578   1.067  15.283 -0.7223  1.6756 -0.7662
19115TIP3    H278761   5.655   1.194  15.310 -2.0019  2.3247 -0.1070
19116TIP3   OH278762   1.064   1.053   5.933  0.1986  0.0031 -0.3235
19116TIP3    H178763   1.037   1.081   5.846  0.1510  0.8699 -0.0404
19116TIP3    H278764   1.122   1.123   5.964 -2.3711  1.4435  1.6352
19117TIP3   OH278765   4.461   4.592   5.845  0.1100  0.0640  0.0020
19117TIP3    H178766   4.385   4.534   5.848  0.3483 -0.2819 -0.3696
19117TIP3    H278767   4.511   4.561   5.769 -0.1097  1.2068 -0.6212
19118TIP3   OH278768   5.609   1.392   1.216  0.1006  0.0416 -0.6327
19118TIP3    H178769   5.620   1.317   1.158 -3.1145 -0.7321 -0.4323
19118TIP3    H278770   5.681   1.384   1.278  3.4948  0.7245 -4.1169
19119TIP3   OH278771   5.000   3.196  12.987  0.3117 -0.0832  0.0730
19119TIP3    H178772   4.934   3.220  13.052  0.0553  1.6207 -0.7507
19119TIP3    H278773   5.078   3.175  13.039 -0.1575  0.2923  0.9618
19120TIP3   OH278774   2.745   0.648  13.484  0.5968 -0.1353  0.1149
19120TIP3    H178775   2.781   0.570  13.442 -0.9239  0.0819 -1.7341
19120TIP3    H278776   2.655   0.623  13.507  1.0353  0.1201  2.3450
19121TIP3   OH278777   0.651   5.166   3.901  0.5094 -0.3360 -0.3459
19121TIP3    H178778   0.742   5.187   3.879  0.9399 -2.0242 -0.3038
19121TIP3    H278779   0.619   5.116   3.827 -0.7674  1.1297 -0.8394
19122TIP3   OH278780   0.779   6.287  15.418 -0.1717  0.1560  0.7273
19122TIP3    H178781   0.795   6.269  15.510 -1.6389 -0.2676  0.9254
19122TIP3    H278782   0.812   6.376  15.404  1.8098 -0.4581  1.1615
19123TIP3   OH278783   2.824   1.164   6.396  0.5526  0.2565  0.2652
19123TIP3    H178784   2.865   1.215   6.325 -0.0116 -0.2960 -0.4664
19123TIP3    H278785   2.876   1.186   6.473 -1.4092  4.2801  0.6681
19124TIP3   OH278786   2.567   5.896   4.975 -0.2786  0.0832  0.0334
19124TIP3    H178787   2.513   5.929   5.047  0.0724 -0.2882  0.4785
19124TIP3    H278788   2.516   5.822   4.940 -0.9465  0.9191 -0.8008
19125TIP3   OH278789   1.453   1.936  11.159  0.0571  0.2691  0.1489
19125TIP3    H178790   1.362   1.936  11.130  0.1089  1.1336 -0.0252
19125TIP3    H278791   1.449   1.960  11.251  0.0896 -0.0584  0.2390
19126TIP3   OH278792   2.279   4.515   4.639 -0.2677 -0.1588  0.0137
19126TIP3    H178793   2.304   4.605   4.620  0.5982 -0.5587 -0.8109
19126TIP3    H278794   2.223   4.489   4.566  0.4307 -0.6527 -0.3619
19127TIP3   OH278795   3.621   3.387   4.837  0.0983  0.1368 -0.2663
19127TIP3    H178796   3.717   3.389   4.838  0.1649 -1.7754 -0.1170
19127TIP3    H278797   3.597   3.334   4.913 -1.1447  1.3978  0.2717
19128TIP3   OH278798   6.358   1.216  12.838 -1.2346 -0.2441  0.1734
19128TIP3    H178799   6.403   1.284  12.889 -1.5810  0.1730 -0.0721
19128TIP3    H278800   6.331   1.260  12.758 -0.3596 -0.9970 -0.5522
19129TIP3   OH278801   5.622   4.585   4.474 -0.2397  0.1219 -0.9898
19129TIP3    H178802   5.666   4.670   4.476  2.8423 -1.3319 -1.2178
19129TIP3    H278803   5.627   4.553   4.564 -0.5775 -0.2077 -1.0867
19130TIP3   OH278804   3.854   1.299   0.829  0.3809 -0.0361 -0.3197
19130TIP3    H178805   3.774   1.298   0.777 -0.1667  0.6685  0.4651
19130TIP3    H278806   3.869   1.392   0.846  0.6437 -0.2389  0.6033
19131TIP3   OH278807   2.483   3.574  15.570  0.1395 -0.1403 -0.0194
19131TIP3    H178808   2.516   3.504  15.513 -1.2179  0.8541 -2.1658
19131TIP3    H278809   2.470   3.648  15.511  0.2921  1.5353  1.9498
19132TIP3   OH278810   4.567   0.922  14.155 -0.1006  0.2075 -0.6713
19132TIP3    H178811   4.534   0.866  14.225 -1.0251  0.6451 -0.7352
19132TIP3    H278812   4.564   1.010  14.191  2.3974  0.1424 -0.1849
19133TIP3   OH278813   2.583   3.308   4.997  0.5028 -0.0972 -0.8620
19133TIP3    H178814   2.646   3.246   5.033  0.4288  0.8505  1.0095
19133TIP3    H278815   2.497   3.269   5.015  0.3463  1.3209  2.1598
19134TIP3   OH278816   4.264   6.005   0.691 -1.0267 -0.1779 -0.6076
19134TIP3    H178817   4.342   5.985   0.742 -0.1080  2.7770 -0.6523
19134TIP3    H278818   4.193   5.956   0.734  0.1529  0.1851  1.9255
19135TIP3   OH278819   1.890   5.162  14.028  0.2013  0.0223 -0.1916
19135TIP3    H178820   1.977   5.200  14.039 -0.4160  1.4139  0.1736
19135TIP3    H278821   1.836   5.234  13.997 -1.1782 -0.3642  1.1494
19136TIP3   OH278822   5.898   4.307  16.936 -0.0733 -0.6388 -0.1409
19136TIP3    H178823   5.835   4.266  16.878  0.0148 -0.3134 -0.4746
19136TIP3    H278824   5.981   4.263  16.916 -0.1514 -0.9190  0.1445
19137TIP3   OH278825   6.348   5.851  15.819  0.4889  0.1579 -0.2355
19137TIP3    H178826   6.339   5.940  15.784  1.2019  0.4544  0.3205
19137TIP3    H278827   6.392   5.862  15.903 -0.4969 -0.6204  0.4007
19138TIP3   OH278828   3.039   3.591   0.396 -0.3122 -0.6117 -0.0148
19138TIP3    H178829   3.021   3.683   0.416 -1.4554 -0.7421 -0.3854
19138TIP3    H278830   2.986   3.572   0.319 -1.5948 -2.1079  1.1554
19139TIP3   OH278831   0.458   0.358   0.002  0.6397 -0.2176  0.1204
19139TIP3    H178832   0.548   0.381   0.026  0.1042 -0.7360  2.9883
19139TIP3    H278833   0.405   0.388   0.075 -1.3425 -1.3849 -0.7498
19140TIP3   OH278834   3.320   0.354  12.105  0.5387  0.5552 -0.2440
19140TIP3    H178835   3.347   0.369  12.014 -4.3768 -1.2123 -2.3001
19140TIP3    H278836   3.297   0.442  12.137  0.5015  1.0049 -1.4261
19141TIP3   OH278837   2.448   0.890   3.786 -0.3351 -0.2282 -0.4055
19141TIP3    H178838   2.436   0.888   3.692 -0.4929  1.8983 -0.4771
19141TIP3    H278839   2.360   0.897   3.822 -0.3293 -1.7066 -0.0267
19142TIP3   OH278840   1.618   5.470  12.027  0.3565  0.5638  0.4258
19142TIP3    H178841   1.709   5.488  12.051  1.6539 -0.5051 -3.0706
19142TIP3    H278842   1.604   5.378  12.051  0.5420  0.4291  0.0123
19143TIP3   OH278843   0.019   4.200  16.596  0.3756  0.3522 -0.0989
19143TIP3    H178844   0.077   4.125  16.587 -0.5225 -0.3468 -0.2511
19143TIP3    H278845   0.052   4.247  16.673  0.1268 -0.9705  0.8601
19144TIP3   OH278846   1.024   1.659   2.355  0.4356 -0.3513 -0.4258
19144TIP3    H178847   1.036   1.564   2.358 -1.6102 -0.6493  1.3935
19144TIP3    H278848   1.094   1.694   2.409  2.8341 -0.5058 -3.2214
19145TIP3   OH278849   3.135   2.135   3.122 -0.3728  0.5626 -0.2316
19145TIP3    H178850   3.106   2.202   3.060  0.4411 -0.4070 -1.7290
19145TIP3    H278851   3.055   2.090   3.147 -0.6687  0.6685 -0.9585
19146TIP3   OH278852   3.797   4.507  14.263 -0.5108  0.3695 -0.0787
19146TIP3    H178853   3.874   4.456  14.236 -0.7626 -0.4120  0.6407
19146TIP3    H278854   3.812   4.525  14.356 -1.4873 -0.3382  0.2344
19147TIP3   OH278855   5.982   3.225   2.835 -0.4048  0.6894  0.1175
19147TIP3    H178856   5.923   3.297   2.814 -1.3463 -0.0820  0.0380
19147TIP3    H278857   6.053   3.233   2.770 -0.5558  1.4583  0.0336
19148TIP3   OH278858   4.935   5.428  14.340 -0.3886 -0.5341 -0.4332
19148TIP3    H178859   4.982   5.505  14.371 -1.1073 -0.2133 -0.1097
19148TIP3    H278860   4.997   5.355  14.351  0.7172  0.1458 -1.8231
19149TIP3   OH278861   4.421   4.246  16.814  0.3656  0.4069  0.0417
19149TIP3    H178862   4.455   4.331  16.843  1.1656 -0.3868  1.6142
19149TIP3    H278863   4.497   4.202  16.776  0.7355 -0.6938  1.9388
19150TIP3   OH278864   1.625   1.225   0.663 -0.7135  0.3692  0.0420
19150TIP3    H178865   1.657   1.303   0.618 -1.3058  0.4351 -0.2579
19150TIP3    H278866   1.530   1.227   0.652 -0.7501 -0.2856  0.2079
19151TIP3   OH278867   3.670   5.364  16.857 -0.2272 -0.0147  0.5890
19151TIP3    H178868   3.587   5.318  16.845 -2.2763  3.1854  1.1013
19151TIP3    H278869   3.676   5.377  16.952  0.8298 -0.1594  0.5463
19152TIP3   OH278870   2.223   2.974  14.441 -0.3586  0.2619 -0.5187
19152TIP3    H178871   2.308   2.953  14.478 -1.3136  0.8016  2.2660
19152TIP3    H278872   2.226   3.068  14.424 -0.8501  0.6194  1.1434
19153TIP3   OH278873   4.570   0.212  13.300 -0.3559  0.5918 -0.3771
19153TIP3    H178874   4.619   0.293  13.289  1.1641 -0.1431  0.6698
19153TIP3    H278875   4.576   0.168  13.215 -1.2505  1.5667 -0.9711
19154TIP3   OH278876   4.521   5.198   6.144 -0.6287  0.8786 -0.1895
19154TIP3    H178877   4.561   5.276   6.107 -1.3907  0.7768 -1.2601
19154TIP3    H278878   4.429   5.202   6.116 -0.6228 -0.5158 -0.4750
19155TIP3   OH278879   0.424   0.776   0.028 -0.3822 -0.2308 -0.0268
19155TIP3    H178880   0.495   0.730  -0.015 -0.6455 -0.9766  0.3206
19155TIP3    H278881   0.446   0.773   0.121 -0.4178  0.3134  0.0037
19156TIP3   OH278882   3.670   1.127  12.097  0.1417  0.5198 -0.3231
19156TIP3    H178883   3.595   1.135  12.157 -0.7290 -1.1022 -1.1077
19156TIP3    H278884   3.719   1.052  12.132  1.4608  1.6035  0.2111
19157TIP3   OH278885   6.447   1.754  12.230  0.0206 -0.5135 -0.1632
19157TIP3    H178886   6.430   1.844  12.258 -0.5119  0.0252 -2.0880
19157TIP3    H278887   6.529   1.760  12.181 -1.6525 -0.3690 -3.1520
19158TIP3   OH278888   3.752   0.011  16.464  0.0121  0.0514  0.3379
19158TIP3    H178889   3.687  -0.052  16.493 -1.3550  1.5307  0.6385
19158TIP3    H278890   3.789   0.047  16.544  0.6160 -0.1720  0.1673
19159TIP3   OH278891   6.440   2.537  12.553 -0.5604 -0.0615 -0.1488
19159TIP3    H178892   6.495   2.567  12.481 -1.1206  0.4799 -0.3590
19159TIP3    H278893   6.357   2.584  12.542 -1.9054 -2.4751 -1.1613
19160TIP3   OH278894   1.485   5.826  14.518  0.3012  0.1110 -0.1643
19160TIP3    H178895   1.439   5.789  14.594 -0.4458  0.0257 -0.6544
19160TIP3    H278896   1.420   5.881  14.474  0.1551 -1.2778 -1.7758
19161TIP3   OH278897   1.032   2.310   4.477 -0.1484  0.4410  0.3455
19161TIP3    H178898   0.948   2.355   4.483 -1.1630 -0.7969 -2.5216
19161TIP3    H278899   1.096   2.381   4.461 -0.8162  1.2755  1.2691
19162TIP3   OH278900   2.758   0.078   4.184  0.1754  0.0938 -0.2627
19162TIP3    H178901   2.718  -0.006   4.209 -1.2854  0.0845 -2.3287
19162TIP3    H278902   2.687   0.142   4.193  1.0455  0.9928  0.4875
19163TIP3   OH278903   1.928   2.445   0.935 -0.0690  0.1420 -0.0301
19163TIP3    H178904   1.987   2.394   0.880 -0.1163 -0.4037  0.4243
19163TIP3    H278905   1.984   2.513   0.973  0.3666 -0.6282  0.7325
19164TIP3   OH278906   1.682   1.862   1.770  0.5742  0.3271  0.1871
19164TIP3    H178907   1.716   1.799   1.706  0.8833 -0.5344  1.1692
19164TIP3    H278908   1.730   1.943   1.752  2.3959 -0.5590  0.8202
19165TIP3   OH278909   2.288   0.956  14.791 -0.3301 -0.1555  0.2429
19165TIP3    H178910   2.292   1.051  14.786  2.3606 -0.1999  0.0479
19165TIP3    H278911   2.233   0.938  14.868  0.6697  1.5999  1.4312
19166TIP3   OH278912   6.163   6.216   5.360  0.5279 -0.1885 -0.3307
19166TIP3    H178913   6.178   6.150   5.427 -1.7332 -0.7271 -0.2812
19166TIP3    H278914   6.188   6.173   5.278 -1.1711 -1.2784 -0.3323
19167TIP3   OH278915   3.014   6.138   4.143  0.1626  0.6807  0.1081
19167TIP3    H178916   3.071   6.186   4.083 -0.3348 -0.0720 -1.0023
19167TIP3    H278917   3.059   6.055   4.158  0.3009  0.8813  0.8080
19168TIP3   OH278918   2.268   1.595  14.057 -0.0675  0.2135  0.2076
19168TIP3    H178919   2.247   1.684  14.028 -0.6830 -0.1293 -0.4343
19168TIP3    H278920   2.325   1.608  14.134  0.9469  1.1506 -0.6600
19169TIP3   OH278921   6.209   2.047   4.109 -0.4903 -0.0923  0.0741
19169TIP3    H178922   6.166   1.962   4.111  1.3869 -1.1190  2.7574
19169TIP3    H278923   6.152   2.104   4.160 -0.2921 -0.5820  0.8634
19170TIP3   OH278924   3.312   4.206   2.649  0.2801 -0.1780  0.4827
19170TIP3    H178925   3.259   4.135   2.687  0.8152 -0.9905 -0.2734
19170TIP3    H278926   3.249   4.276   2.632 -0.1092 -0.0934  2.1070
19171TIP3   OH278927   5.553   4.266   0.420 -0.0221 -0.3425  0.1050
19171TIP3    H178928   5.633   4.313   0.396 -0.4681 -0.0244 -0.8044
19171TIP3    H278929   5.505   4.326   0.477  0.3204 -0.4872  0.5550
19172TIP3   OH278930   5.537   0.931  12.669 -0.2518  0.2607 -0.4179
19172TIP3    H178931   5.526   0.994  12.740  0.4939  0.2860 -0.3132
19172TIP3    H278932   5.469   0.866  12.684 -0.2718  0.4113  0.1667
19173TIP3   OH278933   5.492   4.456   3.215  0.4256  0.1737 -0.0464
19173TIP3    H178934   5.505   4.434   3.122 -1.5283 -2.1287  0.1036
19173TIP3    H278935   5.400   4.480   3.221  0.1421 -1.0892  1.4695
19174TIP3   OH278936   4.296   3.774   3.414  0.1780 -0.2769 -0.4232
19174TIP3    H178937   4.388   3.773   3.386  0.3994 -1.6432  0.2689
19174TIP3    H278938   4.256   3.844   3.362  2.2996  2.6919  1.5926
19175TIP3   OH278939   6.630   4.631  14.447 -0.1507  0.2261 -0.1694
19175TIP3    H178940   6.658   4.584  14.368 -0.7583 -0.3760 -0.0317
19175TIP3    H278941   6.636   4.566  14.517 -0.3103  0.5603  0.1584
19176TIP3   OH278942   5.261   0.805  17.063  0.0973  0.0492  0.3356
19176TIP3    H178943   5.215   0.881  17.028 -1.0266  0.6760  2.9561
19176TIP3    H278944   5.347   0.807  17.021 -0.5593  1.6821 -1.0322
19177TIP3   OH278945   0.165   4.811   2.738 -0.0088 -0.0638  0.4405
19177TIP3    H178946   0.195   4.890   2.784  0.6009 -1.6372  2.9385
19177TIP3    H278947   0.133   4.844   2.654  0.6910  2.7723  1.1486
19178TIP3   OH278948   2.781   1.678  15.967  0.3552 -0.2185  0.2903
19178TIP3    H178949   2.779   1.757  15.913  0.3159 -1.0743 -0.9954
19178TIP3    H278950   2.712   1.622  15.932  0.9639 -1.1900  0.5910
19179TIP3   OH278951   4.452   6.514   5.271 -0.0648 -0.0463 -0.0052
19179TIP3    H178952   4.486   6.599   5.299 -1.1766  0.7590 -1.0031
19179TIP3    H278953   4.474   6.509   5.177 -0.2413 -0.7389 -0.0150
19180TIP3   OH278954   5.642   4.816  16.687  0.1001 -0.0843 -0.3569
19180TIP3    H178955   5.690   4.891  16.723  1.5638 -1.0378 -0.2779
19180TIP3    H278956   5.630   4.838  16.594 -0.7236  0.8481 -0.0600
19181TIP3   OH278957   2.413   4.109  14.325  0.2256  0.1980  0.3029
19181TIP3    H178958   2.354   4.183  14.336  0.3511  0.4250 -0.4716
19181TIP3    H278959   2.449   4.120  14.237 -0.5930 -1.3683 -0.2805
19182TIP3   OH278960   3.262   1.522   5.234 -0.6303  0.2393 -0.3786
19182TIP3    H178961   3.345   1.557   5.199  0.2604 -2.0813 -0.7537
19182TIP3    H278962   3.202   1.596   5.229  1.6109  2.2822  0.6960
19183TIP3   OH278963   4.511   4.705  15.265 -0.8523 -0.0449  0.2238
19183TIP3    H178964   4.522   4.758  15.186 -0.2956  0.7258  0.8064
19183TIP3    H278965   4.593   4.657  15.274 -1.2674 -0.8470 -0.1731
19184TIP3   OH278966   0.099   5.103   5.520  0.2865  0.2686 -0.3746
19184TIP3    H178967   0.083   5.014   5.488  0.5092  0.0735  0.0451
19184TIP3    H278968   0.018   5.151   5.500  0.4225  0.1527 -1.2152
19185TIP3   OH278969   4.925   6.138  14.458  0.7453  0.2803  0.8177
19185TIP3    H178970   4.893   6.060  14.503  0.7061  0.6232  1.3917
19185TIP3    H278971   5.000   6.106  14.408 -1.3043 -0.8519 -1.7532
19186TIP3   OH278972   0.733   6.124   3.885 -0.2320 -0.2621  0.5645
19186TIP3    H178973   0.786   6.083   3.817 -1.2367  1.2955 -1.2620
19186TIP3    H278974   0.764   6.214   3.888 -2.0275  0.4143  0.1586
19187TIP3   OH278975   0.069   3.570   1.344 -0.1528 -0.1844  0.2496
19187TIP3    H178976   0.140   3.505   1.338 -0.7919 -0.8698 -0.1491
19187TIP3    H278977  -0.008   3.524   1.309 -1.5253 -0.5089  3.3043
19188TIP3   OH278978   0.849   6.435  14.822  0.2171  0.2122 -0.5191
19188TIP3    H178979   0.836   6.401  14.911  0.7048 -0.6797 -0.7782
19188TIP3    H278980   0.807   6.520  14.823 -0.4810 -0.1267  0.3411
19189TIP3   OH278981   0.428   3.036  15.162 -0.4446  0.4152 -0.0000
19189TIP3    H178982   0.390   3.082  15.237  0.4150 -1.1149  1.4456
19189TIP3    H278983   0.355   3.024  15.101 -1.0798  2.0013  0.4008
19190TIP3   OH278984   0.502   3.078  11.540 -0.0300  0.4069 -0.2355
19190TIP3    H178985   0.429   3.121  11.496 -0.8499 -0.4948  0.1957
19190TIP3    H278986   0.504   3.117  11.627 -0.8083 -0.4256  0.1743
19191TIP3   OH278987   0.118   3.144  11.426 -0.1116  0.5236  0.3647
19191TIP3    H178988   0.054   3.212  11.442  0.8245  1.6390 -0.4769
19191TIP3    H278989   0.139   3.109  11.513 -2.1892 -0.2335  0.6144
19192TIP3   OH278990   2.020   4.869   0.313 -0.2594  0.1338  0.1657
19192TIP3    H178991   1.958   4.904   0.250 -1.3149 -0.9186  0.5968
19192TIP3    H278992   2.106   4.885   0.273 -0.8917 -0.4766 -1.5103
19193TIP3   OH278993   1.634   3.141   5.057 -0.1229  0.3760  0.2067
19193TIP3    H178994   1.703   3.208   5.055  1.0522 -0.7897  0.2076
19193TIP3    H278995   1.553   3.190   5.039  0.7685  1.6991 -0.4431
19194TIP3   OH278996   6.250   3.363  13.875 -0.5138 -0.2987 -0.0640
19194TIP3    H178997   6.262   3.292  13.813 -0.3625  1.4770 -2.1943
19194TIP3    H278998   6.339   3.390  13.899 -0.5696 -0.8248  0.7591
19195TIP3   OH278999   4.612   4.257   2.822 -0.7359 -0.9021  0.3594
19195TIP3    H179000   4.682   4.297   2.771 -0.9946 -0.3908  0.3928
19195TIP3    H279001   4.569   4.197   2.761  0.7046 -2.4260  0.7810
19196TIP3   OH279002   0.838   6.636  16.084 -0.0024 -0.0850 -0.3186
19196TIP3    H179003   0.807   6.579  16.154  0.7070  0.2737  0.2993
19196TIP3    H279004   0.762   6.648  16.027 -0.8206  0.2766  0.8248
19197TIP3   OH279005   1.513   4.975  14.632  0.7707  0.1160 -0.4827
19197TIP3    H179006   1.574   4.966  14.559  1.6818  1.0122  0.1365
19197TIP3    H279007   1.545   5.051  14.680 -0.8436  0.6095 -0.1315
19198TIP3   OH279008   0.620   5.460   2.717 -0.1921 -0.3147 -0.3319
19198TIP3    H179009   0.649   5.500   2.635 -0.6943 -0.4655 -0.5829
19198TIP3    H279010   0.699   5.418   2.752 -0.0614 -0.5681 -0.9223
19199TIP3   OH279011   3.494   4.664  16.520 -0.2163 -0.5276  0.6661
19199TIP3    H179012   3.563   4.598  16.507  0.4133 -0.3429  2.6730
19199TIP3    H279013   3.537   4.747  16.499 -0.0993 -0.4989  1.0093
19200TIP3   OH279014   5.913   3.882   0.460 -0.1775 -0.3217 -0.2526
19200TIP3    H179015   5.922   3.878   0.556 -0.4031 -0.6943 -0.2464
19200TIP3    H279016   5.820   3.900   0.446  0.0736  1.0175 -0.3787
19201TIP3   OH279017   1.823   2.299  13.369  0.1938 -0.1287 -0.4788
19201TIP3    H179018   1.742   2.283  13.320 -0.3324 -0.6910  0.5468
19201TIP3    H279019   1.799   2.283  13.460  1.2110  0.6889 -0.0508
19202TIP3   OH279020   4.191   4.322  12.364  0.0318 -0.9292  0.6446
19202TIP3    H179021   4.253   4.261  12.405 -0.6403 -1.0539  1.4903
19202TIP3    H279022   4.241   4.404  12.354  0.3270 -1.0151  1.3614
19203TIP3   OH279023   1.537   4.437  11.536  0.0556 -0.0091  0.1124
19203TIP3    H179024   1.540   4.504  11.468  0.7057 -2.0198 -1.9740
19203TIP3    H279025   1.581   4.361  11.497 -2.9633 -2.5804  1.2484
19204TIP3   OH279026   1.620   5.842  14.968 -0.8211 -0.0603 -0.2010
19204TIP3    H179027   1.550   5.792  15.009 -1.4797  1.5582  0.7652
19204TIP3    H279028   1.693   5.781  14.960 -1.6166 -1.1812  0.8460
19205TIP3   OH279029   1.340   6.515  16.041 -0.2929  0.0065 -0.0302
19205TIP3    H179030   1.426   6.556  16.042  1.2039 -2.9045  0.5277
19205TIP3    H279031   1.304   6.534  16.128  0.2727  0.2954  0.1448
19206TIP3   OH279032   5.916   5.081   1.148  0.0534 -0.2123 -0.0550
19206TIP3    H179033   5.903   5.026   1.071 -2.1482  1.1500 -0.7551
19206TIP3    H279034   5.956   5.023   1.213  0.1349 -1.9253 -1.5666
19207TIP3   OH279035   6.673   5.932   2.887 -0.2137  0.7871  0.1979
19207TIP3    H179036   6.622   5.956   2.809  0.3916  0.4200 -0.3258
19207TIP3    H279037   6.759   5.969   2.871  0.2990 -0.4003  0.0723
19208TIP3   OH279038   0.911   4.732  15.215 -0.1157 -0.3797 -0.0478
19208TIP3    H179039   0.940   4.792  15.285 -0.6684 -0.2334  0.0602
19208TIP3    H279040   0.982   4.734  15.151  0.9501 -1.4073  1.0446
19209TIP3   OH279041   3.044   6.327   0.061 -0.1336  0.5869  0.0502
19209TIP3    H179042   3.044   6.331   0.156 -0.2140  0.6511  0.0472
19209TIP3    H279043   3.092   6.247   0.040 -2.2306 -0.7738  0.1818
19210TIP3   OH279044   0.973   5.166  11.910  0.3358  0.5816 -0.1196
19210TIP3    H179045   0.997   5.117  11.988  1.1573 -0.4643 -0.9946
19210TIP3    H279046   1.005   5.255  11.926 -0.9516  0.8238  1.3813
19211TIP3   OH279047   0.245   5.059   2.838 -0.7264  0.1515 -0.0207
19211TIP3    H179048   0.299   5.116   2.783 -0.5760  2.2056  2.0898
19211TIP3    H279049   0.298   5.044   2.916 -1.9509 -0.4645  0.7228
19212TIP3   OH279050   6.051   0.323  16.462 -0.0203 -0.0802  0.1332
19212TIP3    H179051   6.021   0.304  16.373  1.9927  0.1833 -0.6402
19212TIP3    H279052   5.971   0.322  16.514 -1.0936 -1.6500 -1.4171
19213TIP3   OH279053   1.905   3.653  12.555 -0.0969 -0.0878  0.1461
19213TIP3    H179054   1.958   3.702  12.617 -1.1347  0.6767  0.4431
19213TIP3    H279055   1.936   3.682  12.469  0.9464 -0.7257  0.2884
19214TIP3   OH279056   1.832   3.837   5.466 -0.3680 -0.4344  0.6187
19214TIP3    H179057   1.832   3.931   5.449 -1.5433 -0.4177  0.6278
19214TIP3    H279058   1.834   3.830   5.561 -2.5581 -0.3382  0.7288
19215TIP3   OH279059   3.995   5.471  12.613  0.1580 -0.0957 -0.2909
19215TIP3    H179060   4.075   5.420  12.605  0.9501  1.2837 -1.5902
19215TIP3    H279061   4.003   5.516  12.697 -0.7773 -2.3768  1.1176
19216TIP3   OH279062   2.166   0.540   4.614  0.3899  0.1358  0.2016
19216TIP3    H179063   2.124   0.621   4.643 -1.0263 -0.5995  0.2862
19216TIP3    H279064   2.176   0.550   4.520  0.6404  0.5883  0.2736
19217TIP3   OH279065   2.888   1.904   4.890  0.5119 -0.1314  0.2023
19217TIP3    H179066   2.951   1.868   4.827  0.8209 -0.7609  0.8605
19217TIP3    H279067   2.803   1.896   4.846  0.9213  1.1962 -0.9032
19218TIP3   OH279068   3.052   4.796   3.320 -0.0147 -0.5889  0.5534
19218TIP3    H179069   3.042   4.732   3.250  0.3691 -1.1916  1.0424
19218TIP3    H279070   3.147   4.806   3.330 -0.0352 -1.7462  2.0956
19219TIP3   OH279071   3.027   2.913   5.942 -0.0743 -0.2457  0.5536
19219TIP3    H179072   3.053   2.836   5.892  0.6444 -0.2821  0.9721
19219TIP3    H279073   2.988   2.876   6.022 -0.9260 -0.1839  0.1778
19220TIP3   OH279074   3.795   5.122  16.394  0.8986 -0.0612  0.0915
19220TIP3    H179075   3.757   5.183  16.458 -0.1064  0.0809 -0.6179
19220TIP3    H279076   3.723   5.102  16.334  1.7594 -0.3735 -0.8703
19221TIP3   OH279077   5.599   4.568  14.845  0.2294  0.8862 -0.1058
19221TIP3    H179078   5.548   4.571  14.926  1.6434  0.5016  0.8370
19221TIP3    H279079   5.539   4.601  14.778 -0.9920  1.1773  1.0798
19222TIP3   OH279080   1.836   3.143  14.546  0.4741  0.3435  0.0317
19222TIP3    H179081   1.899   3.169  14.613 -0.2603  0.1888  0.8002
19222TIP3    H279082   1.871   3.180  14.464  1.5856  0.1840  0.4280
19223TIP3   OH279083   2.184   2.037   0.282 -0.1965  0.3192 -0.4593
19223TIP3    H179084   2.149   2.122   0.307  2.0333  1.3936 -0.7138
19223TIP3    H279085   2.250   2.057   0.215  3.1803 -1.1100  2.1798
19224TIP3   OH279086   0.180   3.108  10.957 -0.2937  0.3047  0.5642
19224TIP3    H179087   0.166   3.195  10.918  1.1435  0.4690  0.3691
19224TIP3    H279088   0.107   3.098  11.018 -0.9335  1.3079  0.0078
19225TIP3   OH279089   0.581   2.894  16.256 -0.1359  0.6539 -0.1049
19225TIP3    H179090   0.575   2.824  16.321  1.4898 -0.8828 -1.5023
19225TIP3    H279091   0.494   2.935  16.257 -1.6833 -2.3130 -0.2072
19226TIP3   OH279092   5.148   0.853  12.556 -0.5847  0.1422 -0.0577
19226TIP3    H179093   5.204   0.929  12.564 -0.5663  0.0725  0.5612
19226TIP3    H279094   5.062   0.889  12.533 -0.6010  0.3650  0.3326
19227TIP3   OH279095   1.105   6.736   2.862 -0.4285  0.2559 -0.6057
19227TIP3    H179096   1.076   6.715   2.773 -0.3122 -0.5120 -0.4718
19227TIP3    H279097   1.043   6.690   2.919 -2.1638  2.8937 -0.2056
19228TIP3   OH279098   6.655   1.491   1.457  0.0266  0.1606 -0.6103
19228TIP3    H179099   6.711   1.421   1.423 -3.0936 -1.1745 -3.6389
19228TIP3    H279100   6.702   1.571   1.435  1.7418 -0.9035 -1.0404
19229TIP3   OH279101   2.155   2.504   2.991  0.5346 -0.2817 -0.3147
19229TIP3    H179102   2.236   2.517   2.942  0.3215  0.9530 -0.3811
19229TIP3    H279103   2.175   2.435   3.054  1.9531  0.6909  0.3452
19230TIP3   OH279104   0.132   3.267   0.727 -0.2130  0.1221 -0.0851
19230TIP3    H179105   0.140   3.302   0.638 -0.8137 -0.8761 -0.5511
19230TIP3    H279106   0.042   3.234   0.732 -0.1714  0.1304  0.8804
19231TIP3   OH279107   3.002   3.031  12.389 -0.4184 -0.0182  0.0631
19231TIP3    H179108   3.030   3.110  12.343  1.9425 -1.6914 -1.6141
19231TIP3    H279109   2.978   2.970  12.319  0.1627 -1.5964  1.1765
19232TIP3   OH279110   0.266   5.274   0.638 -0.0809 -0.4052 -0.0891
19232TIP3    H179111   0.327   5.292   0.710  0.9211  0.6325 -1.1538
19232TIP3    H279112   0.320   5.235   0.569 -0.7327 -0.0654 -0.8140
19233TIP3   OH279113   6.095   0.527   6.210  0.0478  0.0170  0.2169
19233TIP3    H179114   6.080   0.495   6.121  1.1493  0.0868 -0.0085
19233TIP3    H279115   6.008   0.538   6.247 -0.4623 -3.2841  0.3226
19234TIP3   OH279116   3.903   5.426   2.102  0.0556 -0.3190 -0.0275
19234TIP3    H179117   3.934   5.398   2.189  2.7734  0.1405 -0.7611
19234TIP3    H279118   3.980   5.463   2.060 -0.7765 -1.9230 -3.2616
19235TIP3   OH279119   1.844   1.302   1.543 -0.0588 -0.4152 -0.0611
19235TIP3    H179120   1.777   1.236   1.556 -0.3946 -0.1247 -0.3126
19235TIP3    H279121   1.841   1.356   1.622  0.1893 -0.6750  0.1269
19236TIP3   OH279122   6.517   0.174   6.499 -0.0871 -0.5704 -0.5976
19236TIP3    H179123   6.433   0.129   6.487 -0.0167 -0.6779 -0.6867
19236TIP3    H279124   6.500   0.263   6.466 -0.2183 -0.5385 -0.4444
19237TIP3   OH279125   2.255   6.421   5.852 -1.3760 -0.1808 -0.0901
19237TIP3    H179126   2.160   6.409   5.857 -1.4911 -0.0193 -1.4659
19237TIP3    H279127   2.267   6.516   5.857 -1.0807 -0.2888  2.4248
19238TIP3   OH279128   6.501   2.825  13.523  0.1195 -0.1324 -0.0975
19238TIP3    H179129   6.586   2.825  13.479  0.8265 -0.3538  1.2438
19238TIP3    H279130   6.498   2.909  13.569 -0.3699 -0.1511 -0.0942
19239TIP3   OH279131   5.169   5.569   4.295  0.7629  0.0315 -0.0580
19239TIP3    H179132   5.178   5.481   4.259  1.0527  0.2875 -0.6370
19239TIP3    H279133   5.242   5.618   4.257  0.3649  0.6241 -0.0726
19240TIP3   OH279134   1.718   2.593   4.724  0.5316 -0.3634  0.7629
19240TIP3    H179135   1.721   2.515   4.670 -1.1034 -0.9989  1.5358
19240TIP3    H279136   1.657   2.572   4.795 -0.6019  1.8632  0.5579
19241TIP3   OH279137   6.236   4.083  13.622 -0.5838  0.1219 -0.7883
19241TIP3    H179138   6.277   3.999  13.640  1.1966  1.0858 -0.1242
19241TIP3    H279139   6.306   4.147  13.632 -1.6770  1.6267 -2.1169
19242TIP3   OH279140   4.688   1.779   1.057  0.0041  0.3978 -0.1448
19242TIP3    H179141   4.704   1.710   0.992 -1.3712 -0.3556  0.2759
19242TIP3    H279142   4.719   1.859   1.014  1.5254 -0.4269 -0.6943
19243TIP3   OH279143   4.605   1.357  11.893 -0.2638 -0.2073 -0.0074
19243TIP3    H179144   4.588   1.448  11.869  0.8204  0.2394  0.8306
19243TIP3    H279145   4.649   1.320  11.816 -3.0719 -0.8579 -1.4504
19244TIP3   OH279146   6.153   5.756  16.609 -0.1218 -0.0319  0.0396
19244TIP3    H179147   6.139   5.784  16.518 -0.5426  0.3545  0.2224
19244TIP3    H279148   6.074   5.784  16.655  0.3830  0.3664  0.6638
19245TIP3   OH279149   5.525   6.445   0.964 -0.0646  0.1379 -0.3463
19245TIP3    H179150   5.538   6.522   0.909  0.0864  1.3667  1.3567
19245TIP3    H279151   5.431   6.432   0.967 -0.1132  0.4991 -0.3132
19246TIP3   OH279152   5.260   5.262  11.340  0.0049  0.1964 -0.3718
19246TIP3    H179153   5.191   5.288  11.279 -1.0097 -2.5619 -0.5296
19246TIP3    H279154   5.326   5.219  11.286 -0.3385 -1.2120  0.2792
19247TIP3   OH279155   2.538   1.176  11.113 -0.4698  0.3000  0.4335
19247TIP3    H179156   2.453   1.144  11.144 -0.3592  0.3702  0.8163
19247TIP3    H279157   2.546   1.141  11.024 -0.0773 -1.2475  1.0494
19248TIP3   OH279158   5.588   1.230   4.634 -0.5865 -0.0814  0.1016
19248TIP3    H179159   5.617   1.166   4.698 -0.4598  0.7583  0.9034
19248TIP3    H279160   5.538   1.294   4.684 -2.4416 -0.5969 -0.9935
19249TIP3   OH279161   4.547   4.582   2.646 -0.5046 -0.8840  0.0826
19249TIP3    H179162   4.480   4.605   2.582  0.7245  0.0606 -0.9123
19249TIP3    H279163   4.566   4.664   2.692 -0.5076 -1.2911  0.8287
19250TIP3   OH279164   4.894   6.744  12.490 -0.0697  0.3764  0.0201
19250TIP3    H179165   4.895   6.702  12.404  1.4835 -0.4713  0.4188
19250TIP3    H279166   4.954   6.692  12.543  2.8530  3.6354  0.2842
19251TIP3   OH279167   3.900   3.294  13.899  0.0984 -0.0283  0.5432
19251TIP3    H179168   3.901   3.388  13.917  0.5683  0.2462 -0.7529
19251TIP3    H279169   3.822   3.281  13.844 -0.5225 -0.5825  1.5206
19252TIP3   OH279170   2.557   2.954   1.141  0.1975  0.2827  0.1365
19252TIP3    H179171   2.477   2.971   1.090  0.7523 -0.0272 -0.8528
19252TIP3    H279172   2.525   2.918   1.224 -0.7411  1.1353  0.1680
19253TIP3   OH279173   4.092   1.633   2.148 -0.2995  0.2080  0.0402
19253TIP3    H179174   4.089   1.587   2.232  0.1997 -1.6035 -0.8816
19253TIP3    H279175   4.014   1.603   2.101  1.0935 -1.3667 -1.3711
19254TIP3   OH279176   0.917   1.180  14.126  0.1182 -0.1215 -0.1268
19254TIP3    H179177   0.852   1.234  14.172  0.0569 -0.3154  0.0143
19254TIP3    H279178   0.882   1.171  14.038  0.9524  1.4948 -0.6681
19255TIP3   OH279179   0.724   1.686  11.671  0.2252  0.0463 -0.4842
19255TIP3    H179180   0.635   1.652  11.671 -0.6172  2.1230 -0.0634
19255TIP3    H279181   0.740   1.715  11.581  0.7441 -0.9254 -0.7170
19256TIP3   OH279182   0.920   4.813  12.041 -0.1419 -0.1538  0.7629
19256TIP3    H179183   0.851   4.770  11.991  0.4107  0.0637 -0.2188
19256TIP3    H279184   0.874   4.867  12.105 -0.8604 -0.5810  0.6123
19257TIP3   OH279185   0.102   0.490  11.708 -0.1751 -0.1193  0.4717
19257TIP3    H179186   0.018   0.446  11.695 -0.4720  0.8715 -1.3676
19257TIP3    H279187   0.086   0.580  11.681  1.4517  0.1338  0.2495
19258TIP3   OH279188   1.739   4.287   3.499 -0.7480 -0.3814  0.7540
19258TIP3    H179189   1.801   4.319   3.433 -2.5269 -0.2125 -0.9092
19258TIP3    H279190   1.783   4.302   3.582  0.7470  1.2940 -0.2783
19259TIP3   OH279191   2.335   6.569   5.593  0.3161 -0.0839  0.2567
19259TIP3    H179192   2.387   6.507   5.644  0.0839  1.5554  2.6503
19259TIP3    H279193   2.266   6.597   5.653 -1.4855  0.1633 -1.8003
19260TIP3   OH279194   3.526   2.658   3.934 -0.2452 -0.0921 -0.0994
19260TIP3    H179195   3.620   2.676   3.923 -0.1853  0.2115  0.7909
19260TIP3    H279196   3.499   2.715   4.006 -0.7243 -1.3959  0.7913
19261TIP3   OH279197   4.758   0.430   3.676 -0.1842  0.2542  0.0564
19261TIP3    H179198   4.839   0.384   3.657  0.0919  1.3154 -1.5504
19261TIP3    H279199   4.782   0.522   3.676 -1.1261  0.5195  1.0253
19262TIP3   OH279200   1.841   6.677  12.548  0.4642 -0.1114  0.1302
19262TIP3    H179201   1.892   6.737  12.494 -0.3505 -0.7427 -1.4146
19262TIP3    H279202   1.751   6.711  12.543 -0.1694 -1.8164 -1.4428
19263TIP3   OH279203   4.614   1.591  15.086  0.7452 -0.1312  0.0302
19263TIP3    H179204   4.557   1.515  15.098  0.1511  0.3390  0.2362
19263TIP3    H279205   4.647   1.582  14.996 -0.2745  0.0001 -0.3681
19264TIP3   OH279206   4.351   0.501  11.408  0.3813  0.2746 -0.2163
19264TIP3    H179207   4.331   0.593  11.390  0.3303 -0.1150 -2.5248
19264TIP3    H279208   4.284   0.473  11.470  1.0874  2.0618  1.4183
19265TIP3   OH279209   3.594   1.094   1.151  0.6141 -0.3981  0.4251
19265TIP3    H179210   3.651   1.104   1.227  0.4282 -0.2078  0.5409
19265TIP3    H279211   3.542   1.016   1.170  0.3509 -0.1724  0.6344
19266TIP3   OH279212   0.829   5.353   2.838  0.3580  0.4925  0.4802
19266TIP3    H179213   0.912   5.306   2.827 -0.3909 -0.7043 -0.3147
19266TIP3    H279214   0.849   5.423   2.900  2.2273  0.9508 -0.5781
19267TIP3   OH279215   1.344   3.195   6.576 -0.1689  0.0866  0.3632
19267TIP3    H179216   1.271   3.257   6.568  0.3528  0.6247 -0.4191
19267TIP3    H279217   1.303   3.109   6.576 -0.8452  0.4031  0.5123
19268TIP3   OH279218   2.821   3.937  16.692  0.0049 -0.2027  0.4243
19268TIP3    H179219   2.897   3.992  16.678  0.4357 -0.7895  0.3993
19268TIP3    H279220   2.787   3.920  16.604 -0.2017  0.1262  0.4419
19269TIP3   OH279221   5.269   2.129   1.818 -0.3065 -0.2872 -0.8404
19269TIP3    H179222   5.357   2.102   1.846 -0.3629  0.7281  0.4252
19269TIP3    H279223   5.227   2.049   1.789  0.1175 -1.2907  1.1279
19270TIP3   OH279224   1.606   3.566   1.292  0.2108  0.4508  0.1152
19270TIP3    H179225   1.680   3.510   1.267 -0.0575 -0.0114  0.3449
19270TIP3    H279226   1.608   3.566   1.388 -0.6231 -0.2878  0.1422
19271TIP3   OH279227   3.407   3.565  15.085 -0.1874 -0.1801 -0.0308
19271TIP3    H179228   3.317   3.575  15.116  0.3021 -0.4936  1.5750
19271TIP3    H279229   3.411   3.617  15.005 -1.4362  0.9611  0.6114
19272TIP3   OH279230   4.060   5.980  13.401  0.3158 -0.4166  0.0822
19272TIP3    H179231   4.043   6.071  13.425 -0.6655  0.1809 -2.4901
19272TIP3    H279232   4.015   5.928  13.467 -1.0717  1.0278  0.3149
19273TIP3   OH279233   3.335   0.873  13.846  0.6734 -0.0967  0.1167
19273TIP3    H179234   3.273   0.945  13.853 -0.9281 -1.4375  0.5666
19273TIP3    H279235   3.331   0.830  13.932  1.1241 -1.0721 -0.3387
19274TIP3   OH279236   1.352   1.216  14.877  0.0072 -0.1563  0.5041
19274TIP3    H179237   1.316   1.131  14.903 -2.6812  0.5005 -0.6313
19274TIP3    H279238   1.394   1.250  14.956 -0.0689 -1.9189  1.3645
19275TIP3   OH279239   5.000   5.108  11.763 -0.3047 -0.3472  1.1486
19275TIP3    H179240   5.088   5.111  11.725 -0.4114  0.2452  0.9333
19275TIP3    H279241   4.980   5.200  11.782 -0.8881 -0.4816  1.1741
19276TIP3   OH279242   4.683   3.180   0.503  0.2520  0.0795 -0.0270
19276TIP3    H179243   4.613   3.225   0.456 -0.6317 -1.9247 -0.7790
19276TIP3    H279244   4.761   3.234   0.488 -0.4002  0.5440 -2.2071
19277TIP3   OH279245   2.495   0.840  16.459 -0.5084 -0.2792 -0.8113
19277TIP3    H179246   2.486   0.928  16.423 -1.4972 -0.2607 -0.5547
19277TIP3    H279247   2.557   0.796  16.401  0.3947  0.7424 -0.6316
19278TIP3   OH279248   0.193   0.414   2.979 -0.2095 -0.0071  0.2488
19278TIP3    H179249   0.216   0.370   2.897  0.1984  2.1082 -0.8510
19278TIP3    H279250   0.098   0.416   2.980 -0.2135  1.2546 -0.9494
19279TIP3   OH279251   2.241   3.646  14.629 -1.0388  0.5283  0.4450
19279TIP3    H179252   2.202   3.560  14.643 -1.2892  0.3925 -0.9812
19279TIP3    H279253   2.219   3.668  14.539 -0.7251  1.9637  0.7011
19280TIP3   OH279254   2.019   1.333  13.013  0.2930  0.5254 -0.0074
19280TIP3    H179255   1.939   1.285  13.034  1.7190 -2.2045 -0.3565
19280TIP3    H279256   2.027   1.397  13.084 -1.0448 -0.6344  1.2805
19281TIP3   OH279257   0.907   0.172  17.334 -0.2145  0.1375  0.3743
19281TIP3    H179258   0.929   0.265  17.329 -0.0388  0.0350 -1.3616
19281TIP3    H279259   0.989   0.129  17.358  0.1666  0.2760 -0.6340
19282TIP3   OH279260   0.687   1.037   5.883 -0.4281  0.1878  0.1433
19282TIP3    H179261   0.742   0.959   5.894 -0.8599 -0.2892 -0.9146
19282TIP3    H279262   0.740   1.096   5.830  0.5263  1.3046  2.2305
19283TIP3   OH279263   5.616   5.701  15.470 -0.3022  0.4676 -0.6606
19283TIP3    H179264   5.535   5.712  15.420  1.0824  1.5043 -2.8285
19283TIP3    H279265   5.686   5.707  15.404  1.5319 -1.1326  1.0064
19284TIP3   OH279266   5.412   2.220   5.258  0.6440  0.3976  0.3192
19284TIP3    H179267   5.461   2.143   5.286 -1.7592 -0.8584  1.2837
19284TIP3    H279268   5.407   2.275   5.336 -0.3620  0.0130  0.5382
19285TIP3   OH279269   4.278   4.104   1.541  0.1278 -0.4672 -0.3620
19285TIP3    H179270   4.307   4.160   1.613 -2.5412 -0.4925  0.8869
19285TIP3    H279271   4.260   4.019   1.583  2.0886 -1.6890 -1.8228
19286TIP3   OH279272   2.964   4.446   4.454 -0.0566  0.0720 -0.0114
19286TIP3    H179273   2.912   4.367   4.470 -0.3515  0.5122  1.3540
19286TIP3    H279274   2.919   4.490   4.382 -1.3566  0.2246  0.8625
19287TIP3   OH279275   4.892   2.584   3.656 -0.1559  0.7084  0.8476
19287TIP3    H179276   4.807   2.627   3.667 -0.9397 -0.2779 -0.9451
19287TIP3    H279277   4.911   2.592   3.563  1.0085 -0.3798  0.9688
19288TIP3   OH279278   5.168   2.389   0.004  0.0569  1.1116  0.2624
19288TIP3    H179279   5.156   2.297  -0.018 -1.0155  1.4692 -0.7845
19288TIP3    H279280   5.144   2.436  -0.077 -0.0568  2.3218  0.9744
19289TIP3   OH279281   4.196   2.125  12.885  0.2110 -0.3034  0.1214
19289TIP3    H179282   4.123   2.088  12.836 -0.2571  0.6091  0.0956
19289TIP3    H279283   4.173   2.111  12.977 -0.0719  0.0993  0.1162
19290TIP3   OH279284   5.079   6.504   2.634  0.0939 -0.3955  0.0017
19290TIP3    H179285   4.985   6.512   2.616  0.2737 -0.0847 -0.8394
19290TIP3    H279286   5.099   6.577   2.692  0.4309  1.5674 -2.4090
19291TIP3   OH279287   0.379   1.112  16.786 -0.3596  0.2438 -0.2864
19291TIP3    H179288   0.398   1.175  16.716 -0.8276  0.5618 -0.1342
19291TIP3    H279289   0.432   1.035  16.764 -0.5531  0.3160 -1.0234
19292TIP3   OH279290   1.799   6.502  11.851  0.1449  0.4273 -0.1695
19292TIP3    H179291   1.840   6.427  11.893  2.0525  0.8414 -1.1824
19292TIP3    H279292   1.792   6.568  11.920 -1.1235 -0.4857  0.6096
19293TIP3   OH279293   2.877   6.253  12.621 -0.0448  0.4171  0.5659
19293TIP3    H179294   2.867   6.263  12.527 -0.5306 -0.1025  0.5613
19293TIP3    H279295   2.800   6.204  12.649  1.4673 -1.9812  0.7984
19294TIP3   OH279296   2.102   3.260   0.670  0.5767  0.4110  0.2995
19294TIP3    H179297   2.165   3.275   0.740 -0.8720  1.7822  1.3629
19294TIP3    H279298   2.029   3.215   0.712  0.4239 -0.3535 -0.7277
19295TIP3   OH279299   1.554   4.946  16.716 -0.2353  0.4138 -0.3642
19295TIP3    H179300   1.617   4.908  16.777  0.0221  2.8293  1.0281
19295TIP3    H279301   1.474   4.959  16.768 -1.0779 -0.3123 -1.4232
19296TIP3   OH279302   0.120   5.688  11.613  0.1782 -0.3126 -0.0332
19296TIP3    H179303   0.189   5.643  11.566 -0.6365  0.3279 -1.9265
19296TIP3    H279304   0.058   5.715  11.546 -1.5461 -0.1987  1.5120
19297TIP3   OH279305   6.563   5.365   4.791  0.5760  0.4036 -0.3171
19297TIP3    H179306   6.516   5.282   4.795 -0.6277  1.1376  1.5979
19297TIP3    H279307   6.655   5.341   4.805  0.2694 -0.6216 -0.0015
19298TIP3   OH279308   4.320   5.088   0.761  0.2222 -0.4014 -0.2789
19298TIP3    H179309   4.291   5.037   0.836  0.5260 -1.6445 -0.9802
19298TIP3    H279310   4.246   5.087   0.701 -0.5126  1.7176  0.5272
19299TIP3   OH279311   0.699   4.961  10.604 -0.1020  0.4395 -0.5257
19299TIP3    H179312   0.764   4.914  10.656 -1.2586 -1.0845 -0.4123
19299TIP3    H279313   0.752   5.007  10.538  1.1058 -0.8677 -0.5336
19300TIP3   OH279314   0.488   3.300  15.986 -0.2567 -0.0313 -0.2079
19300TIP3    H179315   0.517   3.252  16.064  1.5070  0.1426 -0.7079
19300TIP3    H279316   0.413   3.352  16.017 -1.0185 -1.6277  0.8002
19301TIP3   OH279317   2.985   1.199  16.823 -0.0914  0.4658 -0.0680
19301TIP3    H179318   2.901   1.172  16.785  0.6788 -2.5319  0.1569
19301TIP3    H279319   2.967   1.207  16.916 -0.1813 -0.0037 -0.0429
19302TIP3   OH279320   6.529   1.462   0.575  0.4346 -0.7650  0.1058
19302TIP3    H179321   6.591   1.535   0.575  0.2565 -0.5956  1.6923
19302TIP3    H279322   6.562   1.404   0.506  1.5268  0.0033 -0.0581
19303TIP3   OH279323   3.785   6.236  11.340  0.5925  0.6446 -0.7745
19303TIP3    H179324   3.719   6.305  11.336 -0.3290 -0.1919 -0.4022
19303TIP3    H279325   3.807   6.229  11.433 -2.3069 -2.2293 -0.1084
19304TIP3   OH279326   1.369   4.603  16.855  0.3821  0.5167  0.1696
19304TIP3    H179327   1.443   4.565  16.902  0.8217 -1.0616 -1.6834
19304TIP3    H279328   1.303   4.534  16.854 -1.0356  1.7765  1.4587
19305TIP3   OH279329   5.877   4.433   4.155 -0.3383  0.1364  0.2143
19305TIP3    H179330   5.959   4.404   4.115 -0.2397  0.0261  0.4865
19305TIP3    H279331   5.812   4.428   4.085  0.2800  2.1569 -0.5728
19306TIP3   OH279332   6.335   0.242   4.421  0.0053  0.1019 -1.1019
19306TIP3    H179333   6.358   0.176   4.355  1.6406 -0.3457 -0.1248
19306TIP3    H279334   6.255   0.282   4.387  0.1579 -0.9125 -2.7777
19307TIP3   OH279335   2.526   3.855   1.094  0.2961 -0.3244  0.3043
19307TIP3    H179336   2.597   3.798   1.064  1.3106  1.2324 -0.4080
19307TIP3    H279337   2.459   3.849   1.026  0.8387  0.0876 -0.2777
19308TIP3   OH279338   5.369   6.339   0.587 -0.1213 -0.0912 -0.3585
19308TIP3    H179339   5.299   6.367   0.528 -0.3291 -0.2069 -0.1669
19308TIP3    H279340   5.402   6.258   0.549 -0.0135  0.0245 -0.5121
19309TIP3   OH279341   6.448   2.784   6.448  0.5458  0.4675  0.0916
19309TIP3    H179342   6.489   2.760   6.364 -1.0181 -0.8877 -0.3391
19309TIP3    H279343   6.354   2.769   6.434  0.4137 -2.1388  2.7853
19310TIP3   OH279344   4.384   1.344  13.321  0.0454  0.4646 -0.5513
19310TIP3    H179345   4.428   1.274  13.369 -1.4026  0.0338  0.1918
19310TIP3    H279346   4.388   1.419  13.379  0.0867  0.5245 -0.6307
19311TIP3   OH279347   5.820   3.986  10.828 -0.3430  0.3903 -0.2269
19311TIP3    H179348   5.785   3.898  10.841  0.4221 -0.3685 -2.6817
19311TIP3    H279349   5.761   4.026  10.765  0.5391  0.7934 -0.8297
19312TIP3   OH279350   1.477   4.053   3.933 -0.2048 -0.4708 -0.1041
19312TIP3    H179351   1.457   3.989   3.865 -0.9075  1.5982 -1.9380
19312TIP3    H279352   1.537   4.115   3.892  0.7412 -0.1003  1.7206
19313TIP3   OH279353   2.489   1.893  13.886 -0.1977  0.2056 -0.3105
19313TIP3    H179354   2.436   1.960  13.930  0.1372  0.0165  0.4024
19313TIP3    H279355   2.521   1.837  13.957 -2.1128 -1.9419 -1.0189
19314TIP3   OH279356   3.110   1.015   0.425  0.7945  0.2651 -0.6684
19314TIP3    H179357   3.193   0.975   0.397  0.2376  0.2175 -2.3563
19314TIP3    H279358   3.136   1.098   0.465  1.7062 -0.1307 -0.4033
19315TIP3   OH279359   5.141   5.868  13.858  0.8392  0.1806  0.4953
19315TIP3    H179360   5.087   5.947  13.861  0.4075 -0.1238  0.7541
19315TIP3    H279361   5.205   5.880  13.928 -0.6269 -0.7014  2.0584
19316TIP3   OH279362   3.082   4.758   0.021  0.7580 -0.5592 -0.5901
19316TIP3    H179363   3.052   4.848   0.006 -2.3485 -1.3958 -0.2003
19316TIP3    H279364   3.113   4.728  -0.064 -1.1817 -0.0748 -1.5287
19317TIP3   OH279365   0.975   5.064   3.164  0.0941 -0.2847  0.5950
19317TIP3    H179366   0.916   5.111   3.105  0.0518 -0.3483  0.5861
19317TIP3    H279367   1.054   5.118   3.167  1.3318 -1.7690 -1.9658
19318TIP3   OH279368   6.735   2.783   0.175  0.6229  0.0626 -0.1006
19318TIP3    H179369   6.720   2.778   0.081 -0.1397 -1.3946  0.0648
19318TIP3    H279370   6.726   2.693   0.206  1.0638  0.4808  1.3389
19319TIP3   OH279371   6.379   1.701  13.797  0.0614  0.1239 -0.3997
19319TIP3    H179372   6.384   1.641  13.723 -2.1713  0.4600 -0.8959
19319TIP3    H279373   6.286   1.710  13.814  0.3595  2.6454  0.3249
19320TIP3   OH279374   5.621   6.584   2.800 -0.2425  0.0704  0.1613
19320TIP3    H179375   5.694   6.617   2.852  0.4088  1.3673 -1.4881
19320TIP3    H279376   5.566   6.661   2.784  0.6282  0.2259 -2.6944
19321TIP3   OH279377   2.860   6.176  14.398  0.2660 -0.2978 -0.0266
19321TIP3    H179378   2.907   6.195  14.316 -0.4608 -1.2051 -0.6714
19321TIP3    H279379   2.775   6.218  14.387 -0.1338 -1.1055 -0.0856
19322TIP3   OH279380   0.521   5.315   1.146  0.0627  0.0616  0.1448
19322TIP3    H179381   0.544   5.369   1.071  1.1579 -0.7176 -0.0976
19322TIP3    H279382   0.473   5.241   1.108  0.6033 -0.3249  0.1984
19323TIP3   OH279383   5.410   0.655  11.350  0.1443  0.3319 -0.2968
19323TIP3    H179384   5.465   0.593  11.397 -1.4907 -2.7399 -2.0868
19323TIP3    H279385   5.423   0.633  11.257 -2.0545  1.2302 -0.8913
19324TIP3   OH279386   2.109   4.245   2.821  0.2238  0.1219  0.1900
19324TIP3    H179387   2.058   4.166   2.837 -1.7010  1.1973 -0.3068
19324TIP3    H279388   2.190   4.214   2.780 -0.2268 -1.6136  0.5651
19325TIP3   OH279389   0.572   4.314  16.701  0.7466 -0.5214  0.6016
19325TIP3    H179390   0.591   4.360  16.620  0.3159  0.2274  0.9194
19325TIP3    H279391   0.627   4.355  16.766 -0.1656  0.0528  1.0336
19326TIP3   OH279392   2.217   6.452  16.019 -0.0578 -0.2368 -1.0284
19326TIP3    H179393   2.181   6.505  16.090 -2.2610 -2.4765 -0.3461
19326TIP3    H279394   2.307   6.434  16.045 -0.1348  0.8407  0.0640
19327TIP3   OH279395   5.891   0.413  11.421  0.5124  0.0383  0.7608
19327TIP3    H179396   5.822   0.476  11.440  2.5963  2.8804 -0.3954
19327TIP3    H279397   5.928   0.391  11.506 -0.7039 -0.2081  1.2367
19328TIP3   OH279398   3.691   2.181   2.635 -0.0618  0.1342 -0.6262
19328TIP3    H179399   3.634   2.243   2.588 -1.4004  0.4906  1.3273
19328TIP3    H279400   3.643   2.162   2.716  0.9533 -2.4461 -0.5521
19329TIP3   OH279401   3.572   3.002  13.272  0.2407 -1.1500  0.3764
19329TIP3    H179402   3.548   2.929  13.214 -0.4586 -0.2919 -0.4428
19329TIP3    H279403   3.489   3.036  13.304  0.3532  0.9575 -1.3642
19330TIP3   OH279404   4.504   1.992  16.547  0.1160 -0.2220 -0.6837
19330TIP3    H179405   4.459   2.018  16.466  0.5127  1.6581 -0.3663
19330TIP3    H279406   4.544   1.908  16.526 -1.8545 -0.9924 -1.6192
19331TIP3   OH279407   4.170   0.279   3.590  0.0397 -0.7291 -0.1289
19331TIP3    H179408   4.148   0.237   3.673  2.5743 -0.3109  0.8491
19331TIP3    H279409   4.099   0.253   3.531 -2.3835 -0.2766  2.3452
19332TIP3   OH279410   2.891   2.335  14.552  0.1268  0.2343  0.0809
19332TIP3    H179411   2.796   2.320  14.554 -0.5006  3.1356 -1.3233
19332TIP3    H279412   2.908   2.387  14.631  0.3904  0.3417 -0.0449
19333TIP3   OH279413   0.876   3.393   2.612 -0.1747  0.1001 -0.0353
19333TIP3    H179414   0.802   3.429   2.563  0.6983 -0.8837 -2.1894
19333TIP3    H279415   0.836   3.335   2.677 -1.3240  0.1751 -0.6564
19334TIP3   OH279416   5.427   5.628   5.704 -0.1684  0.0458 -0.2138
19334TIP3    H179417   5.432   5.538   5.736 -0.1090 -0.3218 -1.2120
19334TIP3    H279418   5.490   5.632   5.632  2.2368  1.8024  1.8317
19335TIP3   OH279419   4.478   3.522   5.140  0.0384 -0.2492 -0.1754
19335TIP3    H179420   4.449   3.612   5.126  0.9165  0.1229  0.2786
19335TIP3    H279421   4.500   3.490   5.052  0.5985  0.3063 -0.2514
19336TIP3   OH279422   6.519   4.325  16.033  0.1902 -0.0962  0.0651
19336TIP3    H179423   6.588   4.343  15.969 -0.5914  1.4043 -0.3900
19336TIP3    H279424   6.538   4.383  16.106 -0.9329  0.7996 -0.3326
19337TIP3   OH279425   5.396   2.747   0.404  0.0555 -0.8242  0.0310
19337TIP3    H179426   5.352   2.681   0.351  1.1695 -1.5852  0.0023
19337TIP3    H279427   5.453   2.793   0.343  0.1322 -0.6063  0.2650
19338TIP3   OH279428   3.150   0.289   1.376 -0.1339  0.1632  0.1090
19338TIP3    H179429   3.158   0.262   1.467 -1.5881  0.0978  0.2545
19338TIP3    H279430   3.240   0.298   1.344  0.4036  1.0383  1.7861
19339TIP3   OH279431   1.247   0.772   5.583 -1.0033 -0.1977 -0.5314
19339TIP3    H179432   1.279   0.699   5.530 -0.5334  0.2698 -0.9017
19339TIP3    H279433   1.160   0.745   5.611 -0.3560 -1.4264  0.3721
19340TIP3   OH279434   6.598   0.786  11.856 -0.2141  0.2591 -0.6005
19340TIP3    H179435   6.531   0.793  11.924  0.3673  0.5771 -0.0470
19340TIP3    H279436   6.592   0.870  11.809  0.7674  0.8894  0.3759
19341TIP3   OH279437   0.860   3.006   3.410  0.3409  0.5968 -0.0282
19341TIP3    H179438   0.897   2.986   3.324 -2.1622 -0.8444 -0.8714
19341TIP3    H279439   0.899   2.939   3.467  1.4594  1.1075 -0.1604
19342TIP3   OH279440   2.227   4.131  15.110 -0.0946 -0.7587 -0.2517
19342TIP3    H179441   2.295   4.070  15.140  0.5486  0.3630  0.7014
19342TIP3    H279442   2.272   4.189  15.048 -0.0661  0.1763  0.6060
19343TIP3   OH279443   5.972   0.719   0.551  0.0051 -0.0986 -0.8795
19343TIP3    H179444   6.004   0.726   0.641 -2.4522  0.2436  0.0317
19343TIP3    H279445   6.045   0.750   0.497  2.1750 -1.9038  0.8256
19344TIP3   OH279446   4.713   5.004  16.165  0.6704  0.1918 -0.0784
19344TIP3    H179447   4.666   5.004  16.081 -1.8349  3.6156  1.0803
19344TIP3    H279448   4.754   5.090  16.169  2.3364 -0.6077  1.4724
19345TIP3   OH279449   6.065   3.328   4.273 -0.0251  0.0161 -0.3445
19345TIP3    H179450   6.059   3.233   4.283 -1.6641  0.2182  1.0021
19345TIP3    H279451   6.086   3.341   4.180 -0.4853 -1.6403 -0.7125
19346TIP3   OH279452   2.150   5.347  14.312  0.1238 -0.1657 -0.2304
19346TIP3    H179453   2.147   5.294  14.232 -0.6815 -1.4903  0.6346
19346TIP3    H279454   2.114   5.432  14.286  2.3487  0.3671 -1.8903
19347TIP3   OH279455   4.617   6.682   0.977 -0.2492 -0.1521  0.6512
19347TIP3    H179456   4.710   6.687   1.001  0.0090  1.5092 -0.5636
19347TIP3    H279457   4.606   6.592   0.945  1.1804 -0.1063 -0.0473
19348TIP3   OH279458   3.581   3.653   6.343 -0.4054 -0.3704  0.3130
19348TIP3    H179459   3.602   3.566   6.311 -0.2189 -0.4271  0.5896
19348TIP3    H279460   3.634   3.664   6.422  1.2985  0.8555 -0.9132
19349TIP3   OH279461   0.847   2.620   1.497 -0.2271  0.4850 -0.1538
19349TIP3    H179462   0.888   2.657   1.575 -1.4811  0.0041  0.7811
19349TIP3    H279463   0.912   2.561   1.460 -0.3385 -0.9549  1.7921
19350TIP3   OH279464   5.035   6.365   4.632 -0.0350  0.7091  0.3353
19350TIP3    H179465   5.011   6.273   4.636 -1.2035  0.8949 -1.5264
19350TIP3    H279466   5.119   6.366   4.585 -0.0066  0.6074  0.3833
19351TIP3   OH279467   0.402   0.199  13.482 -0.0925  0.5367 -0.0796
19351TIP3    H179468   0.426   0.107  13.490  0.3101  0.6231 -0.2233
19351TIP3    H279469   0.400   0.231  13.572 -2.1527 -0.0670  0.1222
19352TIP3   OH279470   4.849   6.066   1.379  0.1690 -0.5611 -0.4274
19352TIP3    H179471   4.860   6.013   1.458 -1.2558 -0.7242 -0.3162
19352TIP3    H279472   4.776   6.025   1.333 -0.8871  1.2343 -0.4118
19353TIP3   OH279473   0.456   3.930  17.341 -0.0901  0.2000  0.6643
19353TIP3    H179474   0.538   3.918  17.293  0.0046  1.2254  0.5334
19353TIP3    H279475   0.445   3.849  17.391  0.1514 -0.6176 -0.5698
19354TIP3   OH279476   5.698   6.618  16.679 -0.2216  0.3543  0.3546
19354TIP3    H179477   5.687   6.530  16.643  3.0935  1.0341 -2.9371
19354TIP3    H279478   5.644   6.674  16.623 -0.8684  0.6716  1.2687
19355TIP3   OH279479   1.565   2.488  17.057  0.1095 -0.2903 -0.1013
19355TIP3    H179480   1.514   2.462  17.134  0.5322  0.3543  0.4094
19355TIP3    H279481   1.640   2.429  17.058  0.5299  0.2330  0.4582
19356TIP3   OH279482   2.128   2.732  14.945 -0.7383  0.0020  0.0189
19356TIP3    H179483   2.073   2.807  14.967  1.8704  1.7726  0.9638
19356TIP3    H279484   2.107   2.714  14.853 -0.8784  2.4706 -0.5220
19357TIP3   OH279485   4.871   6.241  16.034  0.2327 -0.6792 -0.3635
19357TIP3    H179486   4.880   6.312  15.970  1.2377 -1.5406 -1.2066
19357TIP3    H279487   4.861   6.286  16.118  1.0841  0.4593 -0.8469
19358TIP3   OH279488   6.006   2.994   5.487 -0.4859  0.3889  0.2029
19358TIP3    H179489   5.994   2.999   5.582  1.1189  0.3545  0.4353
19358TIP3    H279490   5.974   3.078   5.455 -1.5152  0.2064  0.7055
19359TIP3   OH279491   4.857   3.605   5.845 -0.7157  0.2633  0.0245
19359TIP3    H179492   4.856   3.511   5.865  1.1031 -0.3298 -2.2678
19359TIP3    H279493   4.799   3.614   5.770  1.0075  0.5132 -1.3245
19360TIP3   OH279494   5.419   4.087  14.730  0.2452 -0.4181  0.7543
19360TIP3    H179495   5.484   4.157  14.740  3.3336 -2.6808 -1.5245
19360TIP3    H279496   5.437   4.028  14.804 -1.1745  0.2337  1.6699
19361TIP3   OH279497   3.067   2.846  12.580  0.1955  0.1826  0.3660
19361TIP3    H179498   3.062   2.932  12.538 -1.3963 -0.1002 -0.0934
19361TIP3    H279499   2.999   2.795  12.537  1.9300 -1.7294 -0.2831
19362TIP3   OH279500   1.583   5.908   0.028 -0.6287  0.0648 -0.4158
19362TIP3    H179501   1.545   5.951  -0.048  1.3793  0.5509 -1.2154
19362TIP3    H279502   1.628   5.977   0.076  0.5033 -0.6966 -0.3343
19363TIP3   OH279503   5.723   3.237   5.446 -0.0719  0.1481 -0.0627
19363TIP3    H179504   5.817   3.246   5.427  0.2538 -2.4685 -0.1457
19363TIP3    H279505   5.687   3.324   5.433  2.3627  1.2435  0.0251
19364TIP3   OH279506   6.534   5.284  14.997 -0.3247 -0.0922 -0.4152
19364TIP3    H179507   6.478   5.210  15.023  1.8047 -1.6357  0.0942
19364TIP3    H279508   6.539   5.278  14.902 -0.4156 -0.4574 -0.4009
19365TIP3   OH279509   6.339   5.259   3.589 -0.7534  0.1020  0.5090
19365TIP3    H179510   6.312   5.190   3.650  0.5884  1.1640  2.4025
19365TIP3    H279511   6.391   5.319   3.642 -1.6920  2.4984 -1.1044
19366TIP3   OH279512   0.696   3.254  15.816  0.1687  0.3175  0.0014
19366TIP3    H179513   0.697   3.163  15.785  0.6697 -0.8783  3.1436
19366TIP3    H279514   0.611   3.263  15.859  0.2546  1.2639 -0.0195
19367TIP3   OH279515   6.285   4.647   0.563 -0.3025 -0.2162 -0.6054
19367TIP3    H179516   6.378   4.670   0.552 -0.0668 -0.5863  0.5076
19367TIP3    H279517   6.238   4.728   0.548  0.3218  0.3591  0.4434
19368TIP3   OH279518   3.821   4.363   4.209 -0.5154  0.6890  0.1329
19368TIP3    H179519   3.866   4.377   4.292 -0.0008 -0.4763  0.0643
19368TIP3    H279520   3.888   4.326   4.151 -0.5392  2.5130 -1.1868
19369TIP3   OH279521   6.636   2.969  12.137 -0.7606  0.6005  0.2359
19369TIP3    H179522   6.673   3.031  12.199 -0.4567 -0.8590  1.5806
19369TIP3    H279523   6.555   2.938  12.179 -1.5877  0.9954 -0.9888
19370TIP3   OH279524   6.271   1.068   5.321 -0.1498  0.1034  0.0058
19370TIP3    H179525   6.234   1.135   5.263 -1.3265  0.6210  1.2966
19370TIP3    H279526   6.207   1.059   5.392  1.1268 -0.6743  1.1205
19371TIP3   OH279527   3.752   3.331   5.562 -0.0804  0.1674 -0.2920
19371TIP3    H179528   3.748   3.239   5.590  2.0050  0.2534  0.4534
19371TIP3    H279529   3.784   3.327   5.472 -0.4455  0.1576 -0.4239
19372TIP3   OH279530   1.512   3.956   2.391  0.3368 -0.4980 -0.0450
19372TIP3    H179531   1.471   3.872   2.369  1.1204 -1.4604  1.9311
19372TIP3    H279532   1.604   3.934   2.406  0.2160  0.3115  2.3192
19373TIP3   OH279533   4.809   6.605  14.919  0.5377 -0.1062  0.9231
19373TIP3    H179534   4.723   6.608  14.961  1.4621 -1.9929  3.1519
19373TIP3    H279535   4.798   6.655  14.839 -1.9592  1.8106  2.3345
19374TIP3   OH279536   1.576   5.420   5.930  0.0100  0.5074 -0.7804
19374TIP3    H179537   1.617   5.506   5.943  0.9618 -0.0951  0.4459
19374TIP3    H279538   1.639   5.358   5.966 -0.4666 -0.7595 -2.0534
19375TIP3   OH279539   3.821   5.447   1.133  0.1468  0.1197  0.2597
19375TIP3    H179540   3.768   5.421   1.209 -3.2376  1.2465 -1.5042
19375TIP3    H279541   3.761   5.440   1.059  2.6066  1.3777 -2.0098
19376TIP3   OH279542   3.921   2.843  15.932  0.2905 -0.4801  0.4704
19376TIP3    H179543   3.911   2.935  15.956  0.4708 -0.0396 -1.0168
19376TIP3    H279544   3.920   2.844  15.836  0.9877 -1.9453  0.4327
19377TIP3   OH279545   3.827   4.168   2.287  0.6234 -0.7681 -0.2557
19377TIP3    H179546   3.871   4.225   2.224 -2.3655  0.0200 -1.8039
19377TIP3    H279547   3.865   4.082   2.273  2.5013  0.0769 -0.6126
19378TIP3   OH279548   1.319   2.072  12.904 -0.0347  0.0776 -0.2507
19378TIP3    H179549   1.374   2.023  12.843 -2.3844 -0.0365 -2.4722
19378TIP3    H279550   1.297   2.152  12.857  1.3175  1.9832  2.1404
19379TIP3   OH279551   1.267   5.359  13.746  0.1059 -0.0021 -0.4100
19379TIP3    H179552   1.187   5.405  13.771 -0.4473 -0.8886 -0.5146
19379TIP3    H279553   1.252   5.334  13.655  0.9329  0.7227 -0.7576
19380TIP3   OH279554   0.928   0.166  16.050  0.0055  0.4108 -0.2824
19380TIP3    H179555   0.894   0.083  16.019  0.4990 -0.2293  0.8234
19380TIP3    H279556   0.913   0.227  15.978  0.8993 -0.9444 -1.6614
19381TIP3   OH279557   4.574   4.934  12.488 -0.1006  0.6457  0.1443
19381TIP3    H179558   4.507   4.869  12.511  0.2172 -0.2660 -1.3734
19381TIP3    H279559   4.532   5.018  12.505 -2.0256  0.1253 -1.6583
19382TIP3   OH279560   6.421   5.019   3.398  0.0206  0.2176  0.3645
19382TIP3    H179561   6.367   5.006   3.476  0.7579 -1.7636  0.6255
19382TIP3    H279562   6.507   5.043   3.433  0.3269 -0.5799  0.1921
19383TIP3   OH279563   2.548   2.674   0.711 -0.2307 -0.1879  0.5314
19383TIP3    H179564   2.595   2.754   0.736 -3.1397  1.3736  1.5353
19383TIP3    H279565   2.584   2.651   0.625  1.4403  1.5840  0.6835
19384TIP3   OH279566   6.307   5.166   0.307  0.2445  0.3607  0.0845
19384TIP3    H179567   6.352   5.098   0.257 -1.0659 -0.8890  0.5306
19384TIP3    H279568   6.219   5.131   0.321 -0.1221  1.6755  1.2977
19385TIP3   OH279569   1.806   0.391   3.567  0.2868 -1.1098  0.3784
19385TIP3    H179570   1.826   0.464   3.626 -0.3212 -1.4380  0.9996
19385TIP3    H279571   1.852   0.413   3.486 -0.1095  0.1090  0.4558
19386TIP3   OH279572   4.481   6.256  14.290  0.8967 -0.4211  0.0234
19386TIP3    H179573   4.392   6.290  14.292  0.0130 -2.4189 -1.5740
19386TIP3    H279574   4.534   6.330  14.260 -0.5919  0.2179 -1.2015
19387TIP3   OH279575   3.407   6.648   3.519 -0.0666 -0.4818  0.1170
19387TIP3    H179576   3.440   6.734   3.493 -4.3925  0.7485 -2.2922
19387TIP3    H279577   3.336   6.667   3.580  0.4524 -2.6107  1.5011
19388TIP3   OH279578   5.233   2.682  11.780  0.3767 -0.6983  0.7742
19388TIP3    H179579   5.225   2.709  11.871  0.9643 -1.8563  1.1862
19388TIP3    H279580   5.183   2.600  11.774  1.6134 -1.4665  0.4582
19389TIP3   OH279581   4.212   3.665  17.233 -0.0289  0.5289  0.4875
19389TIP3    H179582   4.260   3.588  17.263 -0.5836  0.0436  0.1475
19389TIP3    H279583   4.184   3.642  17.145  0.3962  1.3999  0.1156
19390TIP3   OH279584   3.079   3.505  12.025  0.6338  1.0713 -0.1350
19390TIP3    H179585   3.023   3.510  12.103  1.3489  1.4398  0.3729
19390TIP3    H279586   3.044   3.570  11.965 -1.1633 -0.5765 -0.9810
19391TIP3   OH279587   5.924   0.195  12.253 -0.2410  0.8506 -0.3810
19391TIP3    H179588   5.841   0.237  12.273 -0.8277 -0.6339  0.4422
19391TIP3    H279589   5.919   0.172  12.161 -1.1392 -0.0416 -0.1246
19392TIP3   OH279590   0.873   0.781   3.595  0.3091  0.0481 -0.5397
19392TIP3    H179591   0.959   0.744   3.614  0.1910 -0.1110 -0.3095
19392TIP3    H279592   0.814   0.705   3.593  0.3045  0.0635 -1.4834
19393TIP3   OH279593   6.504   0.051   0.774 -0.0168 -0.3777 -0.4628
19393TIP3    H179594   6.439   0.113   0.741 -1.1988  0.1736  2.5314
19393TIP3    H279595   6.462  -0.035   0.768 -0.7422 -0.1242  0.6819
19394TIP3   OH279596   4.454   6.205   1.679 -0.2340 -0.0475 -0.4301
19394TIP3    H179597   4.487   6.121   1.649  1.5199  0.7238 -0.7645
19394TIP3    H279598   4.529   6.264   1.676 -0.8722  1.0219  1.8761
19395TIP3   OH279599   0.666   0.381   3.137  0.1891 -0.1977 -0.0457
19395TIP3    H179600   0.573   0.374   3.159  0.2566 -0.4469  0.1652
19395TIP3    H279601   0.695   0.290   3.128  0.4384 -0.1223  0.0006
19396TIP3   OH279602   3.532   2.144   1.608  0.2099  0.1534  0.0421
19396TIP3    H179603   3.456   2.198   1.629 -0.7871 -1.9622  2.4806
19396TIP3    H279604   3.584   2.143   1.688  0.0182 -2.6306  0.2368
19397TIP3   OH279605   0.602   6.021  13.866  0.0423  0.0274  0.6071
19397TIP3    H179606   0.530   5.965  13.894  0.1082  0.3580  1.4763
19397TIP3    H279607   0.576   6.109  13.894  0.7016  0.1702  0.7836
19398TIP3   OH279608   6.226   6.496   5.413  0.2503  0.2325  0.5159
19398TIP3    H179609   6.316   6.503   5.383 -0.0703  0.8438 -0.3317
19398TIP3    H279610   6.203   6.404   5.399  1.3710 -0.4517  2.6462
19399TIP3   OH279611   3.410   0.765  13.327 -0.3804  0.0458 -0.2322
19399TIP3    H179612   3.444   0.840  13.375 -0.7060 -0.6163  1.0790
19399TIP3    H279613   3.455   0.690  13.366 -0.0495 -0.4492 -1.5270
19400TIP3   OH279614   6.057   4.706  14.175 -0.2449  0.4169  0.1937
19400TIP3    H179615   6.086   4.615  14.186  0.1260  0.6993  1.8761
19400TIP3    H279616   6.128   4.758  14.214 -1.9348  1.2450  2.3447
19401TIP3   OH279617   5.533   0.636   5.129 -0.0950 -0.0771  0.0196
19401TIP3    H179618   5.491   0.595   5.053  0.3168  1.3471 -1.0232
19401TIP3    H279619   5.603   0.576   5.153 -1.5439 -1.5820  0.6367
19402TIP3   OH279620   6.601   1.977  15.586 -0.6784  0.5188  0.1251
19402TIP3    H179621   6.624   2.064  15.554  1.4300 -0.6326 -1.7813
19402TIP3    H279622   6.557   1.935  15.512  1.5349 -1.1775 -0.3230
19403TIP3   OH279623   5.394   6.044   4.195 -0.6420  0.0029  0.2320
19403TIP3    H179624   5.329   5.983   4.161 -2.6830  1.0473  1.9712
19403TIP3    H279625   5.459   5.989   4.238 -1.9488 -1.0039  0.9907
19404TIP3   OH279626   4.381   3.816  13.300 -0.9712  0.5644  0.4097
19404TIP3    H179627   4.419   3.846  13.382 -0.4163 -0.8012  0.6766
19404TIP3    H279628   4.307   3.875  13.284 -0.6214  1.3142  1.4831
19405TIP3   OH279629   2.816   0.233   3.551 -0.4300 -0.3473  0.1948
19405TIP3    H179630   2.765   0.251   3.630 -1.3027  0.9128 -0.6065
19405TIP3    H279631   2.846   0.319   3.522  1.6156 -0.9922  0.2517
19406TIP3   OH279632   0.990   0.561  11.270  0.7325 -0.6767  0.7073
19406TIP3    H179633   0.913   0.608  11.302  1.1912  0.7295 -0.1885
19406TIP3    H279634   1.043   0.546  11.349  1.1225  1.3667  0.8906
19407TIP3   OH279635   0.576   5.806  14.198  0.5944 -0.0787 -0.1146
19407TIP3    H179636   0.565   5.724  14.149  2.5419 -0.8946  0.7330
19407TIP3    H279637   0.651   5.848  14.156  0.4822  0.5931  0.3573
19408TIP3   OH279638   3.838   4.611   5.478  0.1819 -0.3262 -0.1119
19408TIP3    H179639   3.897   4.605   5.403  1.6730  0.9811  0.8882
19408TIP3    H279640   3.847   4.527   5.522  0.0445 -0.7412 -0.8630
19409TIP3   OH279641   6.334   1.945  14.909 -0.8626  0.1533 -0.0453
19409TIP3    H179642   6.303   2.022  14.956 -2.4381  0.3018 -1.2566
19409TIP3    H279643   6.386   1.980  14.837 -0.6776  0.0351  0.0293
19410TIP3   OH279644   3.641   2.402  16.558  0.2470  0.0881  0.1045
19410TIP3    H179645   3.580   2.384  16.630  1.3623 -0.0180  1.0634
19410TIP3    H279646   3.599   2.471  16.507 -1.4256 -1.1296 -0.2415
19411TIP3   OH279647   3.151   5.474  12.023  0.5383  0.0978 -0.0912
19411TIP3    H179648   3.219   5.535  11.993 -0.0097  1.0825  0.6142
19411TIP3    H279649   3.193   5.388  12.019  1.3294  0.5117 -1.1146
19412TIP3   OH279650   0.888   1.419  12.041 -0.1040 -0.2717  0.3008
19412TIP3    H179651   0.872   1.444  11.951 -1.6429  0.0838  0.6380
19412TIP3    H279652   0.935   1.493  12.079  0.0154 -0.1654 -0.0532
19413TIP3   OH279653   1.194   6.582   4.514 -0.2595 -0.5699 -0.6589
19413TIP3    H179654   1.193   6.583   4.418  2.3822 -0.7016 -0.7531
19413TIP3    H279655   1.167   6.493   4.537 -2.5473 -0.0738 -1.1527
19414TIP3   OH279656   4.090   1.770  16.022  0.0148  0.2908 -0.3161
19414TIP3    H179657   4.053   1.850  15.984  0.5433  0.6675 -0.0451
19414TIP3    H279658   4.044   1.699  15.976 -2.1662  0.7196  1.0224
19415TIP3   OH279659   6.319   5.814  15.186 -0.4681 -0.4965  0.2553
19415TIP3    H179660   6.374   5.753  15.136 -1.9448 -0.2644 -1.7493
19415TIP3    H279661   6.359   5.900  15.171 -0.3773 -0.5390  0.2510
19416TIP3   OH279662   3.506   6.333  11.125  0.0638 -0.1882 -0.4547
19416TIP3    H179663   3.459   6.289  11.055 -1.4224  0.8882 -0.1759
19416TIP3    H279664   3.514   6.424  11.095 -0.7691  0.3296  0.8168
19417TIP3   OH279665   1.168   4.321   6.123  0.0898 -0.5902  0.0981
19417TIP3    H179666   1.224   4.340   6.048  1.2325 -0.2684  0.9984
19417TIP3    H279667   1.147   4.228   6.115  0.4120 -0.6158 -0.4683
19418TIP3   OH279668   5.542   3.419  11.877 -0.2512 -0.0780  0.0257
19418TIP3    H179669   5.597   3.410  11.799 -0.1331 -0.6130  0.1656
19418TIP3    H279670   5.459   3.379  11.852 -0.5335  0.5795 -0.1285
19419TIP3   OH279671   2.484   1.279   5.509 -0.6357 -0.4077  0.2516
19419TIP3    H179672   2.391   1.300   5.505 -0.4706  0.3975  0.5075
19419TIP3    H279673   2.517   1.329   5.584 -0.5303 -2.8116  1.9377
19420TIP3   OH279674   6.655   5.106  15.461 -0.3096 -0.4249  0.2918
19420TIP3    H179675   6.646   5.171  15.531  1.7286 -0.4877  0.6996
19420TIP3    H279676   6.594   5.036  15.485 -1.0612  0.4303  0.9368
19421TIP3   OH279677   1.957   0.639   1.707 -1.0614  0.1024 -0.4345
19421TIP3    H179678   2.024   0.585   1.665 -1.8042 -0.1746 -1.2807
19421TIP3    H279679   1.962   0.615   1.800  0.4323  0.5430 -0.3666
19422TIP3   OH279680   4.040   0.423  16.825  0.1355 -0.7860 -0.4292
19422TIP3    H179681   4.118   0.471  16.797 -0.7543  0.0200 -1.6517
19422TIP3    H279682   3.971   0.454  16.766 -1.8223  0.7707  2.4140
19423TIP3   OH279683   2.255   1.134   5.243 -0.1886 -0.4978 -0.5268
19423TIP3    H179684   2.320   1.079   5.199  2.9175  0.8227  1.9803
19423TIP3    H279685   2.233   1.200   5.177  1.5999 -0.5793 -1.2867
19424TIP3   OH279686   4.640   3.250   3.133  0.5541  0.3996  0.1173
19424TIP3    H179687   4.582   3.207   3.196  1.0719 -1.7315 -0.7786
19424TIP3    H279688   4.681   3.321   3.183 -0.2135 -0.2387  1.7300
19425TIP3   OH279689   4.650   2.061   0.032  0.3577 -0.0679  0.0429
19425TIP3    H179690   4.703   2.112  -0.029 -1.1973  1.4391 -0.1283
19425TIP3    H279691   4.599   2.003  -0.025  0.4376 -0.1548  0.0605
19426TIP3   OH279692   5.246   6.387  13.990  0.4732  0.2268  0.2694
19426TIP3    H179693   5.153   6.408  13.988  0.6661  1.5296  2.0342
19426TIP3    H279694   5.254   6.303  13.945 -1.6400 -0.2178  0.6572
19427TIP3   OH279695   6.635   2.446   4.960 -0.1413 -0.2062  0.5753
19427TIP3    H179696   6.604   2.379   5.022 -1.4366 -0.0781  0.0951
19427TIP3    H279697   6.567   2.450   4.894  0.1376  1.2826  0.3588
19428TIP3   OH279698   2.890   2.483   5.574 -0.0016 -0.0153  0.1909
19428TIP3    H179699   2.952   2.477   5.501  1.4161  0.4870  1.3094
19428TIP3    H279700   2.804   2.488   5.532  0.6640 -1.1541 -1.3891
19429TIP3   OH279701   1.666   6.263   4.412 -0.1807 -0.0537  0.0958
19429TIP3    H179702   1.592   6.324   4.408  0.0283  0.2133  0.3006
19429TIP3    H279703   1.717   6.292   4.488 -0.6676 -1.1468  0.8542
19430TIP3   OH279704   0.076   6.267   1.879 -1.0594  0.4558 -0.7410
19430TIP3    H179705   0.015   6.279   1.952  0.6150 -1.0567  1.0094
19430TIP3    H279706   0.046   6.187   1.836 -0.2606 -0.4172  0.2589
19431TIP3   OH279707   1.709   4.503   5.083 -0.1850 -0.3634 -0.1223
19431TIP3    H179708   1.758   4.424   5.105  0.2981 -0.6376 -1.9913
19431TIP3    H279709   1.623   4.471   5.055 -0.7793 -0.0278  1.2260
19432TIP3   OH279710   4.681   0.934  17.074 -0.1612 -0.5721  0.0536
19432TIP3    H179711   4.667   0.936  16.979  0.7759 -0.8569 -0.1018
19432TIP3    H279712   4.593   0.926  17.111 -0.5621 -0.1596 -0.7794
19433TIP3   OH279713   0.351   5.474   5.501 -0.1465  0.3030 -0.3256
19433TIP3    H179714   0.271   5.476   5.448 -0.2076 -0.9692 -0.3255
19433TIP3    H279715   0.367   5.381   5.515 -0.3219  0.5782  2.2070
19434TIP3   OH279716   5.018   0.269  14.693 -0.2058  0.3887 -0.4730
19434TIP3    H179717   4.977   0.343  14.739 -3.8765 -0.5098 -1.9631
19434TIP3    H279718   4.984   0.192  14.738  1.7239 -0.4683 -0.4102
19435TIP3   OH279719   6.491   1.392  15.435  0.4091  0.2039  0.1725
19435TIP3    H179720   6.586   1.379  15.425  0.3165 -1.0527  0.7025
19435TIP3    H279721   6.453   1.350  15.358  0.2246 -0.4016  0.5908
19436TIP3   OH279722   0.944   4.008   2.143  0.2583 -0.0683 -0.2907
19436TIP3    H179723   0.999   3.951   2.197 -0.8608 -0.7209  0.1814
19436TIP3    H279724   0.947   4.093   2.189  2.0933  0.3653 -1.1122
19437TIP3   OH279725   3.660   6.704  14.324 -0.0879 -0.0787  0.2136
19437TIP3    H179726   3.717   6.641  14.280 -0.7702  0.1523 -1.0256
19437TIP3    H279727   3.583   6.711  14.268 -0.1091  1.7260  0.4100
19438TIP3   OH279728   1.141   3.288   0.083  0.0520  0.1187  0.0854
19438TIP3    H179729   1.099   3.226   0.024 -0.2896  0.4487 -0.0248
19438TIP3    H279730   1.174   3.357   0.026 -0.5192  0.5771  0.2987
19439TIP3   OH279731   0.291   6.473   0.071 -0.0181 -0.2875 -0.3274
19439TIP3    H179732   0.225   6.537   0.044  0.2719 -0.1078 -0.6266
19439TIP3    H279733   0.309   6.494   0.163 -2.1749 -1.9061  0.5397
19440TIP3   OH279734   0.804   4.445  14.565  0.6792 -0.8487 -0.0453
19440TIP3    H179735   0.732   4.400  14.521 -0.6959  0.1882  1.0570
19440TIP3    H279736   0.790   4.428  14.658 -0.0077  1.8865  0.4484
19441TIP3   OH279737   6.442   6.729  12.315  0.4362  0.4701 -0.5584
19441TIP3    H179738   6.383   6.769  12.250 -0.4170  0.9777  0.4904
19441TIP3    H279739   6.385   6.670  12.365  0.3340  2.2922  1.6410
19442TIP3   OH279740   0.936   6.130   0.136 -0.4737 -0.2033  0.3680
19442TIP3    H179741   0.986   6.079   0.199  0.5361  0.4496  0.1058
19442TIP3    H279742   0.888   6.064   0.085  0.2150 -0.8437  0.5403
19443TIP3   OH279743   1.647   2.030   5.866 -0.2278  0.2344 -0.0802
19443TIP3    H179744   1.626   1.952   5.815  1.1854 -0.0735 -0.2459
19443TIP3    H279745   1.725   2.066   5.823 -0.8041  1.7015  0.0479
19444TIP3   OH279746   0.747   6.538  12.938 -0.4395 -0.6139 -0.0232
19444TIP3    H179747   0.747   6.490  13.020 -0.5410 -0.8749 -0.1745
19444TIP3    H279748   0.821   6.501  12.889  1.0554  1.0733  0.8330
19445TIP3   OH279749   2.681   4.367   2.289 -0.5094  0.3999 -0.1009
19445TIP3    H179750   2.733   4.444   2.312 -0.8230  0.6682 -0.2861
19445TIP3    H279751   2.710   4.299   2.351 -0.5005  0.7740  0.3089
19446TIP3   OH279752   5.665   6.070  16.876  0.3410  0.0618  0.0498
19446TIP3    H179753   5.616   6.045  16.798  1.5102  1.1654 -1.0817
19446TIP3    H279754   5.599   6.108  16.934 -0.2899  0.9377 -1.1812
19447TIP3   OH279755   4.340   2.241   4.976 -0.1005 -0.1322  1.1025
19447TIP3    H179756   4.377   2.159   5.010 -0.0637 -0.7001 -0.2720
19447TIP3    H279757   4.293   2.215   4.897  1.3244  1.4138 -0.3036
19448TIP3   OH279758   4.807   3.240  14.732 -0.0893 -0.0088 -0.7410
19448TIP3    H179759   4.880   3.233  14.794 -1.2143  0.5397  0.7200
19448TIP3    H279760   4.846   3.222  14.647  1.9469  1.1634 -0.1354
19449TIP3   OH279761   3.676   5.765   1.498 -0.3369  0.5971  0.8650
19449TIP3    H179762   3.639   5.725   1.577 -1.9247  0.6120  0.1775
19449TIP3    H279763   3.600   5.776   1.440  1.0727 -1.4679 -1.5707
19450TIP3   OH279764   0.181   4.577   0.716 -0.4334  0.1964  0.4021
19450TIP3    H179765   0.147   4.522   0.787 -0.7877  0.3704  0.3717
19450TIP3    H279766   0.216   4.654   0.760  1.1064 -0.5518  0.5381
19451TIP3   OH279767   0.853   3.399   4.229  0.0296  0.9783 -0.0414
19451TIP3    H179768   0.803   3.480   4.217 -1.1979  0.1832 -0.4971
19451TIP3    H279769   0.795   3.343   4.280 -0.5574 -0.8160 -2.4877
19452TIP3   OH279770   0.706   0.807  16.889  0.4096  0.2195 -0.3123
19452TIP3    H179771   0.780   0.806  16.828 -1.0917 -0.7359 -2.2072
19452TIP3    H279772   0.641   0.864  16.848 -0.1277  0.6574  1.0786
19453TIP3   OH279773   0.634   4.369   3.001  0.3562  0.0061  0.1479
19453TIP3    H179774   0.620   4.274   2.999  0.3065  0.0146  0.0390
19453TIP3    H279775   0.574   4.401   3.068  0.0154  0.0145 -0.1579
19454TIP3   OH279776   2.000   5.362  15.714  0.0364  0.3571  0.1646
19454TIP3    H179777   2.003   5.451  15.681 -1.7516  1.1002  1.7435
19454TIP3    H279778   2.034   5.308  15.643 -0.4988  2.1263 -1.5258
19455TIP3   OH279779   3.582   2.058  14.096 -0.1624  0.5314 -0.1411
19455TIP3    H179780   3.640   2.020  14.162  2.0553 -0.5813 -2.5319
19455TIP3    H279781   3.503   2.004  14.100 -0.0962  0.4923  1.5318
19456TIP3   OH279782   4.752   2.621  11.152 -0.5944  0.4141 -0.0960
19456TIP3    H179783   4.801   2.649  11.074 -0.5133  1.9076  0.4693
19456TIP3    H279784   4.695   2.551  11.120 -0.0358  0.5034 -1.3419
19457TIP3   OH279785   3.884   2.393  11.977 -0.0964  0.3671 -0.2371
19457TIP3    H179786   3.880   2.389  12.072 -1.8869  0.4285 -0.2740
19457TIP3    H279787   3.913   2.483  11.958 -2.3893  1.3057  0.2872
19458TIP3   OH279788   2.622   6.343  11.686  0.6334 -0.0634 -0.6883
19458TIP3    H179789   2.651   6.433  11.699  0.2491  0.2192 -1.7161
19458TIP3    H279790   2.532   6.351  11.655  0.0249 -0.8686  0.8026
19459TIP3   OH279791   3.375   1.556  12.691 -0.1697  0.4714  0.2426
19459TIP3    H179792   3.413   1.622  12.632 -0.5776 -0.2466 -0.8505
19459TIP3    H279793   3.408   1.580  12.778 -0.8227  2.5079 -0.0043
19460TIP3   OH279794   5.888   0.546  13.503  0.4908  0.3346 -0.3966
19460TIP3    H179795   5.796   0.552  13.477 -0.1349  1.0827  1.8399
19460TIP3    H279796   5.935   0.538  13.420 -1.5802 -0.2583 -1.5900
19461TIP3   OH279797   5.552   5.713  11.006 -0.1272  0.0973  0.4583
19461TIP3    H179798   5.583   5.629  10.972 -0.2050 -0.9172  2.7154
19461TIP3    H279799   5.631   5.758  11.036 -0.0552  0.9923 -0.9646
19462TIP3   OH279800   4.691   6.493  12.781  0.0439 -0.2974  0.1030
19462TIP3    H179801   4.597   6.491  12.764  0.2740 -2.2497 -1.3374
19462TIP3    H279802   4.702   6.441  12.861 -0.2508  1.8418  1.6169
19463TIP3   OH279803   2.180   3.747   0.677 -0.1182  0.2186  0.1833
19463TIP3    H179804   2.251   3.683   0.674  0.6827  0.8909  2.5706
19463TIP3    H279805   2.207   3.814   0.613  1.4676  0.4651  1.0408
19464TIP3   OH279806   4.981   6.633   6.302 -0.0010 -0.0001  0.2444
19464TIP3    H179807   4.968   6.619   6.396  0.2889  0.0791  0.2977
19464TIP3    H279808   4.992   6.545   6.266  0.1607 -0.0126  0.3262
19465TIP3   OH279809   2.553   0.214  15.726  0.4357  0.1797 -0.3089
19465TIP3    H179810   2.580   0.171  15.806  1.9893  1.2877 -0.1841
19465TIP3    H279811   2.506   0.292  15.755 -0.0336 -0.0343 -0.4902
19466TIP3   OH279812   6.242   5.942  16.975  0.0972 -0.0567 -0.2680
19466TIP3    H179813   6.254   6.036  16.990 -1.6752  0.3253 -0.9785
19466TIP3    H279814   6.189   5.913  17.049 -2.0911  0.2267 -1.6341
19467TIP3   OH279815   4.204   4.025  13.196  0.2021 -0.1466  0.1907
19467TIP3    H179816   4.112   4.034  13.220 -0.2248  0.5650 -1.5572
19467TIP3    H279817   4.203   3.974  13.115  1.4195 -0.9274  0.6498
19468TIP3   OH279818   1.692   2.867   1.796  0.6676  0.6396  0.0919
19468TIP3    H179819   1.779   2.840   1.826  1.3063  0.9213 -1.4004
19468TIP3    H279820   1.696   2.858   1.700 -1.9066 -2.2339  0.0784
19469TIP3   OH279821   0.488   4.792   5.138 -0.1278 -0.4589 -0.0983
19469TIP3    H179822   0.430   4.819   5.067 -1.7676  0.8890  1.6629
19469TIP3    H279823   0.549   4.865   5.149 -0.4887 -0.2278  0.4578
19470TIP3   OH279824   0.818   2.852   2.677 -0.0874  0.7253  0.3374
19470TIP3    H179825   0.795   2.759   2.669 -0.2486  0.6484  1.4482
19470TIP3    H279826   0.904   2.860   2.636  0.4179 -0.1408  1.1861
19471TIP3   OH279827   0.504   4.794  15.125 -0.3600 -0.2334 -0.1847
19471TIP3    H179828   0.576   4.732  15.118 -1.1619 -1.4836  1.9188
19471TIP3    H279829   0.533   4.870  15.074  1.5533 -1.4766 -1.0509
19472TIP3   OH279830   3.728   4.360  12.006  0.2657  0.4757  0.1150
19472TIP3    H179831   3.804   4.335  11.954 -1.1190  0.7666 -2.1848
19472TIP3    H279832   3.710   4.450  11.980 -1.5991 -0.0004 -0.3705
19473TIP3   OH279833   2.005   5.436  16.612 -0.5947  0.1895  0.1123
19473TIP3    H179834   1.915   5.462  16.632 -0.2471  1.1157  0.5056
19473TIP3    H279835   2.060   5.500  16.658  0.2606  0.8045 -1.6697
19474TIP3   OH279836   0.612   0.971  15.446  0.4884 -0.8041 -0.0073
19474TIP3    H179837   0.544   0.952  15.510 -0.1272 -0.9172 -0.6743
19474TIP3    H279838   0.660   0.889  15.435 -1.2151 -1.6483 -1.7749
19475TIP3   OH279839   1.654   4.356  14.709 -0.5088 -0.2832  0.1443
19475TIP3    H179840   1.741   4.345  14.749 -0.6660 -1.2886  0.2515
19475TIP3    H279841   1.659   4.439  14.662  0.9319 -0.9320 -0.9175
19476TIP3   OH279842   2.815   4.739   4.899 -0.1313 -0.0857 -0.0087
19476TIP3    H179843   2.788   4.660   4.852 -0.9227  0.2584 -0.1456
19476TIP3    H279844   2.750   4.748   4.969  1.6340 -1.2009  1.8632
19477TIP3   OH279845   0.519   5.334   1.851 -0.2758 -0.0343  0.0947
19477TIP3    H179846   0.489   5.326   1.761 -0.1926 -1.5811  0.1801
19477TIP3    H279847   0.614   5.334   1.846 -0.1675  2.9982 -0.0174
19478TIP3   OH279848   3.641   2.331  11.583  0.8144  0.0464  0.0436
19478TIP3    H179849   3.674   2.334  11.673  0.9048  0.0902  0.0095
19478TIP3    H279850   3.718   2.307  11.531  0.7706  0.0573 -0.0253
19479TIP3   OH279851   5.231   6.336   5.415  0.0417 -0.0977  0.7339
19479TIP3    H179852   5.230   6.418   5.365  0.2401 -0.7744 -0.4343
19479TIP3    H279853   5.318   6.300   5.399 -0.2715 -0.8487  0.6782
19480TIP3   OH279854   0.242   2.228  16.247 -0.2637 -0.1195  0.1524
19480TIP3    H179855   0.149   2.205  16.251 -0.1678 -0.7060 -0.7794
19480TIP3    H279856   0.247   2.315  16.286 -1.4157  0.5545 -1.1496
19481TIP3   OH279857   4.590   6.441  16.375  0.1922 -0.2191 -0.3367
19481TIP3    H179858   4.578   6.431  16.470  2.8256  0.1982  0.1021
19481TIP3    H279859   4.513   6.397  16.337 -1.2627  0.1356  1.9641
19482TIP3   OH279860   5.478   6.220   5.302 -0.5275 -0.0196 -0.0124
19482TIP3    H179861   5.536   6.157   5.258 -0.1179  0.6940 -0.5117
19482TIP3    H279862   5.491   6.302   5.254  0.2477  0.9056  1.6767
19483TIP3   OH279863   3.819   3.540  13.786 -0.1189 -0.2852 -0.5029
19483TIP3    H179864   3.793   3.498  13.704 -2.0684 -0.5447  0.1903
19483TIP3    H279865   3.746   3.597  13.809  0.6667  0.2862  0.7331
19484TIP3   OH279866   0.494   0.714  13.131  0.3394 -0.3400  0.0379
19484TIP3    H179867   0.563   0.741  13.191  0.2977 -0.1579  0.0054
19484TIP3    H279868   0.516   0.758  13.048 -2.1084  3.3446  1.0719
19485TIP3   OH279869   1.147   2.548  16.144 -0.3160  0.3852  0.4742
19485TIP3    H179870   1.151   2.510  16.232  1.3225  1.4374  0.8777
19485TIP3    H279871   1.090   2.624  16.153  2.1595  2.2378  1.3641
19486TIP3   OH279872   1.963   0.908   3.670 -0.1140  0.1531  0.1426
19486TIP3    H179873   1.994   0.962   3.598  1.4379 -0.3719  0.3819
19486TIP3    H279874   1.978   0.961   3.749  0.8615 -0.3610  0.3212
19487TIP3   OH279875   1.763   1.604  15.900  0.6373  0.7132  0.4217
19487TIP3    H179876   1.683   1.630  15.945 -1.2504 -1.0480 -1.7085
19487TIP3    H279877   1.791   1.683  15.853 -0.6510  0.9928  0.0870
19488TIP3   OH279878   0.483   2.716   4.349 -0.1349 -0.7099 -0.4812
19488TIP3    H179879   0.532   2.784   4.303  1.1374 -0.5771  0.9902
19488TIP3    H279880   0.523   2.634   4.320 -0.1662 -0.6968 -0.5609
19489TIP3   OH279881   5.321   1.828  12.085 -0.1704  0.4272 -0.1716
19489TIP3    H179882   5.371   1.812  12.005  1.5537  1.3922  0.6656
19489TIP3    H279883   5.377   1.796  12.155 -1.2999  0.3651  0.7270
19490TIP3   OH279884   6.017   5.924  14.402 -0.0748 -0.4773 -0.0976
19490TIP3    H179885   5.933   5.961  14.376  0.5561  0.4391 -0.9328
19490TIP3    H279886   6.041   5.864  14.332  0.6237  0.3675 -0.6126
19491TIP3   OH279887   1.773   5.238   4.452 -0.0488  0.0661  0.3395
19491TIP3    H179888   1.861   5.253   4.418  0.0215 -0.2564  0.3737
19491TIP3    H279889   1.787   5.199   4.538 -0.2087 -1.4962 -0.3088
19492TIP3   OH279890   2.609   5.011   4.846  0.2800 -0.0756 -0.2971
19492TIP3    H179891   2.562   4.931   4.870 -0.6748 -0.4876 -3.1724
19492TIP3    H279892   2.683   5.014   4.906 -0.6863 -2.1108  1.1046
19493TIP3   OH279893   3.358   4.017  13.457  0.1118 -0.4515  0.0602
19493TIP3    H179894   3.364   4.086  13.524 -1.5609 -1.2275  1.0784
19493TIP3    H279895   3.276   4.035  13.411  0.5076 -0.7993 -0.7938
19494TIP3   OH279896   6.334   6.177  14.480  0.3635 -0.0636 -0.3490
19494TIP3    H179897   6.368   6.240  14.543 -0.1741  0.7597 -0.8677
19494TIP3    H279898   6.275   6.122  14.531 -1.1707  1.4748 -0.3780
19495TIP3   OH279899   5.256   1.884   5.902 -0.0307  0.2766 -0.5043
19495TIP3    H179900   5.265   1.827   5.979  0.1738  0.0286 -0.7087
19495TIP3    H279901   5.346   1.900   5.874 -0.1306 -0.4720 -1.3014
19496TIP3   OH279902   4.374   0.365   0.750  0.8507 -0.2193  0.5751
19496TIP3    H179903   4.433   0.298   0.786  0.8787 -0.4917  0.0259
19496TIP3    H279904   4.347   0.331   0.665 -0.6727 -0.4384  1.1100
19497TIP3   OH279905   6.140   3.938   2.153 -0.5038 -0.7669  0.5068
19497TIP3    H179906   6.190   3.860   2.176  0.7175 -0.0357  0.4474
19497TIP3    H279907   6.067   3.939   2.215 -0.8920 -2.2818  0.0937
19498TIP3   OH279908   4.072   2.279  13.314 -0.4785 -0.0488 -0.0484
19498TIP3    H179909   3.999   2.298  13.254  0.3117  0.0721 -0.9926
19498TIP3    H279910   4.129   2.355  13.307  0.4409 -0.7597 -0.3964
19499TIP3   OH279911   2.888   4.553   2.027  0.1840  0.3624 -0.1419
19499TIP3    H179912   2.886   4.492   1.953  1.2765  0.5417 -0.3323
19499TIP3    H279913   2.817   4.615   2.008  0.6097  0.5666 -1.1920
19500TIP3   OH279914   0.975   2.119   3.437  0.2823  0.0522  0.5283
19500TIP3    H179915   1.060   2.127   3.480  0.3339  1.1906  0.2410
19500TIP3    H279916   0.954   2.208   3.410 -0.8420 -0.2833  0.2820
19501TIP3   OH279917   5.082   1.540   3.015  0.4753  0.7692 -0.7083
19501TIP3    H179918   5.023   1.494   2.956 -1.0135  1.1725  0.4022
19501TIP3    H279919   5.162   1.487   3.015 -0.7465 -1.1703 -0.3881
19502TIP3   OH279920   0.166   0.427   1.335  0.1993  0.1126 -0.0484
19502TIP3    H179921   0.208   0.342   1.347 -2.1179 -0.9184  1.8241
19502TIP3    H279922   0.230   0.490   1.367  2.0615 -0.8494 -1.6837
19503TIP3   OH279923   6.348   0.926  16.909 -0.0035 -0.6145 -0.0571
19503TIP3    H179924   6.314   0.961  16.991  2.6135 -0.6648  1.1405
19503TIP3    H279925   6.423   0.982  16.888  0.4075 -1.6521 -1.4926
19504TIP3   OH279926   0.401   0.182   0.632 -0.2926  0.6119 -0.0681
19504TIP3    H179927   0.471   0.150   0.575  0.0887  1.4007 -0.0540
19504TIP3    H279928   0.351   0.103   0.654  0.0649  0.1654 -0.7877
19505TIP3   OH279929   3.524   0.730   6.642  0.0272 -0.5513 -0.3527
19505TIP3    H179930   3.576   0.714   6.563 -0.6851 -1.2971 -0.6901
19505TIP3    H279931   3.468   0.652   6.650 -0.9395  0.1611  0.0615
19506TIP3   OH279932   6.648   1.022  14.013  0.5378 -0.0147 -0.1313
19506TIP3    H179933   6.692   1.026  14.098  1.5230 -0.9177 -0.5762
19506TIP3    H279934   6.698   1.083  13.958 -0.7532  1.3893  0.1970
19507TIP3   OH279935   2.629   4.898  11.533  0.3421  0.0228  0.4412
19507TIP3    H179936   2.721   4.921  11.546  0.5242 -0.6775  0.4279
19507TIP3    H279937   2.623   4.877  11.440 -0.0469  0.9942  0.2344
19508TIP3   OH279938   0.034   4.431   0.906  0.2949  0.1816  0.0503
19508TIP3    H179939  -0.010   4.459   0.986  0.0988 -0.4099  0.1575
19508TIP3    H279940  -0.032   4.382   0.858  0.8773 -0.9223  0.3207
19509TIP3   OH279941   3.770   1.048   1.390  0.0469 -0.0423 -0.0082
19509TIP3    H179942   3.848   0.998   1.413  0.7501  1.1665  0.3180
19509TIP3    H279943   3.778   1.129   1.440 -1.5160  0.0327  0.1689
19510TIP3   OH279944   6.522   0.166   3.487  0.5286  0.2317  0.2835
19510TIP3    H179945   6.594   0.229   3.487  0.6928  0.0496  0.6683
19510TIP3    H279946   6.550   0.098   3.549 -0.4967  0.7716  1.3807
19511TIP3   OH279947   2.468   4.375   0.767 -0.3749  0.2316  0.0728
19511TIP3    H179948   2.454   4.324   0.847  0.4191  2.0205  1.4180
19511TIP3    H279949   2.526   4.320   0.714 -1.1776 -1.1307  0.5413
19512TIP3   OH279950   0.247   4.574  16.151 -0.3750 -0.5545 -0.1295
19512TIP3    H179951   0.157   4.550  16.173  0.6012 -2.2929  2.4231
19512TIP3    H279952   0.269   4.521  16.075 -0.5977 -2.4128  1.0561
19513TIP3   OH279953   0.635   3.179   3.466  0.0366 -0.0253 -0.1140
19513TIP3    H179954   0.718   3.202   3.424 -0.5567  1.0903 -0.7283
19513TIP3    H279955   0.596   3.114   3.408  0.4967 -0.6067  0.2134
19514TIP3   OH279956   2.718   5.892  12.462  0.6311  0.5953  0.0727
19514TIP3    H179957   2.625   5.912  12.452  0.6647  1.0580  0.6484
19514TIP3    H279958   2.763   5.966  12.422  0.7691  0.0457 -0.8395
19515TIP3   OH279959   0.978   2.501  10.466  0.2152 -0.7271  0.1907
19515TIP3    H179960   0.989   2.422  10.519  2.2704  1.1135  2.7548
19515TIP3    H279961   0.935   2.563  10.525  0.3401  0.6780 -1.1382
19516TIP3   OH279962   0.327   4.051  11.775 -0.1569  0.0385 -0.6820
19516TIP3    H179963   0.276   4.054  11.856  0.3066 -0.4488 -0.3631
19516TIP3    H279964   0.298   4.128  11.725  0.0063  0.7035  0.2195
19517TIP3   OH279965   4.281   1.710   1.058  0.0559 -0.4476  0.4807
19517TIP3    H179966   4.214   1.652   1.021  1.1335 -1.7821  0.5226
19517TIP3    H279967   4.354   1.704   0.997  0.2529  0.7933  0.5643
19518TIP3   OH279968   4.093   6.447  14.810 -0.5027  0.5552  0.5378
19518TIP3    H179969   4.004   6.423  14.785  0.1366  0.2047 -1.6256
19518TIP3    H279970   4.142   6.364  14.807  0.1541  0.9388  0.4136
19519TIP3   OH279971   5.707   0.187  17.179  0.1213 -0.3671 -0.9775
19519TIP3    H179972   5.769   0.192  17.107  1.4382 -0.8131  0.0910
19519TIP3    H279973   5.758   0.210  17.257 -0.7774 -1.7653  0.0771
19520TIP3   OH279974   5.526   1.674  17.281 -0.1351 -0.4933  0.4092
19520TIP3    H179975   5.620   1.672  17.265  0.2360  0.5552  2.1896
19520TIP3    H279976   5.517   1.718  17.366 -2.2748  0.1133 -0.0789
19521TIP3   OH279977   2.370   4.779  11.557  0.2688  0.3554  0.2838
19521TIP3    H179978   2.449   4.829  11.536  0.2368  0.6673  0.8850
19521TIP3    H279979   2.369   4.774  11.652  1.0874 -2.1045  0.2246
19522TIP3   OH279980   2.388   4.163  16.961  0.1448  0.0626  0.1324
19522TIP3    H179981   2.369   4.171  17.054 -2.5405  1.2696 -0.4482
19522TIP3    H279982   2.425   4.248  16.936 -1.6441  0.7153 -0.3953
19523TIP3   OH279983   0.641   6.010   5.537 -0.0151  0.1713 -0.4344
19523TIP3    H179984   0.558   6.056   5.524 -1.3344 -1.7526  0.7029
19523TIP3    H279985   0.690   6.027   5.457 -2.0219  0.3052 -1.7236
19524TIP3   OH279986   2.198   4.084  11.258  0.0175 -0.5302 -0.0433
19524TIP3    H179987   2.181   4.118  11.170  0.2286  0.2779  0.2250
19524TIP3    H279988   2.228   3.994  11.243  2.3900  0.3513 -0.9831
19525TIP3   OH279989   3.211   6.429   3.564 -0.3963 -0.4606 -0.8238
19525TIP3    H179990   3.285   6.381   3.601  0.7786 -0.1595 -2.6204
19525TIP3    H279991   3.236   6.445   3.472 -1.5635  1.8482 -0.8350
19526TIP3   OH279992   4.137   6.060  11.330  0.0494  0.6039 -0.2168
19526TIP3    H179993   4.084   6.000  11.277 -1.5876  2.4678 -0.8277
19526TIP3    H279994   4.109   6.045  11.420  0.0808  0.0593 -0.2945
19527TIP3   OH279995   0.514   1.837   3.874 -0.5043 -0.5642  0.4106
19527TIP3    H179996   0.510   1.906   3.808 -1.5664 -0.3148  0.7183
19527TIP3    H279997   0.423   1.811   3.888 -0.5014  0.4863  2.9250
19528TIP3   OH279998   5.296   0.727  16.336 -0.4405 -0.9089 -0.3426
19528TIP3    H179999   5.223   0.738  16.275  0.6392 -0.7491 -1.6640
19528TIP3    H280000   5.370   0.701  16.281  1.5608  2.7097  0.2604
19529TIP3   OH280001   1.743   0.369  15.669 -0.2936 -0.0672 -0.4173
19529TIP3    H180002   1.780   0.457  15.662 -0.9191  0.1780 -0.7094
19529TIP3    H280003   1.798   0.315  15.613 -1.2766  0.5878 -2.0759
19530TIP3   OH280004   1.156   4.999  13.270  0.5396  0.5500 -0.3798
19530TIP3    H180005   1.210   4.956  13.203  0.6967 -0.8602  0.6170
19530TIP3    H280006   1.128   5.080  13.229  1.2803  0.0867 -1.8754
19531TIP3   OH280007   0.286   1.473   1.116 -0.1548 -0.1982  0.1892
19531TIP3    H180008   0.242   1.500   1.196 -1.3281 -1.0395 -0.1447
19531TIP3    H280009   0.313   1.383   1.132 -0.2885 -0.3326 -0.3100
19532TIP3   OH280010   2.797   5.558  15.961 -0.1029 -0.2871  0.2318
19532TIP3    H180011   2.802   5.575  16.055  1.2836  0.2997  0.0839
19532TIP3    H280012   2.706   5.577  15.938 -0.0424  1.3544  1.1483
19533TIP3   OH280013   2.157   5.407  11.887 -0.9509 -0.1859  0.2689
19533TIP3    H180014   2.138   5.322  11.847 -0.7615 -0.3259  0.4689
19533TIP3    H280015   2.214   5.451  11.825 -1.0933 -0.1830  0.1403
19534TIP3   OH280016   4.876   2.944  11.846  0.3118  0.2076 -0.0450
19534TIP3    H180017   4.934   3.016  11.871  0.7577  0.2374 -1.1230
19534TIP3    H280018   4.820   2.932  11.922  1.4179  0.4877  0.8401
19535TIP3   OH280019   6.710   3.763  12.892  0.0766 -0.4141 -0.5413
19535TIP3    H180020   6.731   3.837  12.949  1.1403 -1.3662  0.3404
19535TIP3    H280021   6.630   3.725  12.929  0.2183 -0.4480 -0.2727
19536TIP3   OH280022   1.707   6.652   3.696  0.1265 -0.0330 -0.4209
19536TIP3    H180023   1.682   6.744   3.706 -1.5247 -0.5317  0.3575
19536TIP3    H280024   1.774   6.638   3.763 -0.2352  0.3809  0.0350
19537TIP3   OH280025   1.007   3.889   5.322 -0.0380  0.0328  0.4386
19537TIP3    H180026   0.931   3.945   5.337  1.0147  1.2063  1.5534
19537TIP3    H280027   1.009   3.877   5.227  0.4721  3.0352 -0.0289
19538TIP3   OH280028   1.649   3.656  14.076  0.6082 -0.0896  0.0522
19538TIP3    H180029   1.607   3.585  14.125 -0.8410  1.0903  0.5954
19538TIP3    H280030   1.581   3.688  14.017  1.4866  0.3644 -0.7465
19539TIP3   OH280031   5.916   5.514   2.822 -0.1274  0.0102 -0.1156
19539TIP3    H180032   5.887   5.606   2.815 -0.5521 -0.2153 -1.8819
19539TIP3    H280033   6.010   5.520   2.837  0.2380  0.8012 -2.2604
19540TIP3   OH280034   3.158   1.983   1.813 -0.7485  0.1021 -0.2331
19540TIP3    H180035   3.147   1.991   1.718 -1.0369 -1.5563 -0.3795
19540TIP3    H280036   3.208   1.902   1.824 -0.0225  0.6888  1.0146
19541TIP3   OH280037   3.127   3.656  11.033 -0.9576  0.9303  0.7070
19541TIP3    H180038   3.043   3.686  10.998 -0.2069 -0.3847 -2.5508
19541TIP3    H280039   3.105   3.581  11.088 -1.9600  0.8159  0.1637
19542TIP3   OH280040   0.738   1.381   6.460 -0.1989  0.1351  0.2950
19542TIP3    H180041   0.671   1.431   6.413 -1.0577  0.0494  1.3957
19542TIP3    H280042   0.808   1.445   6.475 -0.4837  0.5063  0.0736
19543TIP3   OH280043   1.670   2.028  13.624  0.1278 -0.2910 -0.0667
19543TIP3    H180044   1.664   2.065  13.537  0.6313  0.5419  0.2464
19543TIP3    H280045   1.600   1.963  13.627 -2.5881  2.4287  0.2700
19544TIP3   OH280046   4.018   4.318  14.422  0.2706 -0.1270  0.0207
19544TIP3    H180047   4.067   4.400  14.418  0.5521 -0.3066 -0.3259
19544TIP3    H280048   3.968   4.323  14.503 -0.5504  0.8501 -0.5194
19545TIP3   OH280049   5.942   6.402  12.530 -0.1238 -0.3645 -0.0128
19545TIP3    H180050   5.906   6.373  12.446 -1.3642 -0.1960  0.4451
19545TIP3    H280051   6.021   6.350  12.541 -0.2651 -0.8179 -1.0024
19546TIP3   OH280052   5.599   4.965   1.740  0.3447 -0.0913 -0.5147
19546TIP3    H180053   5.581   4.878   1.704 -1.7146 -0.0590  0.3127
19546TIP3    H280054   5.695   4.969   1.745  0.4956 -2.6461  0.2073
19547TIP3   OH280055   4.960   5.653  15.500  0.0322  0.0650 -0.3440
19547TIP3    H180056   5.039   5.641  15.554 -1.3384 -2.3145  1.3329
19547TIP3    H280057   4.993   5.656  15.410  2.0464 -1.9564  0.2093
19548TIP3   OH280058   0.193   6.050  13.404 -0.0535  0.2252 -0.1720
19548TIP3    H180059   0.230   6.135  13.379  2.1692 -0.7371 -0.4460
19548TIP3    H280060   0.251   6.018  13.473 -0.1392 -1.5404 -0.8628
19549TIP3   OH280061   6.196   6.363   0.522 -0.5309 -0.2051 -0.3596
19549TIP3    H180062   6.162   6.385   0.609 -1.9529 -0.8445 -0.7189
19549TIP3    H280063   6.183   6.269   0.514  2.3514 -0.7074 -0.1530
19550TIP3   OH280064   2.165   2.499  15.522 -0.5611  0.3950  0.5070
19550TIP3    H180065   2.240   2.530  15.473 -2.6570 -0.7475 -3.9694
19550TIP3    H280066   2.199   2.429  15.577  1.7525  0.3006 -0.9274
19551TIP3   OH280067   0.867   5.562   3.799 -0.4922 -0.5165 -0.0541
19551TIP3    H180068   0.831   5.644   3.833  0.0282 -0.4324  0.3022
19551TIP3    H280069   0.865   5.573   3.703  3.5224  1.7291 -0.1148
19552TIP3   OH280070   4.619   6.722   3.748  0.2414 -0.0838 -0.0785
19552TIP3    H180071   4.625   6.633   3.712  1.6770  0.5810 -1.5478
19552TIP3    H280072   4.544   6.761   3.703  0.1037 -0.2791 -0.0204
19553TIP3   OH280073   6.463   5.365   1.563  0.0424  0.2558  0.4333
19553TIP3    H180074   6.450   5.328   1.476  0.6165 -0.5041  0.6525
19553TIP3    H280075   6.537   5.316   1.598 -0.7201 -0.0613  1.6751
19554TIP3   OH280076   2.867   0.894   4.229 -0.4461  0.0086  0.3688
19554TIP3    H180077   2.913   0.810   4.234 -0.8147 -0.2221 -0.0138
19554TIP3    H280078   2.877   0.921   4.137 -1.2328 -0.1370  0.2352
19555TIP3   OH280079   0.443   6.443   1.681 -0.2831 -0.1902 -0.8347
19555TIP3    H180080   0.362   6.393   1.672  1.1218 -2.5836 -1.3911
19555TIP3    H280081   0.432   6.495   1.760 -2.6812  0.3009 -1.4243
19556TIP3   OH280082   4.063   6.713  12.699  0.6901 -0.1517  0.3122
19556TIP3    H180083   4.063   6.654  12.624  1.7091  0.4976 -0.2284
19556TIP3    H280084   4.034   6.797  12.663  0.6661  0.0310  0.7542
19557TIP3   OH280085   3.047   1.434   3.730  0.1313 -0.3397  0.0479
19557TIP3    H180086   3.016   1.470   3.647  0.5632 -0.1259 -0.0209
19557TIP3    H280087   2.980   1.458   3.794 -0.5696 -1.1245 -0.3691
19558TIP3   OH280088   1.597   4.155   0.360  0.1804  0.1515 -0.2601
19558TIP3    H180089   1.684   4.166   0.399  0.1151  1.3951 -0.4309
19558TIP3    H280090   1.540   4.211   0.413 -0.6382 -1.0595  0.1867
19559TIP3   OH280091   5.762   0.371   6.126  0.5495 -0.3433  0.5652
19559TIP3    H180092   5.748   0.465   6.113  1.3645 -0.2940 -0.0515
19559TIP3    H280093   5.756   0.359   6.221  0.5225  0.3436  0.6585
19560TIP3   OH280094   1.836   4.351  16.950 -0.4239 -0.3922  0.2264
19560TIP3    H180095   1.844   4.420  17.016 -0.2639  0.6010 -0.8022
19560TIP3    H280096   1.915   4.298  16.962 -0.6765 -0.5591  1.1975
19561TIP3   OH280097   5.254   0.136   2.966  0.1002  0.1938 -0.5616
19561TIP3    H180098   5.268   0.097   2.880  1.6997 -0.1436 -0.1741
19561TIP3    H280099   5.158   0.142   2.974 -0.1019  2.1914 -3.1953
19562TIP3   OH280100   1.666   6.014   3.961  0.0972 -0.4527  0.2434
19562TIP3    H180101   1.703   6.037   4.046 -0.5413 -2.3698  1.0711
19562TIP3    H280102   1.576   5.990   3.979 -0.1086 -0.6932 -1.0128
19563TIP3   OH280103   3.018   3.933  14.232 -0.9483 -0.4980  0.2587
19563TIP3    H180104   2.993   3.896  14.147  0.8703 -0.8576 -0.1667
19563TIP3    H280105   3.048   4.021  14.212 -0.3772 -0.6339  0.5012
19564TIP3   OH280106   5.274   0.692  14.488  0.3167 -0.3484 -0.2685
19564TIP3    H180107   5.220   0.743  14.428 -1.0716 -1.7350 -0.2731
19564TIP3    H280108   5.359   0.684  14.443 -0.0297  0.3959 -1.0729
19565TIP3   OH280109   4.372   5.955  11.884 -0.0261 -0.2652 -0.4040
19565TIP3    H180110   4.433   5.919  11.820 -1.4182 -0.8078 -1.4729
19565TIP3    H280111   4.387   6.050  11.881 -0.4804 -0.2244 -1.9950
19566TIP3   OH280112   5.050   1.832   0.775 -0.4549 -0.1950 -0.1028
19566TIP3    H180113   5.022   1.914   0.735 -0.0107  0.2232  0.4207
19566TIP3    H280114   5.133   1.810   0.731  0.1884  0.4219  0.7669
19567TIP3   OH280115   1.365   4.432   0.861 -0.1519 -0.5946  0.4486
19567TIP3    H180116   1.283   4.393   0.890 -0.6124  1.1813  1.7505
19567TIP3    H280117   1.343   4.474   0.777 -0.3870 -0.7365  0.4380
19568TIP3   OH280118   4.074   2.320  11.716 -0.2822 -0.0804 -0.4520
19568TIP3    H180119   4.108   2.280  11.796  1.3151 -1.5947 -1.7837
19568TIP3    H280120   3.989   2.356  11.741  0.2862 -0.2316  1.9635
19569TIP3   OH280121   6.638   4.736  16.980  0.0658  0.3388 -1.1209
19569TIP3    H180122   6.593   4.819  16.998  1.6325  1.2288 -1.1441
19569TIP3    H280123   6.724   4.746  17.020 -0.4523 -2.1953  0.9455
19570TIP3   OH280124   3.182   4.093   3.758  0.5978 -0.3226  0.1519
19570TIP3    H180125   3.195   4.186   3.779  0.4825  0.0733 -1.4087
19570TIP3    H280126   3.087   4.083   3.753  0.4639 -1.1641  2.8339
19571TIP3   OH280127   5.719   3.607  16.640 -0.3962 -0.3734 -0.0788
19571TIP3    H180128   5.640   3.556  16.621  0.4977 -0.8794 -2.7591
19571TIP3    H280129   5.792   3.550  16.614  0.7797  0.9744  0.1095
19572TIP3   OH280130   1.902   1.729  16.996  0.8045  0.3525  0.2475
19572TIP3    H180131   1.982   1.778  17.016  1.3398 -0.1270 -0.6671
19572TIP3    H280132   1.832   1.793  17.005  1.2779  0.7819  1.0483
19573TIP3   OH280133   1.744   0.362  11.944  0.2797 -0.0930 -0.5624
19573TIP3    H180134   1.827   0.316  11.959 -1.1176 -2.4075  0.7133
19573TIP3    H280135   1.700   0.310  11.876 -0.0953  1.1867 -1.3184
19574TIP3   OH280136   6.371   1.533  13.579  0.6037  0.1087  0.5276
19574TIP3    H180137   6.325   1.487  13.510  0.0487  3.9512 -1.9539
19574TIP3    H280138   6.460   1.498  13.577 -0.0201 -1.4870 -0.4825
19575TIP3   OH280139   2.907   0.943  15.028 -0.2564  0.3010 -0.0251
19575TIP3    H180140   2.906   1.017  14.967 -1.1790  0.1560 -0.2037
19575TIP3    H280141   2.915   0.866  14.972  1.0948  0.2636  0.1833
19576TIP3   OH280142   5.560   5.811   0.598 -0.2182 -0.3143 -0.0710
19576TIP3    H180143   5.484   5.869   0.605  0.0106  0.1497 -1.2695
19576TIP3    H280144   5.537   5.748   0.530  0.4702 -0.1493 -0.4704
19577TIP3   OH280145   4.897   0.641  13.591 -0.3898  0.2283  0.0243
19577TIP3    H180146   4.991   0.657  13.600 -0.3448 -0.7724  1.7614
19577TIP3    H280147   4.861   0.726  13.565  0.8195  1.0164  0.8023
19578TIP3   OH280148   1.870   6.589   3.893 -0.4541 -0.1557 -0.1245
19578TIP3    H180149   1.922   6.512   3.873 -0.2636  0.1936 -1.0558
19578TIP3    H280150   1.886   6.606   3.986  0.0947 -0.7867 -0.0985
19579TIP3   OH280151   0.685   5.081   0.655 -0.1744  0.5137 -0.0943
19579TIP3    H180152   0.623   5.093   0.584 -0.5621  2.6155  0.5180
19579TIP3    H280153   0.732   5.165   0.660  2.7113 -0.9371 -0.4981
19580TIP3   OH280154   5.453   2.964  11.847  0.4185  0.3662 -0.1557
19580TIP3    H180155   5.418   2.895  11.904 -1.4714  0.7472 -0.8168
19580TIP3    H280156   5.492   2.917  11.774  1.5630 -0.0715  0.7027
19581TIP3   OH280157   5.053   3.443   2.118 -0.0538 -0.2654  0.1066
19581TIP3    H180158   5.110   3.453   2.195  0.7704 -0.5558 -0.4526
19581TIP3    H280159   5.107   3.396   2.054 -0.8843 -0.4323 -0.4884
19582TIP3   OH280160   0.683   1.135  15.653 -0.2573 -0.2372 -0.1428
19582TIP3    H180161   0.649   1.151  15.565  1.4040  0.0412 -0.7810
19582TIP3    H280162   0.729   1.052  15.646 -1.5790 -1.0855  0.9415
19583TIP3   OH280163   4.254   5.006  12.541  0.5151  0.1182  0.1153
19583TIP3    H180164   4.268   5.049  12.457 -1.2226 -0.5404 -0.5648
19583TIP3    H280165   4.286   4.916  12.527 -0.5495 -0.2355 -0.1456
19584TIP3   OH280166   0.738   5.119  12.827  0.0283 -0.5722 -0.6634
19584TIP3    H180167   0.827   5.099  12.797  0.5201 -1.6756  1.3710
19584TIP3    H280168   0.708   5.039  12.868 -0.7495  0.6701  1.3298
19585TIP3   OH280169   2.170   1.906  11.569 -0.2096 -0.5018  0.0102
19585TIP3    H180170   2.107   1.943  11.506  0.0042  0.1572  0.1776
19585TIP3    H280171   2.220   1.842  11.518  0.0600  0.1313 -0.5427
19586TIP3   OH280172   4.062   1.506  16.737 -0.2584 -0.0543  0.0162
19586TIP3    H180173   4.119   1.457  16.678 -0.6563 -0.4478 -0.0434
19586TIP3    H280174   4.000   1.551  16.679  1.1740  1.9716 -0.0728
19587TIP3   OH280175   6.614   6.034  10.550  0.0915 -0.1938 -0.7109
19587TIP3    H180176   6.655   6.118  10.571 -2.1854  0.6730  0.6787
19587TIP3    H280177   6.520   6.051  10.559 -0.5467 -2.3796 -2.4565
19588TIP3   OH280178   5.430   1.358   3.496  0.2604  0.3059 -0.1967
19588TIP3    H180179   5.352   1.413   3.501 -0.6467 -0.9151 -0.2978
19588TIP3    H280180   5.425   1.302   3.573  1.2234  0.4201 -0.0315
19589TIP3   OH280181   5.534   0.588  16.259  0.5674 -0.4191 -0.0449
19589TIP3    H180182   5.610   0.548  16.217 -0.1667 -1.1771 -0.6798
19589TIP3    H280183   5.460   0.534  16.232 -0.5303  1.5688 -1.2704
19590TIP3   OH280184   1.385   0.493   5.541  0.1149  0.3504 -0.6337
19590TIP3    H180185   1.370   0.484   5.635  0.1825  1.3432 -0.5141
19590TIP3    H280186   1.346   0.415   5.503  2.0638 -1.2021  0.4034
19591TIP3   OH280187   4.601   5.110  12.846 -0.0714  0.0466 -0.0066
19591TIP3    H180188   4.592   5.074  12.934 -0.3929 -1.5046 -0.6423
19591TIP3    H280189   4.690   5.090  12.820 -0.2935 -0.4371 -0.4189
19592TIP3   OH280190   6.000   1.671  16.371 -0.0138  0.0513 -0.0880
19592TIP3    H180191   5.979   1.590  16.322  2.0415 -0.3473 -0.3737
19592TIP3    H280192   5.918   1.691  16.417 -1.1131 -1.2344 -1.3345
19593TIP3   OH280193   2.799   1.315   2.475  0.1789  0.0946 -0.1077
19593TIP3    H180194   2.835   1.402   2.458  1.7185 -0.5700 -0.4839
19593TIP3    H280195   2.753   1.323   2.559 -0.3069  1.4211 -0.4836
19594TIP3   OH280196   0.205   5.393   3.455  0.7930 -0.4295  0.5572
19594TIP3    H180197   0.185   5.362   3.366  0.8240  1.3263 -0.0909
19594TIP3    H280198   0.235   5.314   3.501  0.8338 -1.3661 -0.9883
19595TIP3   OH280199   3.159   4.648  12.712 -0.1775 -0.9001 -0.0263
19595TIP3    H180200   3.229   4.714  12.711  0.2710 -1.3649 -1.6692
19595TIP3    H280201   3.204   4.564  12.710 -0.7844 -1.2454  0.2329
19596TIP3   OH280202   4.252   0.761  12.637  0.7153 -0.7091 -0.0557
19596TIP3    H180203   4.310   0.838  12.638 -1.6090  1.1637 -1.2148
19596TIP3    H280204   4.313   0.686  12.639  3.0770  1.1004  1.2539
19597TIP3   OH280205   5.374   6.316   4.271  0.4670  0.1271  0.2445
19597TIP3    H180206   5.444   6.337   4.210 -0.3013  0.7626 -0.4530
19597TIP3    H280207   5.335   6.235   4.237  1.3239 -0.6429  1.0575
19598TIP3   OH280208   1.984   5.101   2.462  0.3291 -0.0522 -0.2463
19598TIP3    H180209   1.937   5.031   2.416 -2.1264 -0.3304  2.4282
19598TIP3    H280210   1.940   5.181   2.434  1.9606  0.3192 -1.9142
19599TIP3   OH280211   4.992   1.863  13.332 -0.4679 -0.1347  0.4991
19599TIP3    H180212   5.008   1.941  13.386  1.2739 -0.1854  0.1180
19599TIP3    H280213   5.018   1.790  13.387  1.4565 -0.1780 -0.3930
19600TIP3   OH280214   5.666   0.236  11.452 -0.1884  0.1487 -0.1582
19600TIP3    H180215   5.705   0.265  11.369  0.2310  1.5560  0.4948
19600TIP3    H280216   5.729   0.264  11.519 -0.6000 -0.8130  0.6561
19601TIP3   OH280217   2.446   6.025  13.494 -0.1196  0.0408  0.1962
19601TIP3    H180218   2.456   6.054  13.585  0.4062  0.7721 -0.0810
19601TIP3    H280219   2.396   5.943  13.500  0.3332 -0.1870  1.1837
19602TIP3   OH280220   1.477   3.099  13.082 -0.3204 -1.0306 -0.3780
19602TIP3    H180221   1.408   3.066  13.025 -0.2502 -0.2280 -0.9505
19602TIP3    H280222   1.531   3.023  13.101 -1.9356 -1.9010  0.9361
19603TIP3   OH280223   6.705   6.167   4.946 -0.1786 -0.5131 -0.0954
19603TIP3    H180224   6.699   6.240   5.007 -0.0930 -1.8683  1.6264
19603TIP3    H280225   6.614   6.140   4.931 -0.1146 -2.1203  1.9817
19604TIP3   OH280226   0.215   5.366   1.472 -0.2799 -0.1730  0.0317
19604TIP3    H180227   0.192   5.431   1.538  1.2002  2.3759 -1.8225
19604TIP3    H280228   0.159   5.387   1.397  1.0466 -0.2637 -1.0122
19605TIP3   OH280229   2.956   1.683   4.497  0.4014  0.3729  0.3424
19605TIP3    H180230   2.895   1.612   4.517 -2.8116  3.2888  1.9086
19605TIP3    H280231   2.903   1.749   4.453  2.8516  2.4685  0.2935
19606TIP3   OH280232   1.734   3.660  15.936 -0.2910 -0.3354 -0.6053
19606TIP3    H180233   1.728   3.595  16.006 -0.7888 -0.3449 -0.6529
19606TIP3    H280234   1.790   3.619  15.870 -1.3740 -1.1270 -1.0664
19607TIP3   OH280235   3.371   5.158   2.634 -0.1597  0.4158 -0.4949
19607TIP3    H180236   3.363   5.253   2.621 -1.9091  0.0673 -2.6218
19607TIP3    H280237   3.463   5.144   2.656  0.1161  2.5879  0.0107
19608TIP3   OH280238   0.379   4.775   5.574 -0.4848  0.4524  0.0573
19608TIP3    H180239   0.322   4.698   5.583 -1.3013  1.2151  2.1951
19608TIP3    H280240   0.407   4.774   5.483 -1.3547 -1.7592 -0.2548
19609TIP3   OH280241   2.553   5.233  16.928  0.1065  0.1156 -0.3661
19609TIP3    H180242   2.518   5.296  16.864 -1.0824 -0.2833 -0.1383
19609TIP3    H280243   2.480   5.174  16.946  0.2311  0.5227  1.7498
19610TIP3   OH280244   1.124   6.100  12.467  0.5104  0.5597  0.2049
19610TIP3    H180245   1.029   6.104  12.454  0.2928 -0.0675  1.4650
19610TIP3    H280246   1.156   6.048  12.393  0.0513  1.8457 -0.9410
19611TIP3   OH280247   1.665   5.865   5.564 -0.7014  0.1274 -0.2384
19611TIP3    H180248   1.598   5.837   5.627 -0.0312 -0.4187  0.2412
19611TIP3    H280249   1.686   5.955   5.589 -1.4659  0.4189 -0.5851
19612TIP3   OH280250   6.424   2.283   1.981  0.1694  0.3760  0.2421
19612TIP3    H180251   6.460   2.325   1.903  0.3842  1.2251  0.7768
19612TIP3    H280252   6.487   2.306   2.051  1.3822 -2.4915  0.2057
19613TIP3   OH280253   3.978   4.361  11.807  0.2325  0.0505  0.0015
19613TIP3    H180254   4.030   4.302  11.752  0.5447  0.7822 -0.5150
19613TIP3    H280255   4.042   4.411  11.856 -0.0497 -0.6416  1.1135
19614TIP3   OH280256   3.520   4.530  14.244 -0.2363 -0.4959  0.7282
19614TIP3    H180257   3.563   4.594  14.301 -0.9747  0.7920 -0.1048
19614TIP3    H280258   3.586   4.462  14.230  0.5805  0.0838  1.6283
19615TIP3   OH280259   5.982   3.592   6.171  0.3774  0.3441 -0.0125
19615TIP3    H180260   5.978   3.664   6.234 -0.6540  0.4756 -0.1992
19615TIP3    H280261   6.066   3.550   6.187  0.2840  0.5921  1.2152
19616TIP3   OH280262   3.695   2.879  11.927  0.0011  0.7970 -0.0578
19616TIP3    H180263   3.682   2.945  11.859 -0.9160  0.3164 -0.3724
19616TIP3    H280264   3.607   2.863  11.962  0.4364  0.9306  1.1464
19617TIP3   OH280265   2.820   1.860  15.565  0.1149  0.5181 -0.0759
19617TIP3    H180266   2.853   1.777  15.601 -0.8377  0.5637  0.9753
19617TIP3    H280267   2.771   1.834  15.487  1.2702  0.2903 -0.7479
19618TIP3   OH280268   4.295   0.270  15.186  0.1525 -0.1890  0.5065
19618TIP3    H180269   4.230   0.282  15.117  0.2630  1.1170  0.5904
19618TIP3    H280270   4.251   0.301  15.265 -0.0635 -1.9033  1.0933
19619TIP3   OH280271   6.632   0.053   3.693 -0.1498 -0.0681  0.1378
19619TIP3    H180272   6.624   0.018   3.781 -1.4568 -0.1093  0.0225
19619TIP3    H280273   6.680   0.135   3.704 -0.1220 -0.1771  0.8521
19620TIP3   OH280274   0.726   6.116  13.056  0.2528  0.0101  0.3533
19620TIP3    H180275   0.673   6.195  13.056  0.9157  0.4611  0.6702
19620TIP3    H280276   0.686   6.060  13.123  0.8662  0.8360  1.4469
19621TIP3   OH280277   6.234   3.296   5.552 -0.7573  0.6347  0.0370
19621TIP3    H180278   6.326   3.285   5.527 -0.4497 -1.7611  1.8392
19621TIP3    H280279   6.194   3.342   5.478  1.4209 -0.2101 -1.7798
19622TIP3   OH280280   5.255   0.154   2.649 -0.0093  0.1034 -0.8160
19622TIP3    H180281   5.164   0.173   2.673  1.0663  0.8514  3.5601
19622TIP3    H280282   5.271   0.210   2.574 -2.6741  1.3549 -0.5856
19623TIP3   OH280283   2.860   2.672   0.970 -0.1971  0.8108 -0.4986
19623TIP3    H180284   2.836   2.749   1.023  0.2694  0.6065  0.0165
19623TIP3    H280285   2.840   2.698   0.881 -1.2232  1.0775 -0.2043
19624TIP3   OH280286   2.641   4.332  17.116  0.4124 -0.1620  0.5173
19624TIP3    H180287   2.605   4.406  17.165 -0.1164  0.8736 -1.3342
19624TIP3    H280288   2.693   4.284  17.180  0.7696  1.8172  1.7942
19625TIP3   OH280289   0.220   2.972   2.570 -0.0071 -0.2313 -0.7096
19625TIP3    H180290   0.310   2.953   2.541 -0.3749 -1.3576 -1.1562
19625TIP3    H280291   0.211   2.924   2.652  0.4283  1.4896  0.4065
19626TIP3   OH280292   4.816   5.978  16.113 -0.0407  0.1380  0.0700
19626TIP3    H180293   4.782   6.031  16.185 -0.0006  0.3751 -0.0833
19626TIP3    H280294   4.806   6.034  16.036  2.5100  1.0546  0.2857
19627TIP3   OH280295   4.409   4.965  15.729  0.3058 -0.3270 -0.0003
19627TIP3    H180296   4.446   4.888  15.771 -1.3543 -0.8712  0.5577
19627TIP3    H280297   4.421   4.950  15.635  2.8629  0.2863  0.1643
19628TIP3   OH280298   2.011   6.276   4.253 -0.4720  0.3276 -0.3961
19628TIP3    H180299   2.034   6.272   4.160  1.0148  3.0741 -0.2184
19628TIP3    H280300   1.959   6.356   4.262  0.2546  0.6501  1.2975
19629TIP3   OH280301   4.652   0.783  10.910 -0.8986 -0.6733  0.2013
19629TIP3    H180302   4.707   0.839  10.856  0.2987 -0.2134  1.8143
19629TIP3    H280303   4.676   0.694  10.884 -0.3912 -0.4604 -0.0698
19630TIP3   OH280304   1.450   4.935  16.116 -0.0600 -0.3381 -0.2071
19630TIP3    H180305   1.542   4.954  16.134 -0.1512  0.5804 -0.6282
19630TIP3    H280306   1.425   4.999  16.048 -0.5767 -1.6027 -1.2544
19631TIP3   OH280307   5.180   0.764  12.310  0.2672  0.5027  0.7961
19631TIP3    H180308   5.215   0.789  12.395  0.6386  0.6854  0.5925
19631TIP3    H280309   5.086   0.783  12.316  0.4453  1.4294  0.8366
19632TIP3   OH280310   2.945   2.317   1.364 -0.2587 -0.0813  0.3276
19632TIP3    H180311   2.855   2.310   1.330  0.4170  0.6885 -1.7427
19632TIP3    H280312   2.992   2.246   1.321  0.1814 -0.4377  1.3607
19633TIP3   OH280313   0.236   5.827   0.813  0.1667  0.8860  0.1734
19633TIP3    H180314   0.285   5.874   0.880  1.1515  0.2526 -0.0881
19633TIP3    H280315   0.258   5.871   0.731  2.7918 -1.2131 -0.3941
19634TIP3   OH280316   6.394   4.455   0.267 -0.3526 -0.7482 -0.3715
19634TIP3    H180317   6.444   4.533   0.288  0.6826 -1.7178  0.9294
19634TIP3    H280318   6.307   4.487   0.242  0.0416  0.7928  0.1657
19635TIP3   OH280319   4.894   2.430   6.359  0.0695 -0.2062  0.5145
19635TIP3    H180320   4.913   2.462   6.271 -1.2000  2.4088  1.0791
19635TIP3    H280321   4.826   2.364   6.347  3.0876 -3.4104 -0.7480
19636TIP3   OH280322   5.124   2.685  17.332  0.1896 -0.2945 -0.0070
19636TIP3    H180323   5.033   2.662  17.313 -0.3239  2.3907 -1.3221
19636TIP3    H280324   5.118   2.757  17.395  1.4988 -1.1499  1.1580
19637TIP3   OH280325   1.440   3.264  15.618  0.1861 -0.1019 -0.2225
19637TIP3    H180326   1.472   3.206  15.550 -0.4016 -0.3699 -0.2819
19637TIP3    H280327   1.363   3.219  15.653 -0.1918  0.5673 -0.1683
19638TIP3   OH280328   6.698   1.909  11.397  0.2141 -0.1220 -0.5478
19638TIP3    H180329   6.620   1.930  11.346 -0.2493  0.2537  0.2859
19638TIP3    H280330   6.745   1.992  11.404 -0.1683  0.0319  0.3508
19639TIP3   OH280331   2.879   1.437  10.679 -0.4467  0.1560 -0.0619
19639TIP3    H180332   2.901   1.376  10.750  1.2241  2.0911  1.1826
19639TIP3    H280333   2.949   1.424  10.615 -0.5794  0.1275 -0.1993
19640TIP3   OH280334   6.588   5.302  16.509  0.5451  0.5250 -0.5783
19640TIP3    H180335   6.550   5.267  16.429 -0.7845 -0.1520  0.3239
19640TIP3    H280336   6.579   5.397  16.501 -0.5966  0.4095 -0.7551
19641TIP3   OH280337   0.653   0.430  12.412  0.1343 -0.4031 -0.0928
19641TIP3    H180338   0.622   0.511  12.372  0.6137 -0.2092 -0.0782
19641TIP3    H280339   0.745   0.447  12.431  0.0101 -0.6272  0.7399
19642TIP3   OH280340   2.321   4.083   2.049 -0.4582 -0.3037 -0.0553
19642TIP3    H180341   2.321   4.159   2.107 -0.5556  0.2031 -0.7035
19642TIP3    H280342   2.330   4.008   2.107  3.7766  0.3486  0.4251
19643TIP3   OH280343   1.711   2.615   3.682  0.7674  0.1274  0.0896
19643TIP3    H180344   1.770   2.674   3.635  2.2699 -2.5175 -1.6594
19643TIP3    H280345   1.670   2.563   3.613  0.8564 -2.0041  1.5426
19644TIP3   OH280346   6.439   4.648   4.376  0.3533  0.4611 -0.0663
19644TIP3    H180347   6.428   4.680   4.465 -0.1896  0.1477 -0.0166
19644TIP3    H280348   6.510   4.701   4.340  0.6678  0.4972  0.5937
19645TIP3   OH280349   5.709   3.438  12.460  0.2462  0.2640  0.2416
19645TIP3    H180350   5.792   3.470  12.496 -0.0764  2.9932 -1.1857
19645TIP3    H280351   5.733   3.396  12.377  0.1842  2.1584 -0.7989
19646TIP3   OH280352   1.130   3.424   3.322 -0.1882  0.2879 -0.0863
19646TIP3    H180353   1.134   3.345   3.375 -0.5211  0.2841 -0.0661
19646TIP3    H280354   1.082   3.487   3.376  1.4689  1.0358  0.5829
19647TIP3   OH280355   1.917   0.960  12.234 -0.3298  0.0768  0.1196
19647TIP3    H180356   1.856   0.917  12.294 -0.0684  0.8492  0.9633
19647TIP3    H280357   2.001   0.958  12.278  0.1045 -0.2939 -0.7016
19648TIP3   OH280358   5.984   5.288  16.684  0.2937  0.1785 -0.1780
19648TIP3    H180359   5.999   5.311  16.775  1.2318 -0.9558 -0.0169
19648TIP3    H280360   5.917   5.349  16.654  0.3925  0.9438  1.0990
19649TIP3   OH280361   2.168   1.467   2.632  0.5235  0.2594  0.3386
19649TIP3    H180362   2.186   1.549   2.678  1.3320  0.8475 -0.9824
19649TIP3    H280363   2.186   1.486   2.540  0.7158 -1.3970  0.0006
19650TIP3   OH280364   0.381   2.249   4.177 -0.6002 -0.1249  0.5792
19650TIP3    H180365   0.307   2.307   4.159 -1.3014 -1.5459 -1.6220
19650TIP3    H280366   0.377   2.183   4.107  0.4684 -2.5136  2.6222
19651TIP3   OH280367   4.624   5.494   4.677 -0.1751  0.1225 -0.3116
19651TIP3    H180368   4.560   5.441   4.630 -2.0750  2.2468 -0.3051
19651TIP3    H280369   4.606   5.478   4.769 -0.2562  0.2031 -0.3127
19652TIP3   OH280370   3.477   0.048  16.672  0.1865 -0.4573  0.0275
19652TIP3    H180371   3.428   0.091  16.602  3.4695  2.2252 -0.9443
19652TIP3    H280372   3.524  -0.023  16.629  0.7657  0.0044 -0.1146
19653TIP3   OH280373   4.593   6.538  13.665  0.2483 -0.0237  0.3531
19653TIP3    H180374   4.679   6.556  13.704 -0.2152 -0.0392  1.4010
19653TIP3    H280375   4.614   6.497  13.581  1.2724  0.6976  0.2370
19654TIP3   OH280376   1.804   5.807   6.139 -0.3011  0.0938 -0.2453
19654TIP3    H180377   1.815   5.828   6.046 -0.5571 -0.4854 -0.4062
19654TIP3    H280378   1.808   5.892   6.182  0.9746  0.2675 -0.6666
19655TIP3   OH280379   4.373   0.533  14.417  0.0264  0.0665  0.1277
19655TIP3    H180380   4.458   0.557  14.455 -0.2614  1.1758  0.0959
19655TIP3    H280381   4.318   0.515  14.493  0.8673 -2.9969  0.1700
19656TIP3   OH280382   1.296   2.604  15.141 -0.2439 -0.3147  0.3228
19656TIP3    H180383   1.329   2.666  15.206 -2.5428 -2.0483  3.4503
19656TIP3    H280384   1.208   2.637  15.118 -0.0667 -0.5551 -0.7774
19657TIP3   OH280385   1.296   3.979  13.126  0.2983 -0.1352 -0.7054
19657TIP3    H180386   1.310   3.887  13.101  0.3852 -0.3071 -0.0297
19657TIP3    H280387   1.352   3.992  13.202 -2.6709 -0.6697  1.7559
19658TIP3   OH280388   3.048   1.715  16.342  0.0373  0.0106  0.1327
19658TIP3    H180389   2.993   1.779  16.296  0.5490 -0.3381 -1.0180
19658TIP3    H280390   3.090   1.766  16.411 -1.9774  0.2090  1.2965
19659TIP3   OH280391   1.912   0.778   3.411 -0.2429 -0.3822  0.1378
19659TIP3    H180392   1.850   0.705   3.407 -0.3426 -0.3171  0.4457
19659TIP3    H280393   1.994   0.738   3.439 -0.8250 -0.0779  2.5031
19660TIP3   OH280394   1.897   1.029   3.927 -0.1368  0.1561 -0.0187
19660TIP3    H180395   1.858   0.998   4.008  0.5446  0.3849  0.4123
19660TIP3    H280396   1.841   1.101   3.899 -3.2929 -2.8899 -2.4193
19661TIP3   OH280397   0.693   1.613   0.485  0.0448 -0.0699  0.0961
19661TIP3    H180398   0.656   1.529   0.458  0.2690 -0.8729  2.1468
19661TIP3    H280399   0.636   1.679   0.445 -0.3194 -1.1823 -1.2791
19662TIP3   OH280400   5.010   4.509   5.912  0.3543  0.2971 -0.8501
19662TIP3    H180401   4.929   4.560   5.924 -0.9854 -1.8710 -0.0123
19662TIP3    H280402   4.997   4.463   5.829  0.9564  0.2914 -0.9433
19663TIP3   OH280403   0.032   6.017   1.553 -0.4864 -0.2307  0.3218
19663TIP3    H180404  -0.027   6.018   1.478 -0.5723 -3.7496  0.1564
19663TIP3    H280405  -0.017   6.059   1.623 -1.6699  0.2652 -0.7555
19664TIP3   OH280406   0.238   4.140  14.827  0.3106  0.3498  0.0101
19664TIP3    H180407   0.156   4.186  14.807 -0.4680 -0.1198  1.9074
19664TIP3    H280408   0.304   4.183  14.772 -0.8431  2.0125 -0.1421
19665TIP3   OH280409   3.798   1.969   3.222 -0.3052  0.0650  0.6251
19665TIP3    H180410   3.729   1.903   3.211 -0.8118  0.6024  0.5346
19665TIP3    H280411   3.879   1.921   3.209 -0.6680 -0.5531  0.6005
19666TIP3   OH280412   6.533   1.875   2.885  0.0918  0.0745  0.1976
19666TIP3    H180413   6.540   1.898   2.978 -1.8279  0.9006  0.1949
19666TIP3    H280414   6.517   1.958   2.841 -3.6830 -0.6568 -0.2297
19667TIP3   OH280415   2.704   5.739   2.308  0.8189  0.1858  0.1777
19667TIP3    H180416   2.670   5.663   2.356  1.8371  1.0437  2.3755
19667TIP3    H280417   2.657   5.737   2.225  0.3723 -2.5001  0.3888
19668TIP3   OH280418   2.271   1.444  14.449 -0.0082  0.2222  0.3498
19668TIP3    H180419   2.177   1.459  14.465 -0.2164  0.3020 -0.8594
19668TIP3    H280420   2.285   1.353  14.476 -0.3706  0.2855  0.7699
19669TIP3   OH280421   5.042   3.758  12.399  0.3612  0.5804  0.0161
19669TIP3    H180422   5.019   3.778  12.308 -1.0802 -1.8646 -0.2494
19669TIP3    H280423   5.101   3.683  12.393 -1.1476 -0.7494  1.0884
19670TIP3   OH280424   4.212   4.588   4.493 -0.0298 -0.2173 -1.0274
19670TIP3    H180425   4.193   4.626   4.407  0.2713  1.5552 -0.3446
19670TIP3    H280426   4.265   4.654   4.538 -1.5402 -0.3828  1.1380
19671TIP3   OH280427   3.042   2.335  17.236  0.3102  0.5367  0.2150
19671TIP3    H180428   3.111   2.349  17.172  1.7389  1.9704  1.9731
19671TIP3    H280429   2.962   2.361  17.191  1.4205  2.7228 -0.6509
19672TIP3   OH280430   3.240   4.455   4.745 -0.3481 -0.2067  0.7477
19672TIP3    H180431   3.258   4.525   4.809 -2.5380  0.6292  0.5558
19672TIP3    H280432   3.166   4.408   4.782 -0.9159 -0.4298 -0.6169
19673TIP3   OH280433   4.603   1.154  13.383  0.1905 -0.1786 -0.2811
19673TIP3    H180434   4.650   1.237  13.396 -1.1405  0.5850 -0.1078
19673TIP3    H280435   4.641   1.117  13.303 -2.0490  2.7581 -2.9571
19674TIP3   OH280436   3.249   4.573   4.995 -0.1440  0.1925  0.4644
19674TIP3    H180437   3.274   4.555   5.085  0.6718  0.6287  0.3388
19674TIP3    H280438   3.168   4.623   5.002 -0.6229 -0.6352  0.9140
19675TIP3   OH280439   6.194   2.051   6.425  0.0648 -0.6405 -0.1789
19675TIP3    H180440   6.233   2.015   6.505  1.6747 -0.3452 -0.8116
19675TIP3    H280441   6.254   2.119   6.396 -1.9854  1.3376 -0.0589
19676TIP3   OH280442   0.490   5.821  11.670  0.6496 -0.1372 -0.9814
19676TIP3    H180443   0.465   5.728  11.665 -0.7945  0.2657 -1.8357
19676TIP3    H280444   0.557   5.824  11.738 -0.9369 -1.4865  0.7894
19677TIP3   OH280445   3.273   1.812   1.575  0.6699 -0.0545  0.0449
19677TIP3    H180446   3.217   1.888   1.587 -1.0651 -1.3405  0.6182
19677TIP3    H280447   3.269   1.766   1.659  1.3809 -0.9414 -0.3874
19678TIP3   OH280448   0.871   4.266   2.586  0.3229  0.3685  0.2929
19678TIP3    H180449   0.814   4.332   2.547 -0.5915 -1.0475 -0.8883
19678TIP3    H280450   0.952   4.313   2.607 -0.8197  2.1653  0.9060
19679TIP3   OH280451   2.303   1.147  12.646 -0.0183  0.4231  0.3566
19679TIP3    H180452   2.210   1.130  12.659 -0.4814  2.2718 -0.2120
19679TIP3    H280453   2.333   1.184  12.729  0.6644 -1.6907  1.1262
19680TIP3   OH280454   0.766   4.517   2.796  0.0397 -0.2078  0.3899
19680TIP3    H180455   0.700   4.583   2.775 -0.4684 -1.0389 -0.7095
19680TIP3    H280456   0.727   4.466   2.867 -0.4268 -0.5832 -0.1330
19681TIP3   OH280457   4.628   2.610   4.120  0.2968 -0.1385  0.1874
19681TIP3    H180458   4.560   2.577   4.179  0.9559 -0.8115  0.5873
19681TIP3    H280459   4.584   2.623   4.036 -0.6343  0.7299  0.7825
19682TIP3   OH280460   5.793   6.501   0.635 -0.2380  0.2832 -0.3865
19682TIP3    H180461   5.800   6.536   0.724  1.7131  1.5931 -0.9934
19682TIP3    H280462   5.767   6.577   0.582  1.4054  0.2346 -1.3265
19683TIP3   OH280463   1.245   3.760  11.146 -0.4103 -0.0786 -0.1565
19683TIP3    H180464   1.339   3.746  11.152 -0.4675 -0.1616  0.7428
19683TIP3    H280465   1.227   3.827  11.212 -1.3654 -2.0383  1.6959
19684TIP3   OH280466   4.961   4.077  10.893 -0.0734  0.2165 -0.1345
19684TIP3    H180467   5.052   4.048  10.887  0.3199  1.0087  1.4491
19684TIP3    H280468   4.925   4.063  10.806  0.9568 -2.0793 -0.2606
19685TIP3   OH280469   2.015   4.955  17.085  0.0644  0.2072  0.0351
19685TIP3    H180470   2.024   4.860  17.082 -0.3989  0.1353  0.6947
19685TIP3    H280471   2.058   4.981  17.166  2.1206  0.8173 -1.1557
19686TIP3   OH280472   0.368   5.254   6.519 -0.2889 -0.0100 -0.4658
19686TIP3    H180473   0.287   5.248   6.570 -0.4119  0.7910 -0.5499
19686TIP3    H280474   0.407   5.167   6.524 -0.7817 -0.1952  0.1968
19687TIP3   OH280475   2.035   0.961   1.662  0.3246 -0.4455  0.3086
19687TIP3    H180476   2.043   0.923   1.750  0.7685 -0.3105  0.3297
19687TIP3    H280477   2.115   0.935   1.617  1.2484  1.5076  0.7282
19688TIP3   OH280478   1.130   5.688  15.082  0.2249  0.3425  0.2338
19688TIP3    H180479   1.095   5.752  15.143 -0.5224 -0.1903  0.3778
19688TIP3    H280480   1.055   5.664  15.027  0.8729  0.7717 -0.8550
19689TIP3   OH280481   6.264   3.799   0.816 -0.3826  0.0627 -0.1821
19689TIP3    H180482   6.277   3.741   0.891 -0.6957 -1.0778 -0.9771
19689TIP3    H280483   6.242   3.740   0.744 -1.1049  1.2098 -0.9349
19690TIP3   OH280484   1.849   4.025   4.139  0.3503 -0.4474 -0.7364
19690TIP3    H180485   1.768   4.002   4.184  1.1051 -2.4349 -0.2610
19690TIP3    H280486   1.841   3.985   4.053  0.2465  0.5963 -1.2244
19691TIP3   OH280487   6.713   5.073   3.817 -0.2513 -0.1900 -0.1787
19691TIP3    H180488   6.775   5.008   3.783  0.5662  0.9803 -1.0207
19691TIP3    H280489   6.634   5.023   3.836  1.0756 -1.8426  1.4110
19692TIP3   OH280490   5.106   1.546   1.900 -0.4035 -0.4415  0.0318
19692TIP3    H180491   5.062   1.462   1.915 -1.4763  0.2278  0.7999
19692TIP3    H280492   5.059   1.584   1.826 -2.5311  1.1301  2.0319
19693TIP3   OH280493   0.766   0.844  15.938  0.1405 -0.2437 -0.0970
19693TIP3    H180494   0.823   0.807  16.006 -0.7543 -1.5132  0.0073
19693TIP3    H280495   0.771   0.782  15.865 -1.0272 -0.3605 -0.1109
19694TIP3   OH280496   3.827   6.313  15.128  0.2643 -0.4769  0.1154
19694TIP3    H180497   3.921   6.302  15.116  0.2350  0.1219 -0.7942
19694TIP3    H280498   3.801   6.241  15.186  0.9309 -1.8362 -1.2204
19695TIP3   OH280499   2.397   1.096  17.093  0.0634  0.1519 -0.3726
19695TIP3    H180500   2.474   1.047  17.065 -0.6305 -0.1698 -1.8296
19695TIP3    H280501   2.323   1.050  17.053 -0.8465  0.7617  0.5445
19696TIP3   OH280502   2.621   0.471  11.986 -0.3938 -0.3841  0.3316
19696TIP3    H180503   2.533   0.505  12.002 -0.2153 -0.1754  0.8942
19696TIP3    H280504   2.645   0.508  11.901 -0.4133  0.4850  0.6895
19697TIP3   OH280505   4.771   0.410  15.674  0.0556  0.1172 -0.2297
19697TIP3    H180506   4.763   0.334  15.616 -0.3024  0.2682 -0.3785
19697TIP3    H280507   4.709   0.474  15.639 -0.1188  0.2355  0.2795
19698TIP3   OH280508   4.528   3.124  15.624 -0.0866 -0.6820 -0.3048
19698TIP3    H180509   4.618   3.155  15.617 -0.5322  1.3994  1.9146
19698TIP3    H280510   4.527   3.067  15.701 -1.3023  2.5959  2.3642
19699TIP3   OH280511   4.049   4.152  12.075  0.1759  0.6591 -0.2445
19699TIP3    H180512   3.970   4.124  12.029  0.5851 -0.1830 -0.4463
19699TIP3    H280513   4.036   4.124  12.165  0.9307 -0.9652 -0.6068
19700TIP3   OH280514   2.358   6.257   2.835  0.6362 -0.6201 -0.4357
19700TIP3    H180515   2.410   6.191   2.880  1.0082  0.4685  0.7840
19700TIP3    H280516   2.277   6.262   2.886 -0.4855 -1.8847 -1.9828
19701TIP3   OH280517   0.097   1.313   1.957  0.3079 -0.0776  0.3999
19701TIP3    H180518   0.097   1.225   1.918  1.4067 -0.1303  0.4801
19701TIP3    H280519   0.022   1.314   2.016  0.1784 -0.9025  0.2549
19702TIP3   OH280520   1.613   0.735  16.920  0.5174  0.2183 -0.5712
19702TIP3    H180521   1.541   0.705  16.976  1.4158  0.1428  0.6047
19702TIP3    H280522   1.581   0.725  16.831 -0.0808 -2.1411 -0.1747
19703TIP3   OH280523   5.390   5.868  11.165 -0.4529  0.4894 -0.1550
19703TIP3    H180524   5.453   5.805  11.128  0.1536  0.4673  0.8769
19703TIP3    H280525   5.435   5.952  11.159 -1.7145  1.0827 -2.6158
19704TIP3   OH280526   1.620   5.973   1.539  0.4447 -0.8984 -0.5537
19704TIP3    H180527   1.657   5.911   1.603  0.1621 -0.2782  0.2354
19704TIP3    H280528   1.663   6.057   1.560  0.8739 -0.8342 -1.6536
19705TIP3   OH280529   0.903   6.330   0.719  0.6651  0.3293 -0.8376
19705TIP3    H180530   0.863   6.381   0.648  1.2416  2.3484  0.2006
19705TIP3    H280531   0.863   6.365   0.799  1.1719 -0.7981 -0.0668
19706TIP3   OH280532   5.946   6.053  12.170  0.6004 -0.5445 -0.1168
19706TIP3    H180533   6.033   6.089  12.154 -0.1897  0.7985 -1.6897
19706TIP3    H280534   5.960   5.959  12.177  1.8323 -0.8003 -3.8539
19707TIP3   OH280535   5.327   3.638  12.111  0.0271 -0.5581  0.0793
19707TIP3    H180536   5.297   3.729  12.115 -0.9691 -0.8189 -0.8273
19707TIP3    H280537   5.293   3.598  12.191  0.4850 -0.1320  0.4922
19708TIP3   OH280538   4.357   1.026   1.923 -0.0611  0.3968  0.0870
19708TIP3    H180539   4.394   1.002   2.008 -1.1260 -2.1732 -0.0942
19708TIP3    H280540   4.292   1.094   1.944 -0.7878 -0.6549  1.4578
19709TIP3   OH280541   4.434   3.437  17.057 -0.4037 -0.0138  0.0314
19709TIP3    H180542   4.513   3.427  17.004 -0.3638 -1.5663  0.3405
19709TIP3    H280543   4.394   3.518  17.025 -0.6361 -1.1205 -2.7754
19710TIP3   OH280544   1.651   0.887   0.616 -0.1126  0.5514  0.2568
19710TIP3    H180545   1.655   0.963   0.674 -0.8333  1.3341 -0.6860
19710TIP3    H280546   1.673   0.921   0.529 -1.1433 -0.1504 -0.3078
19711TIP3   OH280547   1.815   1.904   2.952 -0.1760  0.5195 -0.0760
19711TIP3    H180548   1.763   1.979   2.983 -2.7043 -1.5127  0.9329
19711TIP3    H280549   1.753   1.852   2.901  1.2172 -1.4249  0.1310
19712TIP3   OH280550   6.489   5.969   4.716 -0.2341 -0.1165 -0.2714
19712TIP3    H180551   6.507   6.062   4.729 -1.5490 -0.0034  0.9643
19712TIP3    H280552   6.416   5.967   4.654 -1.1754 -0.2599  0.8291
19713TIP3   OH280553   2.294   5.229  12.696 -0.4103  0.5801  0.0205
19713TIP3    H180554   2.243   5.224  12.777 -0.2462  2.0252  0.2458
19713TIP3    H280555   2.314   5.138  12.675 -1.1928  0.1182  1.1265
19714TIP3   OH280556   4.475   1.700  11.607 -0.0642 -0.2659  0.0199
19714TIP3    H180557   4.442   1.789  11.617 -0.6961 -0.3955 -0.7752
19714TIP3    H280558   4.396   1.648  11.590  0.3206 -0.9434  0.2976
19715TIP3   OH280559   0.320   0.027   2.630  0.2116 -0.5787  0.6602
19715TIP3    H180560   0.309   0.111   2.584  1.8660 -1.3559 -1.3023
19715TIP3    H280561   0.330   0.052   2.722  0.8574  1.4001  0.1124
19716TIP3   OH280562   5.905   1.878  16.174  0.0984 -0.2805 -0.2706
19716TIP3    H180563   5.913   1.969  16.203 -1.9265 -0.3715  0.7604
19716TIP3    H280564   5.965   1.830  16.232 -0.9356  0.0627  1.1446
19717TIP3   OH280565   4.621   0.973   3.391  0.1971 -0.0261  0.3674
19717TIP3    H180566   4.618   0.939   3.301 -0.2313  1.6580 -0.2773
19717TIP3    H280567   4.557   0.920   3.438 -1.7841  1.0183 -1.0361
19718TIP3   OH280568   3.206   3.365  16.119  0.1569 -0.2230 -0.0625
19718TIP3    H180569   3.176   3.281  16.153 -1.0395  0.2842  0.2050
19718TIP3    H280570   3.128   3.420  16.120  0.9652  0.9588 -0.0330
19719TIP3   OH280571   4.271   0.825  15.813  0.4299 -0.3126  0.1652
19719TIP3    H180572   4.333   0.854  15.880  0.6392 -1.0721  0.3138
19719TIP3    H280573   4.248   0.736  15.839 -2.1810  0.5473  1.1694
19720TIP3   OH280574   4.585   3.723   2.084  0.1770 -0.5116  0.1590
19720TIP3    H180575   4.552   3.635   2.064 -2.0621  0.1527  0.7465
19720TIP3    H280576   4.592   3.725   2.179 -1.0464  0.3545  0.2456
19721TIP3   OH280577   1.450   0.890  11.523  0.5524 -0.2727 -0.6833
19721TIP3    H180578   1.387   0.895  11.451  1.5965  0.3279 -1.5846
19721TIP3    H280579   1.529   0.932  11.489  0.6552  1.2449  1.2892
19722TIP3   OH280580   1.803   0.236  13.739  0.6450  0.2251  0.3588
19722TIP3    H180581   1.893   0.259  13.716  1.3098 -2.7405 -0.3923
19722TIP3    H280582   1.812   0.163  13.800 -1.2863  0.2949  0.7758
19723TIP3   OH280583   0.294   0.682   2.873  0.1082  0.0249  0.3715
19723TIP3    H180584   0.361   0.632   2.919  0.3002  0.4503  0.5629
19723TIP3    H280585   0.218   0.681   2.932 -0.3133 -1.0744 -0.1637
19724TIP3   OH280586   4.433   5.994  16.462  0.2882 -0.5919 -0.6093
19724TIP3    H180587   4.506   6.057  16.470 -1.1286  1.0585 -0.1147
19724TIP3    H280588   4.407   5.976  16.552 -0.1612 -0.8735 -0.7976
19725TIP3   OH280589   5.975   1.570   2.080  0.2291 -0.4325  0.2550
19725TIP3    H180590   5.965   1.660   2.109  0.4884  0.0042 -0.9525
19725TIP3    H280591   5.961   1.574   1.985 -1.7565 -1.9685  0.4156
19726TIP3   OH280592   5.936   2.358  11.672 -0.5270  0.0996  0.5691
19726TIP3    H180593   5.840   2.364  11.673 -0.5884 -0.5986  1.9910
19726TIP3    H280594   5.954   2.264  11.661 -0.0137  0.1883  0.6333
19727TIP3   OH280595   0.012   1.393  14.763 -0.5763  1.0055  0.3767
19727TIP3    H180596   0.096   1.373  14.803  0.7478  1.8878 -1.7790
19727TIP3    H280597  -0.028   1.307  14.746  0.0648  0.5704  1.0439
19728TIP3   OH280598   6.745   1.831  14.759  0.6582  0.3362 -0.3116
19728TIP3    H180599   6.710   1.765  14.819  1.6745  0.3019  0.2561
19728TIP3    H280600   6.754   1.910  14.812 -0.5122  0.9512 -0.9765
19729TIP3   OH280601   1.151   3.835   2.257  0.2870  0.7995 -0.3136
19729TIP3    H180602   1.132   3.881   2.339 -0.4558  0.5231 -0.3207
19729TIP3    H280603   1.244   3.849   2.243  0.6685 -0.0692  1.1421
19730TIP3   OH280604   5.091   2.572  13.162  0.5475 -0.2176 -0.1353
19730TIP3    H180605   5.060   2.583  13.073  3.1208  0.7888 -1.0009
19730TIP3    H280606   5.109   2.661  13.193 -0.1756 -0.5622  1.3596
19731TIP3   OH280607   6.265   0.853  13.415  0.3196  0.0255 -0.2028
19731TIP3    H180608   6.210   0.797  13.470 -0.6656  0.4028 -0.7860
19731TIP3    H280609   6.298   0.920  13.475 -1.3664  0.8901 -0.1667
19732TIP3   OH280610   4.599   3.014   1.185  0.0289 -0.7846  0.2063
19732TIP3    H180611   4.567   3.097   1.150  0.5026 -0.5717  0.2777
19732TIP3    H280612   4.619   3.032   1.277  1.0264 -0.7233 -0.0102
19733TIP3   OH280613   4.762   4.451  11.824  0.3429 -0.0398 -0.8088
19733TIP3    H180614   4.747   4.511  11.897  0.6598  0.1506 -0.8983
19733TIP3    H280615   4.845   4.480  11.785  0.2081 -0.1778 -1.2052
19734TIP3   OH280616   1.248   5.675   5.602 -0.5450  0.2335  0.1513
19734TIP3    H180617   1.303   5.669   5.681  1.5936 -0.1571 -1.2756
19734TIP3    H280618   1.240   5.769   5.585 -0.9020  0.3144  0.7333
19735TIP3   OH280619   1.020   1.433   2.539  0.5545  0.1913  0.2977
19735TIP3    H180620   1.089   1.392   2.592  0.8586  2.0812  1.4539
19735TIP3    H280621   0.991   1.364   2.479  2.9351 -0.8650  0.2758
19736TIP3   OH280622   5.774   1.808   6.587 -0.0194  0.7157  0.5875
19736TIP3    H180623   5.784   1.785   6.679 -0.5454 -4.0908 -0.2843
19736TIP3    H280624   5.686   1.846   6.581  0.0086  1.0610  2.0158
19737TIP3   OH280625   1.340   2.449  15.932  0.3079  0.8677  0.1353
19737TIP3    H180626   1.303   2.467  16.018  0.1700  0.2951  0.2026
19737TIP3    H280627   1.435   2.454  15.945  0.2721  1.5296  0.1481
19738TIP3   OH280628   3.057   1.310   1.801  0.0954  0.1979 -0.2354
19738TIP3    H180629   3.113   1.234   1.786 -0.5653 -0.9400  2.4690
19738TIP3    H280630   2.969   1.280   1.780  0.0965  1.0103 -1.4847
19739TIP3   OH280631   6.395   0.537   2.368 -0.0347  0.0994 -0.2214
19739TIP3    H180632   6.384   0.576   2.455  0.1728  0.8919 -0.5463
19739TIP3    H280633   6.459   0.467   2.381  1.2612  1.2795 -0.0365
19740TIP3   OH280634   4.350   1.307  11.464  0.2011  0.0907 -0.6525
19740TIP3    H180635   4.334   1.394  11.500  2.4933  0.8225 -1.2480
19740TIP3    H280636   4.401   1.323  11.385  1.0525 -1.8173 -0.5334
19741TIP3   OH280637   4.602   6.644   4.279 -0.0060  0.2279 -0.2174
19741TIP3    H180638   4.675   6.582   4.289  0.4660  0.8894  0.6180
19741TIP3    H280639   4.528   6.601   4.321  0.0759 -0.1630 -0.4668
19742TIP3   OH280640   5.888   5.360   1.978 -0.4847  0.1394 -0.0250
19742TIP3    H180641   5.803   5.315   1.981 -0.3750 -0.3403 -2.4108
19742TIP3    H280642   5.952   5.291   1.997 -0.4813 -0.1218 -0.9547
19743TIP3   OH280643   2.304   4.474  17.199 -0.0170  0.3443  0.2479
19743TIP3    H180644   2.318   4.531  17.123  1.2368  0.6859  0.7200
19743TIP3    H280645   2.383   4.483  17.252 -0.3992 -0.7398  1.0574
19744TIP3   OH280646   0.853   2.298  15.298 -0.1785 -0.1253 -0.0861
19744TIP3    H180647   0.821   2.220  15.344  0.8916  0.3007  1.4569
19744TIP3    H280648   0.890   2.353  15.367  0.5658  1.0271 -1.3515
19745TIP3   OH280649   3.626   4.665  13.939  0.6201  0.6604 -0.3566
19745TIP3    H180650   3.554   4.637  13.995  1.7216 -0.7824  0.4104
19745TIP3    H280651   3.607   4.625  13.854  1.0712 -0.6803  0.1529
19746TIP3   OH280652   4.052   2.581   5.972 -0.2972  0.0394 -0.2526
19746TIP3    H180653   4.008   2.649   6.023  2.3467  2.4149 -0.8496
19746TIP3    H280654   4.102   2.531   6.037  2.4871  2.5992 -0.2119
19747TIP3   OH280655   2.969   5.294  14.902  0.1458 -0.4751  0.1429
19747TIP3    H180656   2.912   5.221  14.877 -0.7117  0.3611 -0.4025
19747TIP3    H280657   2.912   5.371  14.898  1.3969  0.4265 -0.7312
19748TIP3   OH280658   1.691   4.160   1.247  0.1004 -0.7168  0.1757
19748TIP3    H180659   1.598   4.178   1.256 -0.0082 -1.1092 -0.1173
19748TIP3    H280660   1.700   4.125   1.158  0.5559 -0.4948  0.1318
19749TIP3   OH280661   2.837   4.565   5.924 -0.2303 -0.0587 -0.3532
19749TIP3    H180662   2.787   4.593   6.001 -0.9028  0.3726 -0.9404
19749TIP3    H280663   2.888   4.642   5.900  0.5831 -0.4328  0.1154
19750TIP3   OH280664   4.533   3.122  11.780  0.0940  0.5439 -0.3839
19750TIP3    H180665   4.591   3.050  11.758  0.4061  0.5223  0.4698
19750TIP3    H280666   4.559   3.148  11.869  1.6332  3.2646 -1.4766
19751TIP3   OH280667   2.727   3.951   1.945  0.3888 -0.0160 -0.8398
19751TIP3    H180668   2.781   3.997   1.881 -0.5453  1.4420 -0.6268
19751TIP3    H280669   2.658   4.014   1.968  0.8628 -0.3364  1.8275
19752TIP3   OH280670   1.550   0.393  16.657 -0.0676  0.2772  0.2286
19752TIP3    H180671   1.575   0.304  16.681  0.0819  0.2627  0.0293
19752TIP3    H280672   1.476   0.382  16.597  1.2212  0.1753 -1.4316
19753TIP3   OH280673   6.336   1.887   2.621 -0.0127  0.9544  0.8551
19753TIP3    H180674   6.363   1.974   2.589  2.6597  0.9681  2.7937
19753TIP3    H280675   6.308   1.902   2.711 -1.5686  0.0442  0.5646
19754TIP3   OH280676   4.790   2.737  17.117 -0.0633 -0.2712 -0.4004
19754TIP3    H180677   4.796   2.826  17.082  0.4197 -0.3897 -0.6148
19754TIP3    H280678   4.720   2.696  17.066 -0.5170  0.0833 -0.0774
19755TIP3   OH280679   6.261   4.028  14.974  0.3282  0.6523  0.6167
19755TIP3    H180680   6.351   4.025  14.943  0.2706 -0.2636  0.5076
19755TIP3    H280681   6.260   4.098  15.039  1.0824  0.7585  0.5186
19756TIP3   OH280682   6.024   1.473   1.040 -0.0940  0.4272  0.2482
19756TIP3    H180683   6.120   1.469   1.041 -0.0784  0.3684 -0.8593
19756TIP3    H280684   5.998   1.419   0.966 -1.0231  0.0123  0.8498
19757TIP3   OH280685   3.148   5.764  15.356 -0.3649  0.0394 -0.2212
19757TIP3    H180686   3.171   5.786  15.447 -0.5896 -0.5629 -0.0168
19757TIP3    H280687   3.156   5.669  15.351 -1.8784 -0.1072 -0.4012
19758TIP3   OH280688   2.624   5.097   0.922 -0.4648 -0.2109  0.1397
19758TIP3    H180689   2.627   5.004   0.945  0.8669 -0.1596  0.2158
19758TIP3    H280690   2.711   5.130   0.942 -0.3254  0.6358 -1.6358
19759TIP3   OH280691   3.757   1.437   6.444 -0.2490  0.2663 -0.7596
19759TIP3    H180692   3.761   1.394   6.530 -0.1517 -1.2604 -1.4949
19759TIP3    H280693   3.848   1.450   6.419 -0.2456  2.3001  0.0747
19760TIP3   OH280694   1.260   1.830   4.201 -0.1458  0.1733  0.0246
19760TIP3    H180695   1.167   1.807   4.202 -0.0686 -0.1571  1.1510
19760TIP3    H280696   1.303   1.757   4.247  0.7531  0.0071 -1.0413
19761TIP3   OH280697   2.587   3.761  14.327 -0.3722 -0.2613  0.4181
19761TIP3    H180698   2.549   3.799  14.407 -2.6380  1.0356 -1.1506
19761TIP3    H280699   2.663   3.816  14.309 -1.8909  1.8006 -0.1696
19762TIP3   OH280700   2.238   0.462  12.266  0.0238  0.2124  0.3750
19762TIP3    H180701   2.209   0.484  12.177 -0.5577  0.4323  0.6115
19762TIP3    H280702   2.288   0.538  12.294 -1.1253  0.8342  0.8120
19763TIP3   OH280703   3.359   5.486  14.461  0.0576 -0.0701 -0.2370
19763TIP3    H180704   3.276   5.517  14.499  0.1865 -0.7830  0.6563
19763TIP3    H280705   3.418   5.561  14.469  0.1376 -0.2507  1.1745
19764TIP3   OH280706   6.484   0.794   0.531 -0.2269  0.3906  0.3851
19764TIP3    H180707   6.531   0.872   0.560  0.1672 -0.2731  1.5929
19764TIP3    H280708   6.540   0.757   0.462 -1.2740  2.0864 -1.4729
19765TIP3   OH280709   0.430   6.281  11.879  0.0710  0.1807 -0.3019
19765TIP3    H180710   0.504   6.297  11.821  0.0040 -0.0096 -0.4404
19765TIP3    H280711   0.419   6.363  11.927  0.7863  0.0011  0.1863
19766TIP3   OH280712   5.897   4.843  14.674  0.4772 -0.4957 -0.1110
19766TIP3    H180713   5.811   4.843  14.633  0.6789 -1.0839 -0.5591
19766TIP3    H280714   5.880   4.827  14.767 -0.1126  2.4503  0.3934
19767TIP3   OH280715   1.408   2.506  12.569 -1.2067 -0.1687  0.4679
19767TIP3    H180716   1.440   2.552  12.647  2.0187 -2.1414  0.5121
19767TIP3    H280717   1.392   2.417  12.600 -0.1534 -0.9024 -1.0249
19768TIP3   OH280718   2.755   5.912  15.655  0.1202  0.3517  0.5200
19768TIP3    H180719   2.703   5.899  15.735 -0.6606  1.7360  0.2843
19768TIP3    H280720   2.796   5.828  15.638  0.5486  0.1007  2.5543
19769TIP3   OH280721   3.688   3.415   6.275 -0.7020  0.8481  0.6403
19769TIP3    H180722   3.783   3.423   6.284 -0.4622 -0.2572 -0.5450
19769TIP3    H280723   3.660   3.366   6.352 -0.1505  0.2861  0.4920
19770TIP3   OH280724   3.605   1.914  11.896  0.3978 -0.2743 -0.4840
19770TIP3    H180725   3.516   1.945  11.914  0.4775  0.1227 -0.7521
19770TIP3    H280726   3.662   1.975  11.944  0.5088 -0.8982  0.1965
19771TIP3   OH280727   2.226   5.982   1.778 -0.1213  0.6515 -0.6026
19771TIP3    H180728   2.200   6.006   1.867 -2.7898 -1.0661 -0.8086
19771TIP3    H280729   2.318   6.009   1.772 -0.8003  4.0484  1.4312
19772TIP3   OH280730   5.894   3.455   5.953  0.0741 -0.3190 -0.4580
19772TIP3    H180731   5.950   3.423   5.882  0.9981 -0.4037  0.2874
19772TIP3    H280732   5.955   3.486   6.019 -0.7834  0.4045  0.0179
19773TIP3   OH280733   1.445   0.644  17.083 -0.0396 -0.4304  0.0408
19773TIP3    H180734   1.448   0.551  17.060 -0.2482 -0.5582  0.5137
19773TIP3    H280735   1.482   0.648  17.171  1.7623  0.2015 -0.7029
19774TIP3   OH280736   1.741   1.724   5.787 -0.3357 -0.2187  0.1103
19774TIP3    H180737   1.806   1.788   5.759 -0.5458 -0.2847 -0.5371
19774TIP3    H280738   1.764   1.705   5.878 -1.1836  1.9317  0.8496
19775TIP3   OH280739   3.352   1.851   4.021 -0.3614 -0.4018  0.2004
19775TIP3    H180740   3.260   1.826   4.025 -0.2559 -0.9511 -0.5380
19775TIP3    H280741   3.350   1.945   4.006 -0.8545 -0.6394 -1.5110
19776TIP3   OH280742   2.843   5.386  16.238 -0.2506  0.2004 -0.3839
19776TIP3    H180743   2.766   5.329  16.229  0.6711 -1.1087 -0.2804
19776TIP3    H280744   2.857   5.393  16.332 -1.0117  1.5289 -0.3583
19777TIP3   OH280745   6.293   2.208  16.648  0.0512  0.7341 -0.1539
19777TIP3    H180746   6.292   2.229  16.741 -2.1769  0.9718 -0.1705
19777TIP3    H280747   6.341   2.126  16.642 -1.2344 -0.1833  1.4418
19778TIP3   OH280748   5.042   3.864   3.356 -0.2082 -0.2972  0.3150
19778TIP3    H180749   4.985   3.937   3.332  0.2559 -0.3789 -1.1468
19778TIP3    H280750   5.112   3.865   3.290 -0.0524 -1.9010  0.3973
19779TIP3   OH280751   0.440   1.371  16.615 -0.0934  0.1681 -0.1126
19779TIP3    H180752   0.368   1.415  16.570 -0.9631  0.7544  1.7513
19779TIP3    H280753   0.512   1.433  16.613 -0.0530  0.1067 -0.8369
19780TIP3   OH280754   2.037   1.590   4.443  0.2272 -0.7738 -0.5385
19780TIP3    H180755   1.944   1.571   4.454  0.1141 -0.1454 -0.3714
19780TIP3    H280756   2.045   1.615   4.351  0.2499 -0.9295 -0.5792
19781TIP3   OH280757   3.997   3.749  13.718  0.1558  0.4649 -0.1511
19781TIP3    H180758   3.927   3.683  13.719  1.3258 -0.8528  1.9401
19781TIP3    H280759   3.965   3.818  13.777 -0.1008  0.7029 -0.5622
19782TIP3   OH280760   5.791   3.421   4.377  0.0984  1.4200  0.1853
19782TIP3    H180761   5.866   3.371   4.344 -1.5509 -0.1984 -1.2714
19782TIP3    H280762   5.745   3.450   4.299 -0.7787  2.4864  1.0612
19783TIP3   OH280763   2.188   1.149   2.497 -0.3394 -0.7014  0.1621
19783TIP3    H180764   2.250   1.086   2.460  1.4109  0.2993  1.2458
19783TIP3    H280765   2.236   1.191   2.568 -2.2136  0.2945  0.9057
19784TIP3   OH280766   4.553   1.858   5.495 -0.1463 -0.0047 -0.2670
19784TIP3    H180767   4.570   1.843   5.588  1.5071 -0.9412 -0.6964
19784TIP3    H280768   4.459   1.843   5.485 -0.4280  0.5298  1.3182
19785TIP3   OH280769   3.313   6.408   1.531 -0.3503  0.0097  0.2871
19785TIP3    H180770   3.386   6.347   1.522  0.0489  0.5832 -0.3959
19785TIP3    H280771   3.253   6.364   1.593  0.9028 -0.1237  1.4427
19786TIP3   OH280772   4.330   0.347  17.134  0.2741 -0.1092  0.0603
19786TIP3    H180773   4.251   0.303  17.162  0.0267  1.7561  2.6481
19786TIP3    H280774   4.323   0.351  17.038 -2.1310 -1.0580  0.1439
19787TIP3   OH280775   5.578   2.208  14.109  0.2604  0.2592  0.1507
19787TIP3    H180776   5.523   2.176  14.180  0.2580 -0.4915 -0.1784
19787TIP3    H280777   5.517   2.234  14.040  0.1383 -5.4238 -2.4023
19788TIP3   OH280778   1.065   6.645  14.869  0.1675 -0.2188  0.1451
19788TIP3    H180779   0.980   6.689  14.865  0.5892  0.6270  0.3713
19788TIP3    H280780   1.070   6.611  14.959 -0.0466 -0.5032  0.0498
19789TIP3   OH280781   2.989   2.601   4.582  0.2185  0.3251 -0.4324
19789TIP3    H180782   2.952   2.686   4.605 -1.4069 -0.7737  1.2189
19789TIP3    H280783   3.051   2.582   4.653 -0.1827 -0.3205 -0.2505
19790TIP3   OH280784   4.686   5.407   4.093  0.3753 -0.1404  0.0636
19790TIP3    H180785   4.696   5.381   4.184 -0.8124 -1.7478 -0.2209
19790TIP3    H280786   4.602   5.369   4.066  0.5760  0.5061 -1.6339
19791TIP3   OH280787   1.001   1.011  11.293  0.4052 -0.0768 -0.4007
19791TIP3    H180788   0.935   1.042  11.355  1.7035  1.9783  0.0487
19791TIP3    H280789   1.066   0.965  11.347  1.0478  0.8844 -0.3272
19792TIP3   OH280790   5.637   6.460  17.328  0.0646  0.3434  0.1956
19792TIP3    H180791   5.661   6.379  17.373  0.8301  0.6572  0.3510
19792TIP3    H280792   5.716   6.487  17.281 -0.3977  0.6165 -0.4478
19793TIP3   OH280793   2.551   4.227  12.790  0.1128  0.1612  0.2553
19793TIP3    H180794   2.478   4.289  12.788  1.4840  1.8484 -1.2716
19793TIP3    H280795   2.571   4.212  12.698  2.6010  0.9050  0.6174
19794TIP3   OH280796   5.167   0.683   0.079  0.2587  0.2141 -0.2879
19794TIP3    H180797   5.108   0.759   0.076  0.1272  0.1550  0.6599
19794TIP3    H280798   5.107   0.608   0.076  0.4142  0.1076 -1.9812
19795TIP3   OH280799   5.139   5.574   2.169 -0.0544 -0.0887 -0.4837
19795TIP3    H180800   5.064   5.630   2.152  1.2996  1.5081 -1.6299
19795TIP3    H280801   5.186   5.618   2.239  1.1367  0.3902 -1.5354
19796TIP3   OH280802   5.179   3.948  11.477  0.4382  0.6953  0.1709
19796TIP3    H180803   5.177   3.873  11.418 -0.0275  0.3791  0.5809
19796TIP3    H280804   5.087   3.963  11.500  0.5122  1.4930 -0.0355
19797TIP3   OH280805   6.318   5.722  14.177  0.1114  0.3873 -0.1285
19797TIP3    H180806   6.341   5.792  14.237  1.6224 -0.2496  0.0683
19797TIP3    H280807   6.388   5.722  14.111  0.2210 -1.0200 -0.0425
19798TIP3   OH280808   3.305   0.665   4.067 -0.4779  0.0669  0.0947
19798TIP3    H180809   3.257   0.703   4.140 -2.3588 -1.9522  0.0158
19798TIP3    H280810   3.246   0.598   4.032  0.7290  0.3219 -2.6891
19799TIP3   OH280811   4.558   3.870  14.414  0.3896 -0.0394  0.0618
19799TIP3    H180812   4.552   3.961  14.386  2.7638  0.0156 -0.4633
19799TIP3    H280813   4.571   3.875  14.509  0.4529  0.1680  0.0425
19800TIP3   OH280814   2.362   6.365   1.971 -0.4143  0.5734 -0.0777
19800TIP3    H180815   2.408   6.425   2.031 -1.3233  2.0435 -0.7936
19800TIP3    H280816   2.376   6.403   1.884 -3.3077  1.3467 -0.2884
19801TIP3   OH280817   1.679   1.157  13.506  0.2748 -0.2052  0.0172
19801TIP3    H180818   1.653   1.085  13.564 -1.4441  0.0922 -0.3213
19801TIP3    H280819   1.735   1.213  13.560  2.0769 -2.0108  0.1431
19802TIP3   OH280820   3.011   2.601  14.989  0.3603 -0.0571 -0.4628
19802TIP3    H180821   2.992   2.669  15.054  1.7037 -1.4600  1.5043
19802TIP3    H280822   2.930   2.549  14.985  0.1260  0.2826 -0.2497
19803TIP3   OH280823   3.344   5.755  17.232  0.4597  0.2864 -0.4235
19803TIP3    H180824   3.282   5.710  17.290  0.8579 -0.8122 -0.8303
19803TIP3    H280825   3.370   5.833  17.281  0.1287 -0.1694  0.5087
19804TIP3   OH280826   1.475   3.733   2.775 -0.1468  0.4333  0.2528
19804TIP3    H180827   1.406   3.738   2.709 -0.3605  0.5516  0.4825
19804TIP3    H280828   1.483   3.640   2.796 -0.0719  0.3956  0.0509
19805TIP3   OH280829   4.593   3.223   3.991 -0.1764 -0.1280 -0.1870
19805TIP3    H180830   4.586   3.217   4.086  0.9537  1.5618  0.0448
19805TIP3    H280831   4.685   3.245   3.975 -0.5815  0.6898 -1.5874
19806TIP3   OH280832   3.561   3.588   3.752  0.5025  0.2044 -0.0746
19806TIP3    H180833   3.489   3.573   3.690  1.6007  0.0706 -1.3666
19806TIP3    H280834   3.574   3.683   3.751  0.1829  0.2558  0.3611
19807TIP3   OH280835   1.417   2.408  12.991 -0.0475  0.0182 -0.7610
19807TIP3    H180836   1.414   2.321  12.950 -3.3352  0.2642 -1.2727
19807TIP3    H280837   1.344   2.408  13.053  1.9599  1.3162  1.7790
19808TIP3   OH280838   3.075   0.596  15.227 -0.0832 -0.5653  0.3300
19808TIP3    H180839   3.116   0.682  15.214  0.5558 -1.0431 -1.0744
19808TIP3    H280840   3.000   0.596  15.168  0.2862 -1.1942 -0.1486
19809TIP3   OH280841   2.715   2.004   1.867 -0.2507 -0.1048  0.2494
19809TIP3    H180842   2.767   1.973   1.941  2.4987 -0.0681 -1.5463
19809TIP3    H280843   2.650   1.935   1.852  1.6855 -2.0263  0.2873
19810TIP3   OH280844   4.926   6.391  15.696  0.1637 -0.0141 -0.3749
19810TIP3    H180845   4.874   6.325  15.651  0.8219  0.1671 -1.4575
19810TIP3    H280846   5.016   6.374  15.667  0.3800  1.1905 -0.4794
19811TIP3   OH280847   4.391   3.218   2.181 -0.1150  0.4205  0.3821
19811TIP3    H180848   4.435   3.237   2.263 -0.2573 -0.3712  0.6489
19811TIP3    H280849   4.432   3.277   2.117  0.5483  0.4734  0.8543
19812TIP3   OH280850   1.979   3.051  16.201  0.1529  0.1938 -0.0737
19812TIP3    H180851   1.976   3.092  16.115  0.5299  1.3246  0.4292
19812TIP3    H280852   1.924   3.106  16.256  2.5034  1.4553  1.1768
19813TIP3   OH280853   2.733   1.390  16.206 -0.3351  0.5434 -0.9939
19813TIP3    H180854   2.820   1.361  16.232 -0.4882  0.1599 -0.8929
19813TIP3    H280855   2.722   1.476  16.247 -1.5469 -1.0481  2.4559
19814TIP3   OH280856   3.500   5.424   0.253  0.5023 -0.0372 -0.1770
19814TIP3    H180857   3.415   5.462   0.276 -0.8659 -3.2626  0.5966
19814TIP3    H280858   3.564   5.487   0.286 -1.5578  1.3322  1.4772
19815TIP3   OH280859   4.874   5.328   4.598  0.9839 -0.0240  0.1794
19815TIP3    H180860   4.956   5.374   4.579  0.5819  0.5581 -0.1432
19815TIP3    H280861   4.858   5.345   4.691 -0.2246  2.2169 -0.3881
19816TIP3   OH280862   2.130   5.403   1.078 -0.3130 -0.7239 -0.6586
19816TIP3    H180863   2.196   5.428   1.014 -1.0048  4.6609  0.2436
19816TIP3    H280864   2.047   5.434   1.040 -0.8148  2.0911  2.3590
19817TIP3   OH280865   2.170   6.057   1.374 -0.0501  0.0548  0.2095
19817TIP3    H180866   2.205   6.134   1.331  1.3853 -0.0651  1.0938
19817TIP3    H280867   2.183   6.074   1.468  0.1276 -1.1762  0.4243
19818TIP3   OH280868   2.397   2.588   2.535  0.2870 -0.2593 -0.1256
19818TIP3    H180869   2.423   2.607   2.445  1.2969 -0.6850  0.0660
19818TIP3    H280870   2.366   2.497   2.532  2.9838 -1.2978  0.4453
19819TIP3   OH280871   6.639   5.308  15.657 -0.4515  0.2242  0.0906
19819TIP3    H180872   6.635   5.404  15.652  2.4445  0.6441  2.7108
19819TIP3    H280873   6.553   5.283  15.692 -0.4319  2.1998  1.7833
19820TIP3   OH280874   6.098   5.214  14.390  0.1653 -0.4212  0.2329
19820TIP3    H180875   6.051   5.182  14.468  2.0750 -0.7076  1.3210
19820TIP3    H280876   6.046   5.289  14.360 -1.2914 -1.0703  1.0236
19821TIP3   OH280877   4.265   3.652  12.500 -0.0525  0.3302  0.4559
19821TIP3    H180878   4.223   3.568  12.479  0.4676  0.0270  0.5997
19821TIP3    H280879   4.358   3.638  12.479 -0.3778  1.8925 -2.6207
19822TIP3   OH280880   0.753   1.034  11.878  0.4384  0.8004 -0.0077
19822TIP3    H180881   0.841   1.065  11.854 -0.2047  1.0888 -2.1419
19822TIP3    H280882   0.719   1.103  11.936  0.8689  1.7168 -0.8032
19823TIP3   OH280883   2.722   0.226  14.022 -0.2343 -0.2707 -0.0399
19823TIP3    H180884   2.780   0.217  13.947 -0.5529 -1.1923 -0.1868
19823TIP3    H280885   2.752   0.159  14.084 -0.2389  0.2001  0.4794
19824TIP3   OH280886   1.412   1.512  12.533  0.2573 -0.6009 -0.0094
19824TIP3    H180887   1.372   1.498  12.446  0.6926 -0.7621 -0.1874
19824TIP3    H280888   1.494   1.558  12.515 -0.4125  0.8240  0.4579
19825TIP3   OH280889   3.578   1.774   3.176 -0.1406 -0.7030  0.4732
19825TIP3    H180890   3.588   1.703   3.112 -0.2111  0.9894 -1.5539
19825TIP3    H280891   3.499   1.751   3.226  0.0136 -2.1841  0.0735
19826TIP3   OH280892   6.490   2.624  15.276 -0.5701 -0.3073 -0.1117
19826TIP3    H180893   6.397   2.617  15.301 -1.0472 -1.3759 -2.0139
19826TIP3    H280894   6.537   2.617  15.359 -2.1718  0.3751  0.9137
19827TIP3   OH280895   1.801   4.987  12.168 -0.0571  0.0077  0.9864
19827TIP3    H180896   1.755   5.006  12.250  0.6718  0.3583  1.3318
19827TIP3    H280897   1.821   4.894  12.173 -1.4480 -0.3285  0.4473
19828TIP3   OH280898   4.615   2.296  11.094  0.0924  0.0267  0.2835
19828TIP3    H180899   4.599   2.230  11.026 -1.8186  1.3879 -0.6788
19828TIP3    H280900   4.594   2.379  11.052  1.3062  1.1738  1.8220
19829TIP3   OH280901   0.313   4.277  17.181 -0.3888 -0.4543  0.2192
19829TIP3    H180902   0.290   4.239  17.265 -0.7418 -0.5200  0.0932
19829TIP3    H280903   0.238   4.332  17.158 -0.1163 -0.1088  0.1442
19830TIP3   OH280904   5.276   3.724   4.826 -0.9191  0.2827 -0.4214
19830TIP3    H180905   5.347   3.663   4.806 -0.8215 -0.3800  1.7165
19830TIP3    H280906   5.219   3.720   4.749  0.5910 -0.2813 -1.5580
19831TIP3   OH280907   2.112   5.990  14.141 -0.3260  0.3184 -0.2130
19831TIP3    H180908   2.186   6.022  14.192  0.0449 -1.1093  0.1760
19831TIP3    H280909   2.068   6.070  14.112  1.1439  1.1906 -0.1600
19832TIP3   OH280910   5.113   5.698   0.556  0.5455 -0.7555  0.2854
19832TIP3    H180911   5.041   5.760   0.545 -1.0180 -2.3475  1.0497
19832TIP3    H280912   5.190   5.753   0.571 -0.5284  1.0040 -0.3262
19833TIP3   OH280913   1.309   1.226   4.564 -0.1603  0.6820  0.2551
19833TIP3    H180914   1.368   1.197   4.633  1.0377  0.8207 -0.6680
19833TIP3    H280915   1.222   1.209   4.598  0.3740  1.1580  1.9763
19834TIP3   OH280916   1.439   2.879  11.768 -0.4421  0.7815  0.8044
19834TIP3    H180917   1.508   2.917  11.713 -1.3418  0.6307 -0.4493
19834TIP3    H280918   1.378   2.951  11.783 -1.0338  0.4116  0.2308
19835TIP3   OH280919   1.996   3.950  12.624  0.1174  0.1896 -0.0707
19835TIP3    H180920   2.012   4.023  12.565 -1.1092  0.4655 -0.0908
19835TIP3    H280921   1.914   3.910  12.592  1.1528 -1.6844 -0.5510
19836TIP3   OH280922   1.743   4.245  16.660 -0.1558 -0.3831 -0.0330
19836TIP3    H180923   1.801   4.248  16.737 -0.1391  1.5779 -0.0838
19836TIP3    H280924   1.708   4.156  16.661  0.9317 -0.8426  1.4380
19837TIP3   OH280925   0.465   0.449  17.039 -0.1421 -0.0121 -0.5721
19837TIP3    H180926   0.391   0.479  16.985 -0.7193 -0.1663  0.1107
19837TIP3    H280927   0.481   0.522  17.098 -0.1308 -0.2088 -0.3333
19838TIP3   OH280928   2.190   0.830  15.063 -0.6508  0.3927  0.0488
19838TIP3    H180929   2.131   0.860  15.132  0.2877 -0.1240  1.0876
19838TIP3    H280930   2.275   0.821  15.105  0.1658  0.9896 -1.4011
19839TIP3   OH280931   3.988   5.924  11.902  0.3407  0.4420 -0.5974
19839TIP3    H180932   4.017   5.837  11.931  1.2369  0.6868 -0.7075
19839TIP3    H280933   3.894   5.915  11.889  0.4362 -0.5463 -0.7084
19840TIP3   OH280934   4.315   0.626  12.089 -0.2529  0.1234 -0.1467
19840TIP3    H180935   4.301   0.572  12.011  0.5015 -0.5943  0.1890
19840TIP3    H280936   4.409   0.618  12.106 -0.4144  0.2508  0.8355
19841TIP3   OH280937   3.515   0.745  15.275  0.5417  0.4120 -0.5936
19841TIP3    H180938   3.522   0.682  15.348 -0.4165 -0.0839 -0.9125
19841TIP3    H280939   3.554   0.825  15.310 -0.3534  0.3409  0.6673
19842TIP3   OH280940   0.362   3.523  11.838 -0.2119  0.7283  0.1662
19842TIP3    H180941   0.328   3.603  11.879 -0.5995  1.0266 -0.7165
19842TIP3    H280942   0.385   3.467  11.912  1.6483  2.2814  0.8561
19843TIP3   OH280943   1.698   5.622   4.501  0.1707 -0.2245 -0.5302
19843TIP3    H180944   1.749   5.556   4.455 -0.0836 -1.2825  0.6502
19843TIP3    H280945   1.736   5.626   4.589 -1.6369 -0.9527  0.3437
19844TIP3   OH280946   4.087   5.196   5.377 -0.1339  0.8131 -0.6941
19844TIP3    H180947   4.155   5.219   5.440  0.2731 -0.9067 -0.4771
19844TIP3    H280948   4.005   5.200   5.427  0.1541 -0.2366 -0.1081
19845TIP3   OH280949   0.737   5.691  17.154  0.1525  0.8528 -0.1677
19845TIP3    H180950   0.676   5.743  17.102  0.8275  0.7915 -1.0515
19845TIP3    H280951   0.713   5.600  17.134 -0.6374  0.8187  0.9056
19846TIP3   OH280952   2.153   5.074   5.531  0.1145 -0.1157  1.0481
19846TIP3    H180953   2.218   5.078   5.602 -1.4185 -0.0356  2.5254
19846TIP3    H280954   2.070   5.094   5.574 -1.1448 -1.8691 -0.4317
19847TIP3   OH280955   6.156   6.284   5.762  0.3790  0.6013  0.0858
19847TIP3    H180956   6.070   6.281   5.802  0.3502  0.6754  0.0312
19847TIP3    H280957   6.164   6.374   5.729  0.8039  0.8377  0.8171
19848TIP3   OH280958   0.933   2.957   6.037 -0.3916 -0.8012  0.3031
19848TIP3    H180959   0.910   2.896   6.107 -0.8225 -1.9710 -0.8094
19848TIP3    H280960   1.000   2.911   5.986  0.4421  0.3275  0.3394
19849TIP3   OH280961   2.705   1.724  15.332  0.2900 -0.6092 -0.7990
19849TIP3    H180962   2.690   1.788  15.263  0.2300 -0.9098 -1.0671
19849TIP3    H280963   2.661   1.644  15.302 -1.1386 -0.2818  0.3434
19850TIP3   OH280964   0.322   0.491  16.262  0.1168 -0.1434 -0.1040
19850TIP3    H180965   0.371   0.486  16.344 -0.1809 -1.9238  0.0126
19850TIP3    H280966   0.346   0.410  16.216 -1.0184  0.0205 -1.0180
19851TIP3   OH280967   2.752   5.043   0.548 -0.3783 -0.6781 -0.4025
19851TIP3    H180968   2.742   4.964   0.602 -1.4823  0.4944  1.2021
19851TIP3    H280969   2.759   5.114   0.611 -0.0702  0.5992 -1.8247
19852TIP3   OH280970   2.379   2.848  13.385  0.2661 -0.4965 -0.2048
19852TIP3    H180971   2.410   2.764  13.420  0.2197  0.1285  1.4192
19852TIP3    H280972   2.295   2.863  13.428  1.3087  1.4256  1.2880
19853TIP3   OH280973   6.407   3.025  14.461  0.3804  0.2361  0.4636
19853TIP3    H180974   6.362   3.010  14.544  0.0667  0.6857  0.3783
19853TIP3    H280975   6.477   2.959  14.459 -0.4882 -0.7100  0.4285
19854TIP3   OH280976   0.684   0.205   2.674 -0.0374  0.0788  0.7402
19854TIP3    H180977   0.635   0.260   2.735  1.3145  2.5128 -0.2369
19854TIP3    H280978   0.747   0.264   2.633 -0.9482 -1.3361 -3.1672
19855TIP3   OH280979   5.538   4.578  12.008 -0.0145  0.2989 -0.7811
19855TIP3    H180980   5.467   4.613  12.062  1.3420 -0.5525  1.7320
19855TIP3    H280981   5.496   4.513  11.952 -1.4837  1.1358 -0.7023
19856TIP3   OH280982   3.601   1.369  10.679 -0.1652  0.3476  0.2951
19856TIP3    H180983   3.692   1.397  10.675 -0.4111  1.4754  1.9010
19856TIP3    H280984   3.604   1.285  10.724 -0.1079  1.7667  3.1518
19857TIP3   OH280985   5.770   0.255   2.014 -0.3705 -0.4873 -0.1112
19857TIP3    H180986   5.698   0.305   2.051 -0.3766 -0.1713 -0.5407
19857TIP3    H280987   5.785   0.184   2.077  1.2581  1.4076  1.7602
19858TIP3   OH280988   4.950   4.903  12.777  0.2263  0.7490  0.0620
19858TIP3    H180989   5.043   4.908  12.799 -0.0168  1.8586  0.9335
19858TIP3    H280990   4.912   4.850  12.848  0.1042  0.7715  0.0132
19859TIP3   OH280991   5.635   4.844  11.910 -0.1922 -0.4093  0.3180
19859TIP3    H180992   5.605   4.755  11.928  0.1063 -1.3039 -2.9625
19859TIP3    H280993   5.597   4.866  11.825  0.7605  2.1335  0.4486
19860TIP3   OH280994   1.671   5.800   3.640  0.3950  0.2506 -0.6204
19860TIP3    H180995   1.659   5.860   3.566  1.5359  0.9575 -0.2545
19860TIP3    H280996   1.610   5.831   3.706  1.4600  1.4616 -0.1773
19861TIP3   OH280997   0.130   0.004  14.185  0.0083 -0.1965 -0.6066
19861TIP3    H180998   0.138   0.042  14.098  2.0387 -0.3784 -0.5463
19861TIP3    H280999   0.219   0.008  14.222  0.0605 -3.5816 -0.0427
19862TIP3   OH281000   3.929   3.947  11.764  0.3817 -0.0641 -0.0669
19862TIP3    H181001   4.022   3.926  11.756  0.7805  1.5995 -0.3425
19862TIP3    H281002   3.912   4.007  11.691 -1.5568 -2.2522 -1.5650
19863TIP3   OH281003   0.445   1.255  13.370 -0.0492 -0.0743  0.2184
19863TIP3    H181004   0.538   1.276  13.376  0.0641 -0.7362  1.0675
19863TIP3    H281005   0.406   1.330  13.326  1.0257 -0.2262 -1.0349
19864TIP3   OH281006   3.616   4.971  16.552 -0.0346 -0.2555 -0.1044
19864TIP3    H181007   3.632   4.967  16.646 -0.2354 -0.9165 -0.0989
19864TIP3    H281008   3.703   4.982  16.514  0.0230  0.2795  0.1663
19865TIP3   OH281009   1.075   3.321  15.679 -0.1950 -0.4189 -0.5052
19865TIP3    H181010   1.141   3.382  15.711  0.3970 -0.7438 -1.0752
19865TIP3    H281011   1.003   3.329  15.741  0.1293  0.3898 -0.2173
19866TIP3   OH281012   1.455   3.878   3.711 -0.2852 -0.1042  0.6566
19866TIP3    H181013   1.365   3.895   3.685 -0.4682  0.2491  1.5063
19866TIP3    H281014   1.499   3.856   3.629 -1.3326 -1.1933  0.3615
19867TIP3   OH281015   2.426   5.904   0.606  0.2066  0.0544 -0.0170
19867TIP3    H181016   2.456   5.940   0.690  0.3726  0.0712 -0.0830
19867TIP3    H281017   2.331   5.900   0.614 -0.0580  2.7770 -0.8938
19868TIP3   OH281018   2.296   1.963   5.417  0.3981 -0.1908  1.2479
19868TIP3    H181019   2.335   1.889   5.465  1.9247 -0.9265 -0.9623
19868TIP3    H281020   2.320   2.040   5.469 -1.7184 -1.1664  3.9165
19869TIP3   OH281021   2.060   5.316   1.437 -0.4090  0.2679 -0.0420
19869TIP3    H181022   2.116   5.380   1.480 -0.5885 -0.0266  0.6372
19869TIP3    H281023   1.992   5.297   1.501 -2.9005  2.6201 -1.7917
19870TIP3   OH281024   3.731   3.000   0.903  0.1589 -0.3089  0.3045
19870TIP3    H181025   3.715   3.041   0.988 -0.0928 -2.6043  1.4509
19870TIP3    H281026   3.717   2.906   0.919 -3.1990 -0.5906 -3.0052
19871TIP3   OH281027   5.578   4.153  15.524  0.2545 -0.4343 -0.2334
19871TIP3    H181028   5.579   4.233  15.471  1.1630  0.4104  1.0081
19871TIP3    H281029   5.668   4.145  15.555  0.3334 -2.2984 -0.8365
19872TIP3   OH281030   1.408   0.571   4.388 -0.4475 -0.4735  0.2844
19872TIP3    H181031   1.476   0.609   4.443  0.1499 -1.8712  0.5525
19872TIP3    H281032   1.452   0.552   4.305 -1.1724  0.9745 -0.4693
19873TIP3   OH281033   2.606   1.468  15.239  0.3582 -0.4166 -0.6219
19873TIP3    H181034   2.547   1.416  15.294 -0.9912  1.0256 -0.6276
19873TIP3    H281035   2.548   1.524  15.187  1.6563  2.9489  1.2150
19874TIP3   OH281036   0.007   1.139   3.966  0.3619  0.1525  0.0808
19874TIP3    H181037   0.029   1.160   3.875  0.9360  0.1726  0.2172
19874TIP3    H281038   0.086   1.098   4.000  0.2931  0.5180  0.6921
19875TIP3   OH281039   1.477   1.315  15.362  0.2894  0.2792  0.2421
19875TIP3    H181040   1.387   1.337  15.388  0.3064  2.9031 -1.5101
19875TIP3    H281041   1.528   1.393  15.385  2.0753 -0.9700  0.7535
19876TIP3   OH281042   6.568   2.489  15.026  0.3633  0.3038  0.0476
19876TIP3    H181043   6.562   2.539  15.107  1.0465  1.0118 -0.3194
19876TIP3    H281044   6.630   2.419  15.046  1.8575  1.4686 -0.3208
19877TIP3   OH281045   4.289   6.432   3.048  0.1593 -0.0903 -0.4190
19877TIP3    H181046   4.244   6.398   2.971  1.3846  0.1717 -1.2677
19877TIP3    H281047   4.284   6.528   3.039  0.0820 -0.0548 -0.0347
19878TIP3   OH281048   1.640   4.454  13.299 -0.5071  0.0804 -0.3126
19878TIP3    H181049   1.555   4.467  13.342 -0.6884  0.2934 -0.7300
19878TIP3    H281050   1.685   4.539  13.308 -0.3544 -0.0185 -0.1312
19879TIP3   OH281051   0.560   5.056  10.900  0.5297  0.2896  0.3332
19879TIP3    H181052   0.468   5.077  10.885  0.5770  1.7500  1.7783
19879TIP3    H281053   0.574   4.973  10.854 -1.5353 -0.0356  0.2083
19880TIP3   OH281054   2.673   0.284  15.461  0.1219 -0.1243 -0.1059
19880TIP3    H181055   2.647   0.261  15.550  0.2425  1.1992  0.2878
19880TIP3    H281056   2.759   0.325  15.471  0.5666 -0.8091 -0.9558
19881TIP3   OH281057   4.343   5.928  15.473 -0.6363  0.2472  0.2434
19881TIP3    H181058   4.388   5.847  15.452 -2.5951 -0.6764 -0.6081
19881TIP3    H281059   4.376   5.991  15.409  0.4503  0.0050  0.5348
19882TIP3   OH281060   3.981   1.605   2.415 -0.1078  0.6702  0.2377
19882TIP3    H181061   3.898   1.596   2.369 -0.6233  0.2581  1.2069
19882TIP3    H281062   3.976   1.541   2.486  0.9059  0.8710  0.5140
19883TIP3   OH281063   4.390   2.114   5.696 -0.3271  0.4861  0.6828
19883TIP3    H181064   4.391   2.067   5.779 -0.4662  1.9158  1.5285
19883TIP3    H281065   4.462   2.075   5.646  0.9717  0.8172  2.1950
19884TIP3   OH281066   1.616   1.034   1.031 -0.2833  0.0141  0.1008
19884TIP3    H181067   1.691   1.066   0.981  0.0179 -1.2254 -0.2746
19884TIP3    H281068   1.547   1.023   0.966 -0.4654  0.1793  0.2693
19885TIP3   OH281069   0.804   6.501   4.558  0.5700  0.5670  0.0537
19885TIP3    H181070   0.869   6.522   4.626  1.6725  0.5159 -0.9526
19885TIP3    H281071   0.734   6.564   4.573  1.3574  1.3703  0.4921
19886TIP3   OH281072   1.929   4.739   4.153  0.2218 -0.7998 -0.7778
19886TIP3    H181073   1.883   4.694   4.082 -0.1477  0.2732 -1.2289
19886TIP3    H281074   1.879   4.717   4.232 -0.4345 -0.5202 -1.1104
19887TIP3   OH281075   4.775   1.802  16.788  0.0163  0.0117 -0.1425
19887TIP3    H181076   4.783   1.801  16.884 -0.1337 -0.6097 -0.1322
19887TIP3    H281077   4.731   1.719  16.767 -2.6784  1.4089 -0.5160
19888TIP3   OH281078   3.104   5.088  13.218  0.0424 -0.0562  0.6578
19888TIP3    H181079   3.057   5.023  13.166 -0.0635  0.2670  0.3448
19888TIP3    H281080   3.186   5.045  13.241 -0.3665 -0.6041  1.1557
19889TIP3   OH281081   4.487   4.830   5.972  0.2177  0.1030  0.3629
19889TIP3    H181082   4.496   4.753   5.916 -0.3231  0.2874  0.0038
19889TIP3    H281083   4.418   4.806   6.034  0.8288 -0.1075  0.9750
19890TIP3   OH281084   1.700   1.480   0.570 -0.3839 -0.1015  0.6662
19890TIP3    H181085   1.752   1.509   0.495  0.2489  0.1240  1.1742
19890TIP3    H281086   1.626   1.541   0.573 -0.2886  0.0316  0.3650
19891TIP3   OH281087   1.839   4.679  14.848 -0.4808 -0.1748 -0.6327
19891TIP3    H181088   1.840   4.655  14.755  0.6203 -0.1359 -0.6406
19891TIP3    H281089   1.746   4.678  14.872 -0.7282 -0.8141 -1.5659
19892TIP3   OH281090   0.326   0.060  12.172  0.9182 -0.5763  0.7512
19892TIP3    H181091   0.292   0.130  12.228  1.6489  0.6389 -0.2675
19892TIP3    H281092   0.416   0.087  12.151  0.8391 -1.2539 -0.5690
19893TIP3   OH281093   3.351   6.561  13.830  0.2827  0.0029 -0.0750
19893TIP3    H181094   3.413   6.594  13.765  1.5184 -0.2989  0.9222
19893TIP3    H281095   3.271   6.544  13.780  1.0887  0.0973 -1.4474
19894TIP3   OH281096   5.219   5.559  11.835  0.2748 -0.2701 -0.0425
19894TIP3    H181097   5.185   5.531  11.920  0.1943  0.7213  0.2663
19894TIP3    H281098   5.171   5.506  11.771 -1.2672  0.5130  0.4282
19895TIP3   OH281099   1.037   0.182   3.438 -0.1877 -0.1357 -0.0159
19895TIP3    H181100   1.083   0.258   3.475 -0.2792 -0.2589  0.3540
19895TIP3    H281101   1.028   0.121   3.511 -0.8190 -0.1739 -0.1196
19896TIP3   OH281102   1.027   6.343  13.558  0.3128 -0.0518 -0.3110
19896TIP3    H181103   0.975   6.318  13.635 -0.1100  2.3395  0.2802
19896TIP3    H281104   1.070   6.263  13.531 -0.9306 -1.3634  1.3439
19897TIP3   OH281105   2.169   2.385   5.619  0.4290  0.1679 -0.4563
19897TIP3    H181106   2.178   2.309   5.561 -1.2780 -0.1844 -0.3076
19897TIP3    H281107   2.137   2.455   5.563  2.1154  0.8607 -0.6174
19898TIP3   OH281108   2.116   1.662   4.700 -0.4137 -0.1465  0.3096
19898TIP3    H181109   2.115   1.702   4.613 -3.9574 -1.1557 -0.2405
19898TIP3    H281110   2.110   1.736   4.761 -1.0054  0.4383 -0.4446
19899TIP3   OH281111   4.299   3.668   5.490 -0.3309 -0.7515 -0.6804
19899TIP3    H181112   4.338   3.707   5.569 -0.5091 -1.8779 -0.0208
19899TIP3    H281113   4.283   3.743   5.433  0.6339 -0.0086 -0.0214
19900TIP3   OH281114   2.810   0.734  15.905  0.1065  0.4439  0.3084
19900TIP3    H181115   2.888   0.705  15.858  0.1609  1.9561 -0.6075
19900TIP3    H281116   2.845   0.786  15.978 -0.0258  1.1438 -0.1170
19901TIP3   OH281117   2.041   4.520   5.517  0.1131  0.1289 -0.3341
19901TIP3    H181118   2.091   4.600   5.498  1.0733 -0.2915  0.3560
19901TIP3    H281119   1.951   4.551   5.529  0.4125  1.0652 -0.4010
19902TIP3   OH281120   1.647   0.172  11.750 -0.1840 -0.2881  0.1560
19902TIP3    H181121   1.643   0.089  11.798 -0.7678 -1.2446 -1.4592
19902TIP3    H281122   1.558   0.184  11.716  0.2672  0.2281 -0.8633
19903TIP3   OH281123   2.684   4.703   1.130 -0.0153  0.4253 -0.9416
19903TIP3    H181124   2.590   4.686   1.126  0.1269 -0.7429  0.0382
19903TIP3    H281125   2.724   4.636   1.074  0.3956 -1.1044  1.0618
19904TIP3   OH281126   2.306   6.210  16.326  0.0055 -0.4658  0.2771
19904TIP3    H181127   2.370   6.139  16.326 -0.5505 -1.0027 -1.1787
19904TIP3    H281128   2.268   6.208  16.414  1.3753 -0.6679  0.9034
19905TIP3   OH281129   4.330   0.009   4.065  0.0573  0.0606  0.4334
19905TIP3    H181130   4.265   0.028   4.132 -1.0363  2.0996 -1.1027
19905TIP3    H281131   4.290  -0.060   4.012 -0.7858  1.1184 -0.3450
19906TIP3   OH281132   0.004   2.283  13.033 -0.5331  1.0152 -0.1054
19906TIP3    H181133   0.070   2.215  13.023  0.1770  1.8184 -1.0848
19906TIP3    H281134   0.015   2.315  13.123  0.6902  1.4105 -0.3852
19907TIP3   OH281135   2.288   0.948   4.321 -0.0106  0.0434 -0.0882
19907TIP3    H181136   2.246   0.862   4.326 -0.0909  0.0373 -0.7470
19907TIP3    H281137   2.377   0.928   4.290  0.5044  0.0537  1.2941
19908TIP3   OH281138   4.213   5.178   4.887  0.0816  0.2146 -0.1725
19908TIP3    H181139   4.211   5.239   4.961 -2.0557  0.4577 -0.3655
19908TIP3    H281140   4.202   5.092   4.927  0.2694  0.2205 -0.1081
19909TIP3   OH281141   1.519   1.252   2.471  0.7097  0.3721  0.2226
19909TIP3    H181142   1.555   1.269   2.384 -1.7936  2.7762 -0.5110
19909TIP3    H281143   1.502   1.158   2.473  0.1024  0.3696 -2.2348
19910TIP3   OH281144   0.238   0.898  14.590 -0.4719 -0.1323  0.1040
19910TIP3    H181145   0.253   0.986  14.624  0.7555 -0.1885 -0.2351
19910TIP3    H281146   0.161   0.906  14.535 -0.5610  0.6624  0.3308
19911TIP3   OH281147   4.974   0.717   3.022 -0.2046  0.2649  0.0199
19911TIP3    H181148   5.043   0.758   2.971 -0.2683  0.2608 -0.0711
19911TIP3    H281149   4.916   0.678   2.957  0.0025 -0.2096  0.1122
19912TIP3   OH281150   3.518   6.327  14.683 -0.1536 -0.2250  0.6857
19912TIP3    H181151   3.560   6.404  14.645  2.6070 -1.8885  0.1255
19912TIP3    H281152   3.426   6.336  14.658  0.5295  1.5828 -1.5490
19913TIP3   OH281153   5.436   1.257  15.515  0.3154  0.1955  0.5872
19913TIP3    H181154   5.481   1.289  15.594 -0.0082 -3.7164  2.6047
19913TIP3    H281155   5.506   1.217  15.463 -0.0992 -2.1047  1.6741
19914TIP3   OH281156   6.288   1.111  12.384  0.1096  0.1134  0.0862
19914TIP3    H181157   6.231   1.055  12.437  0.8401 -0.5780  0.1719
19914TIP3    H281158   6.306   1.059  12.306  0.0397  0.6206 -0.2707
19915TIP3   OH281159   2.380   0.272  11.297  0.4331  0.0898 -0.4322
19915TIP3    H181160   2.380   0.368  11.309 -0.8249  0.1031 -0.4236
19915TIP3    H281161   2.311   0.241  11.356  3.3811 -1.2723  2.6808
19916TIP3   OH281162   6.573   0.363  16.081 -0.0970  0.1643 -0.1499
19916TIP3    H181163   6.649   0.352  16.138  0.6288  1.4664 -0.8145
19916TIP3    H281164   6.611   0.364  15.992 -0.9420  0.3623 -0.5137
19917TIP3   OH281165   5.788   4.888   6.293 -0.2469 -0.1661 -0.0116
19917TIP3    H181166   5.716   4.949   6.279 -0.2620 -0.5420 -1.8514
19917TIP3    H281167   5.795   4.839   6.210  2.0359 -0.2189  0.1381
19918TIP3   OH281168   2.154   4.990  16.121 -0.1470 -0.3694 -0.0580
19918TIP3    H181169   2.077   5.034  16.157  0.8510  0.4142  1.2050
19918TIP3    H281170   2.204   5.061  16.079 -0.0041 -0.8365 -0.6969
19919TIP3   OH281171   0.139   3.061  11.974 -0.7451  0.2543 -0.1499
19919TIP3    H181172   0.057   3.065  12.023 -1.0192  0.4443 -0.6261
19919TIP3    H281173   0.207   3.077  12.040 -1.1690  1.5867 -0.0174
19920TIP3   OH281174   5.357   2.918  15.053 -0.3602  0.1386 -0.5265
19920TIP3    H181175   5.438   2.942  15.098 -1.1028 -0.5160  1.2524
19920TIP3    H281176   5.309   3.001  15.044 -0.2110  0.2764 -0.0690
19921TIP3   OH281177   3.439   4.461  12.553 -0.2801  0.6663  0.1218
19921TIP3    H181178   3.492   4.463  12.473 -4.0666  1.2537 -2.6614
19921TIP3    H281179   3.420   4.368  12.566  2.0752  0.3273  1.7860
19922TIP3   OH281180   0.146   3.972   0.801 -0.6134  0.0435 -0.5144
19922TIP3    H181181   0.125   4.009   0.887 -0.9440  0.0923 -0.6152
19922TIP3    H281182   0.159   4.049   0.745 -0.2884  0.0138 -0.4872
19923TIP3   OH281183   3.175   5.005  14.742 -0.0405 -0.2477 -0.1960
19923TIP3    H181184   3.193   5.099  14.740  0.7064 -0.3471  0.8351
19923TIP3    H281185   3.136   4.989  14.828  0.4408 -0.9789 -0.0988
19924TIP3   OH281186   2.804   2.403  11.791  0.2065 -0.7470 -0.4275
19924TIP3    H181187   2.777   2.315  11.766  0.5088 -0.6692 -1.0347
19924TIP3    H281188   2.879   2.422  11.734  0.5681 -0.3632  0.1637
19925TIP3   OH281189   3.908   0.957   2.568  0.6401  0.5328  0.2615
19925TIP3    H181190   3.956   0.919   2.642  0.5094  1.0888  0.6405
19925TIP3    H281191   3.826   0.988   2.607  0.0192 -0.2937 -0.3539
19926TIP3   OH281192   4.145   0.279   2.354 -0.2335  0.3344 -0.0925
19926TIP3    H181193   4.167   0.357   2.302  0.5846 -0.3679 -0.8288
19926TIP3    H281194   4.177   0.300   2.442  1.5457  0.1854 -0.6646
19927TIP3   OH281195   4.427   6.687   3.346  1.0460  0.4888  0.6415
19927TIP3    H181196   4.349   6.731   3.315 -0.6521 -1.8549  1.3289
19927TIP3    H281197   4.409   6.667   3.438  2.1178 -0.7429  0.6219
19928TIP3   OH281198   4.282   3.430  11.427 -0.4857 -0.1606  0.0287
19928TIP3    H181199   4.207   3.490  11.431 -0.1792  0.2670 -0.4977
19928TIP3    H281200   4.288   3.393  11.515 -2.2771 -1.3966 -0.3150
19929TIP3   OH281201   4.402   1.923   3.904  0.0017  0.0307  0.1250
19929TIP3    H181202   4.421   1.992   3.840  2.0395 -1.3445 -0.8864
19929TIP3    H281203   4.465   1.938   3.975 -0.7259  0.2230  0.7331
19930TIP3   OH281204   5.548   3.562  15.344  0.2127 -0.0547  0.6449
19930TIP3    H181205   5.527   3.529  15.257  0.6377  0.1808  0.4487
19930TIP3    H281206   5.467   3.552  15.394 -0.5830  1.4528 -0.2695
19931TIP3   OH281207   1.128   0.433  13.212  0.3745  0.3776 -0.6352
19931TIP3    H181208   1.166   0.423  13.125 -0.5835 -1.1631 -0.9134
19931TIP3    H281209   1.035   0.448  13.196  0.1987  0.1418  0.1138
19932TIP3   OH281210   5.165   6.603   5.600 -0.0159  0.2937  0.3050
19932TIP3    H181211   5.220   6.654   5.659  0.6316  1.4372 -1.2495
19932TIP3    H281212   5.144   6.662   5.528 -0.3395 -1.2203 -0.9009
19933TIP3   OH281213   2.180   0.362  11.031  0.0445 -0.0764 -0.0005
19933TIP3    H181214   2.150   0.271  11.031 -1.2642  0.1863  3.9679
19933TIP3    H281215   2.120   0.408  10.973  0.9899 -1.6991 -2.4160
19934TIP3   OH281216   5.848   6.267  12.330 -0.1946  0.2609  0.0498
19934TIP3    H181217   5.874   6.211  12.257  0.0404 -0.1493  0.4428
19934TIP3    H281218   5.826   6.207  12.401 -0.4429  0.6526  0.3121
19935TIP3   OH281219   4.504   6.024   0.855  0.4821 -0.2819 -0.0702
19935TIP3    H181220   4.554   5.998   0.932  0.3556 -0.5645 -0.0814
19935TIP3    H281221   4.532   5.962   0.786 -0.5163 -1.0061  0.1555
19936TIP3   OH281222   1.959   4.635  12.100 -0.0144  0.1489 -0.5413
19936TIP3    H181223   1.958   4.633  12.195 -1.8589 -1.4962 -0.5267
19936TIP3    H281224   2.052   4.642  12.077  0.6623 -1.5887  1.3854
19937TIP3   OH281225   0.739   5.082   5.775  0.0760  0.4222  0.3563
19937TIP3    H181226   0.665   5.069   5.833  0.7350 -2.3047  0.6929
19937TIP3    H281227   0.784   5.159   5.811 -2.5026  2.1369  0.1302
19938TIP3   OH281228   3.174   5.050  13.619  0.1501 -0.4468  0.4652
19938TIP3    H181229   3.212   5.116  13.677 -1.0778  1.0725 -0.3793
19938TIP3    H281230   3.118   5.100  13.559 -1.8609 -2.3570  0.6006
19939TIP3   OH281231   6.707   4.639   4.836  0.7521  0.3540  0.0515
19939TIP3    H181232   6.759   4.635   4.755  0.7172 -0.9359  0.0837
19939TIP3    H281233   6.767   4.676   4.901  1.4955 -0.6546 -0.0342
19940TIP3   OH281234   4.974   0.568   4.670 -0.2136 -0.5832  0.2926
19940TIP3    H181235   5.054   0.614   4.645  0.0959 -0.2626  1.8038
19940TIP3    H281236   4.997   0.475   4.667 -0.2791 -0.5811 -0.8632
19941TIP3   OH281237   5.534   3.020  12.896  0.0166  0.2711  0.0112
19941TIP3    H181238   5.522   2.956  12.826 -1.0381 -0.9891  1.2910
19941TIP3    H281239   5.625   3.048  12.887  0.1294 -0.4333 -1.3754
19942TIP3   OH281240   0.389   3.593   3.898  0.0931  0.5636  0.1320
19942TIP3    H181241   0.457   3.531   3.873  2.2597  2.7348  0.3029
19942TIP3    H281242   0.387   3.589   3.994 -2.5173 -1.8908  0.1235
19943TIP3   OH281243   4.475   5.487   5.860  0.2574 -0.0278  0.3065
19943TIP3    H181244   4.449   5.437   5.937  1.2682 -1.2263 -0.1005
19943TIP3    H281245   4.552   5.535   5.888 -0.0117  0.3894  0.3440
19944TIP3   OH281246   2.156   6.620  12.278 -0.2970 -0.0882 -0.2342
19944TIP3    H181247   2.138   6.568  12.357 -0.7872  0.7054  0.1951
19944TIP3    H281248   2.092   6.589  12.214 -0.2034 -0.4241 -0.1616
19945TIP3   OH281249   6.255   0.898   6.065  0.1663  0.7176 -0.6707
19945TIP3    H181250   6.303   0.876   6.145 -0.6484 -1.3298 -0.6835
19945TIP3    H281251   6.322   0.933   6.006  0.9978  1.0818  0.4527
19946TIP3   OH281252   1.746   1.246   3.827  0.6559 -0.5863 -0.2336
19946TIP3    H181253   1.676   1.291   3.875  0.1158 -1.5328 -0.1003
19946TIP3    H281254   1.699   1.181   3.774  1.1146  1.0624 -2.8262
19947TIP3   OH281255   5.437   6.019  11.684  0.0652  0.1075 -0.2877
19947TIP3    H181256   5.410   6.100  11.727  2.2154  0.6323  0.2437
19947TIP3    H281257   5.518   5.994  11.730 -1.4335 -3.3675  0.8203
19948TIP3   OH281258   6.202   4.818   5.582 -0.1851  0.7943  0.4579
19948TIP3    H181259   6.132   4.753   5.589 -2.5020  2.8446 -1.4789
19948TIP3    H281260   6.265   4.779   5.522 -2.4738  0.8827 -2.2443
19949TIP3   OH281261   0.378   6.054   0.599 -0.1984 -0.3074 -0.0120
19949TIP3    H181262   0.454   6.049   0.657 -0.6639  0.8029  0.7198
19949TIP3    H281263   0.384   6.140   0.558 -1.0240 -0.2180  0.0244
19950TIP3   OH281264   1.680   6.359  16.725 -0.1063  0.1859 -0.4829
19950TIP3    H181265   1.620   6.285  16.714 -1.6082  0.9732  1.6615
19950TIP3    H281266   1.702   6.357  16.818  2.2569  0.6900 -0.9866
19951TIP3   OH281267   2.109   1.776   5.882 -0.2539 -0.5649  0.0035
19951TIP3    H181268   2.155   1.840   5.936 -1.7693  0.7528 -0.1999
19951TIP3    H281269   2.087   1.824   5.802 -1.4420 -1.3247 -0.1391
19952TIP3   OH281270   1.286   6.501  14.523 -0.2019  0.3299 -0.0027
19952TIP3    H181271   1.233   6.485  14.601  2.0478 -0.7942  1.4047
19952TIP3    H281272   1.263   6.590  14.495 -2.8103 -0.1299  0.4431
19953TIP3   OH281273   5.358   2.820  14.822 -0.6597  0.3921 -0.1002
19953TIP3    H181274   5.355   2.833  14.917 -1.4179  1.9368 -0.3104
19953TIP3    H281275   5.409   2.740  14.811  0.9833  1.1371  1.5338
19954TIP3   OH281276   2.628   0.125  11.379 -0.3609 -0.2732  0.0961
19954TIP3    H181277   2.655   0.101  11.468  0.8619 -0.7420 -0.3793
19954TIP3    H281278   2.554   0.184  11.392  2.0077  2.6500  1.5904
19955TIP3   OH281279   1.579   2.913   2.914 -0.2645  0.4424 -0.7507
19955TIP3    H181280   1.492   2.874   2.914 -0.1672  0.1972  0.4408
19955TIP3    H281281   1.578   2.976   2.986  1.0022 -0.6567  0.2845
19956LIG      S81282   3.787   3.310   0.154  0.3648  0.0095 -0.0568
19956LIG     N181283   3.818   3.323  -0.148  0.1069  0.4645  0.1743
19956LIG     N281284   4.152   3.044  -0.050 -0.8450  0.1620 -0.0749
19956LIG     C181285   4.012   3.293  -0.319  0.2516 -0.7087 -0.0845
19956LIG     C281286   4.074   3.169  -0.249  0.2625  0.0861  0.2203
19956LIG     C381287   3.862   3.294  -0.287  1.0256  0.2149 -0.5975
19956LIG     C481288   4.066   3.159  -0.093  0.2791  0.6601  0.2890
19956LIG     C581289   4.024   3.292  -0.473  0.4281 -0.3117 -0.2902
19956LIG     C681290   3.687   3.275  -0.097  0.1254  0.6575 -0.6144
19956LIG     C781291   3.846   3.450  -0.085 -0.3184  0.3300 -0.6401
19956LIG     C881292   4.200   3.060   0.097 -0.2590  0.1547 -0.4192
19956LIG     C981293   4.109   2.904  -0.079 -0.2546 -0.2416 -0.2421
19956LIG    C1081294   3.654   3.263   0.046 -0.3320 -0.5915  0.1416
19956LIG    C1181295   3.837   3.454   0.061 -0.4921 -0.5097 -0.1670
19956LIG    C1281296   3.573   3.266  -0.190  0.4196  0.1969 -0.2842
19956LIG    C1381297   3.879   3.567  -0.150  0.2944  0.1458  0.5482
19956LIG    C1481298   4.088   3.093   0.191 -0.1191 -0.2793 -0.0983
19956LIG    C1581299   3.980   2.845  -0.017  0.0406 -0.2245 -0.1509
19956LIG    C1681300   3.517   3.244   0.082 -0.2580 -0.1229 -0.6478
19956LIG    C1781301   3.857   3.574   0.133  0.2605 -0.5296  0.7660
19956LIG    C1881302   3.438   3.252  -0.142  0.1740 -0.2409  0.3110
19956LIG    C1981303   3.893   3.684  -0.079  0.2787  0.6102 -0.2020
19956LIG    C2081304   3.419   3.231  -0.012  0.5340 -0.5791 -0.2318
19956LIG    C2181305   3.881   3.690   0.063  0.0481 -0.3524 -0.2594
19956LIG     H181306   4.053   3.387  -0.277  1.2241 -0.8760 -0.6248
19956LIG     H281307   4.183   3.173  -0.270 -0.1967  4.0454 -2.2860
19956LIG     H381308   4.046   3.075  -0.302  0.5690  0.3350 -0.4001
19956LIG     H481309   3.806   3.359  -0.357 -3.1547 -0.6300  1.5988
19956LIG     H581310   3.831   3.189  -0.309  1.8140  0.2668 -2.1309
19956LIG     H681311   4.088   3.255  -0.041  1.7423 -0.5928  2.1052
19956LIG     H781312   3.963   3.127  -0.067  1.1864 -2.1474  0.7350
19956LIG     H881313   3.977   3.372  -0.534 -0.8783  0.1644  1.2847
19956LIG     H981314   3.970   3.200  -0.503  0.8262 -1.3501  1.9596
19956LIG    H1081315   4.133   3.296  -0.493  0.8106  0.3493  1.7542
19956LIG    H1181316   4.270   3.146   0.097 -0.2014  0.1191  0.8409
19956LIG    H1281317   4.266   2.975   0.125  0.8999  0.3752 -2.3019
19956LIG    H1381318   4.195   2.839  -0.050 -1.5637 -1.6492  0.6417
19956LIG    H1481319   4.097   2.900  -0.189  3.1273  1.6603 -0.8313
19956LIG    H1581320   3.587   3.287  -0.295  2.6346 -1.4523 -0.3940
19956LIG    H1681321   3.879   3.564  -0.258  2.0235 -1.1586  0.5613
19956LIG    H1781322   4.028   3.182   0.164  0.7121  1.2304  2.6067
19956LIG    H1881323   4.129   3.099   0.295 -1.1353 -0.6429  0.3309
19956LIG    H1981324   4.008   3.017   0.185 -1.1248  0.8298 -1.2596
19956LIG    H2081325   3.893   2.908  -0.044  0.2643 -0.6811 -2.1588
19956LIG    H2181326   3.986   2.837   0.094  3.3294  1.3430 -0.1235
19956LIG    H2281327   3.964   2.750  -0.072  1.8697  1.2270 -3.4727
19956LIG    H2381328   3.488   3.238   0.186  0.9767 -0.1673 -0.2873
19956LIG    H2481329   3.832   3.573   0.238  0.2130 -1.9099  0.7578
19956LIG    H2581330   3.349   3.236  -0.201  0.5409  1.4260 -0.7636
19956LIG    H2681331   3.927   3.776  -0.123  0.2947  1.4038  1.3711
19956LIG    H2781332   3.323   3.196   0.022  1.4476 -1.4006  1.6443
19956LIG    H2881333   3.891   3.787   0.109  0.0008 -0.6335  0.3476
   6.75036   6.75036  17.39354
