;;
;; Generated by CHARMM-GUI (http://www.charmm-gui.org) v1.7
;;
;; psf2itp_mol.py
;;
;; Correspondance:
;; jul316@lehigh.edu or wonpil@lehigh.edu
;;
;; GROMACS topology file for LIG
;;


[ moleculetype ]
; name	nrexcl
LIG	     3

[ atoms ]
; nr	type	resnr	residu	atom	cgnr	charge	mass
     1      SG311      1      LIG      S      1     -0.294    32.0600   ; qtot -0.294
     2       FGR1      1      LIG     F1      2     -0.134    18.9980   ; qtot -0.428
     3       FGR1      1      LIG     F2      3     -0.134    18.9980   ; qtot -0.562
     4      NG301      1      LIG     N1      4     -0.739    14.0070   ; qtot -1.301
     5      NG311      1      LIG     N2      5     -0.428    14.0070   ; qtot -1.729
     6      CG321      1      LIG     C1      6      0.070    12.0110   ; qtot -1.659
     7      CG321      1      LIG     C2      7      0.063    12.0110   ; qtot -1.596
     8      CG321      1      LIG     C3      8      0.063    12.0110   ; qtot -1.533
     9      CG321      1      LIG     C4      9     -0.211    12.0110   ; qtot -1.744
    10      CG321      1      LIG     C5     10     -0.027    12.0110   ; qtot -1.771
    11      CG321      1      LIG     C6     11     -0.027    12.0110   ; qtot -1.798
    12     CG2R61      1      LIG     C7     12      0.012    12.0110   ; qtot -1.786
    13      CG311      1      LIG     C8     13     -0.005    12.0110   ; qtot -1.791
    14     CG2R61      1      LIG     C9     14     -0.111    12.0110   ; qtot -1.902
    15     CG2R61      1      LIG    C10     15     -0.111    12.0110   ; qtot -2.013
    16     CG2R61      1      LIG    C11     16      0.007    12.0110   ; qtot -2.006
    17     CG2R61      1      LIG    C12     17     -0.110    12.0110   ; qtot -2.116
    18     CG2R61      1      LIG    C13     18     -0.110    12.0110   ; qtot -2.226
    19     CG2R61      1      LIG    C14     19      0.069    12.0110   ; qtot -2.157
    20      CG331      1      LIG    C15     20     -0.265    12.0110   ; qtot -2.422
    21     CG2R61      1      LIG    C16     21     -0.199    12.0110   ; qtot -2.621
    22     CG2R61      1      LIG    C17     22     -0.077    12.0110   ; qtot -2.698
    23     CG2R66      1      LIG    C18     23      0.060    12.0110   ; qtot -2.638
    24     CG2R61      1      LIG    C19     24     -0.156    12.0110   ; qtot -2.794
    25     CG2R66      1      LIG    C20     25      0.091    12.0110   ; qtot -2.703
    26       HGA2      1      LIG     H1     26      0.090     1.0080   ; qtot -2.613
    27       HGA2      1      LIG     H2     27      0.090     1.0080   ; qtot -2.523
    28       HGA2      1      LIG     H3     28      0.090     1.0080   ; qtot -2.433
    29       HGA2      1      LIG     H4     29      0.090     1.0080   ; qtot -2.343
    30       HGA2      1      LIG     H5     30      0.090     1.0080   ; qtot -2.253
    31       HGA2      1      LIG     H6     31      0.090     1.0080   ; qtot -2.163
    32       HGA2      1      LIG     H7     32      0.090     1.0080   ; qtot -2.073
    33       HGA2      1      LIG     H8     33      0.090     1.0080   ; qtot -1.983
    34       HGA2      1      LIG     H9     34      0.090     1.0080   ; qtot -1.893
    35       HGA2      1      LIG    H10     35      0.090     1.0080   ; qtot -1.803
    36       HGA2      1      LIG    H11     36      0.090     1.0080   ; qtot -1.713
    37       HGA2      1      LIG    H12     37      0.090     1.0080   ; qtot -1.623
    38       HGA1      1      LIG    H13     38      0.090     1.0080   ; qtot -1.533
    39      HGR61      1      LIG    H14     39      0.115     1.0080   ; qtot -1.418
    40      HGR61      1      LIG    H15     40      0.115     1.0080   ; qtot -1.303
    41     HGPAM1      1      LIG    H16     41      0.366     1.0080   ; qtot -0.937
    42      HGR61      1      LIG    H17     42      0.115     1.0080   ; qtot -0.822
    43      HGR61      1      LIG    H18     43      0.115     1.0080   ; qtot -0.707
    44       HGA3      1      LIG    H19     44      0.090     1.0080   ; qtot -0.617
    45       HGA3      1      LIG    H20     45      0.090     1.0080   ; qtot -0.527
    46       HGA3      1      LIG    H21     46      0.090     1.0080   ; qtot -0.437
    47      HGR62      1      LIG    H22     47      0.157     1.0080   ; qtot -0.280
    48      HGR61      1      LIG    H23     48      0.115     1.0080   ; qtot -0.165
    49      HGR62      1      LIG    H24     49      0.165     1.0080   ; qtot -0.000

[ bonds ]
; ai	aj	funct	b0	Kb
    1    10     1
    1    11     1
    2    23     1
    3    25     1
    4     6     1
    4     7     1
    4     8     1
    5    13     1
    5    16     1
    5    41     1
    6     9     1
    6    26     1
    6    27     1
    7    10     1
    7    28     1
    7    29     1
    8    11     1
    8    30     1
    8    31     1
    9    12     1
    9    32     1
    9    33     1
   10    34     1
   10    35     1
   11    36     1
   11    37     1
   12    14     1
   12    15     1
   13    19     1
   13    20     1
   13    38     1
   14    17     1
   14    39     1
   15    18     1
   15    40     1
   16    17     1
   16    18     1
   17    42     1
   18    43     1
   19    21     1
   19    22     1
   20    44     1
   20    45     1
   20    46     1
   21    23     1
   21    47     1
   22    24     1
   22    48     1
   23    25     1
   24    25     1
   24    49     1

[ pairs ]
; ai	aj	funct	c6	c12
    1     4     1 
    1    28     1 
    1    29     1 
    1    30     1 
    1    31     1 
    2     3     1 
    2    19     1 
    2    24     1 
    2    47     1 
    3    21     1 
    3    22     1 
    3    49     1 
    4    12     1 
    4    32     1 
    4    33     1 
    4    34     1 
    4    35     1 
    4    36     1 
    4    37     1 
    5    14     1 
    5    15     1 
    5    21     1 
    5    22     1 
    5    42     1 
    5    43     1 
    5    44     1 
    5    45     1 
    5    46     1 
    6    10     1 
    6    11     1 
    6    14     1 
    6    15     1 
    6    28     1 
    6    29     1 
    6    30     1 
    6    31     1 
    7     9     1 
    7    11     1 
    7    26     1 
    7    27     1 
    7    30     1 
    7    31     1 
    8     9     1 
    8    10     1 
    8    26     1 
    8    27     1 
    8    28     1 
    8    29     1 
    9    17     1 
    9    18     1 
    9    39     1 
    9    40     1 
   10    36     1 
   10    37     1 
   11    34     1 
   11    35     1 
   12    16     1 
   12    26     1 
   12    27     1 
   12    42     1 
   12    43     1 
   13    17     1 
   13    18     1 
   13    23     1 
   13    24     1 
   13    47     1 
   13    48     1 
   14    18     1 
   14    32     1 
   14    33     1 
   14    40     1 
   15    17     1 
   15    32     1 
   15    33     1 
   15    39     1 
   16    19     1 
   16    20     1 
   16    38     1 
   16    39     1 
   16    40     1 
   17    41     1 
   17    43     1 
   18    41     1 
   18    42     1 
   19    25     1 
   19    41     1 
   19    44     1 
   19    45     1 
   19    46     1 
   19    49     1 
   20    21     1 
   20    22     1 
   20    41     1 
   21    24     1 
   21    38     1 
   21    48     1 
   22    23     1 
   22    38     1 
   22    47     1 
   23    49     1 
   25    47     1 
   25    48     1 
   26    32     1 
   26    33     1 
   27    32     1 
   27    33     1 
   28    34     1 
   28    35     1 
   29    34     1 
   29    35     1 
   30    36     1 
   30    37     1 
   31    36     1 
   31    37     1 
   38    41     1 
   38    44     1 
   38    45     1 
   38    46     1 
   39    42     1 
   40    43     1 
   48    49     1 

[ angles ] 
; ai	aj	ak	funct	th0	cth	S0	Kub
   10     1    11     5
    6     4     7     5
    6     4     8     5
    7     4     8     5
   13     5    16     5
   13     5    41     5
   16     5    41     5
    4     6     9     5
    4     6    26     5
    4     6    27     5
    9     6    26     5
    9     6    27     5
   26     6    27     5
    4     7    10     5
    4     7    28     5
    4     7    29     5
   10     7    28     5
   10     7    29     5
   28     7    29     5
    4     8    11     5
    4     8    30     5
    4     8    31     5
   11     8    30     5
   11     8    31     5
   30     8    31     5
    6     9    12     5
    6     9    32     5
    6     9    33     5
   12     9    32     5
   12     9    33     5
   32     9    33     5
    1    10     7     5
    1    10    34     5
    1    10    35     5
    7    10    34     5
    7    10    35     5
   34    10    35     5
    1    11     8     5
    1    11    36     5
    1    11    37     5
    8    11    36     5
    8    11    37     5
   36    11    37     5
    9    12    14     5
    9    12    15     5
   14    12    15     5
    5    13    19     5
    5    13    20     5
    5    13    38     5
   19    13    20     5
   19    13    38     5
   20    13    38     5
   12    14    17     5
   12    14    39     5
   17    14    39     5
   12    15    18     5
   12    15    40     5
   18    15    40     5
    5    16    17     5
    5    16    18     5
   17    16    18     5
   14    17    16     5
   14    17    42     5
   16    17    42     5
   15    18    16     5
   15    18    43     5
   16    18    43     5
   13    19    21     5
   13    19    22     5
   21    19    22     5
   13    20    44     5
   13    20    45     5
   13    20    46     5
   44    20    45     5
   44    20    46     5
   45    20    46     5
   19    21    23     5
   19    21    47     5
   23    21    47     5
   19    22    24     5
   19    22    48     5
   24    22    48     5
    2    23    21     5
    2    23    25     5
   21    23    25     5
   22    24    25     5
   22    24    49     5
   25    24    49     5
    3    25    23     5
    3    25    24     5
   23    25    24     5

[ dihedrals ]
; ai	aj	ak	al	funct	phi0	cp	mult
   11     1    10    34     9
   11     1    10    35     9
   10     1    11    36     9
   10     1    11    37     9
    7     4     6     9     9
    7     4     6    26     9
    7     4     6    27     9
    8     4     6     9     9
    8     4     6    26     9
    8     4     6    27     9
    6     4     7    10     9
    6     4     7    28     9
    6     4     7    29     9
    8     4     7    10     9
    8     4     7    28     9
    8     4     7    29     9
    6     4     8    11     9
    6     4     8    30     9
    6     4     8    31     9
    7     4     8    11     9
    7     4     8    30     9
    7     4     8    31     9
   16     5    13    19     9
   16     5    13    20     9
   16     5    13    38     9
   13     5    16    17     9
   13     5    16    18     9
    4     6     9    12     9
    4     6     9    32     9
    4     6     9    33     9
   26     6     9    32     9
   26     6     9    33     9
   27     6     9    32     9
   27     6     9    33     9
    4     7    10    34     9
    4     7    10    35     9
   28     7    10    34     9
   28     7    10    35     9
   29     7    10    34     9
   29     7    10    35     9
    4     8    11    36     9
    4     8    11    37     9
   30     8    11    36     9
   30     8    11    37     9
   31     8    11    36     9
   31     8    11    37     9
   12     9     6    26     9
   12     9     6    27     9
    6     9    12    14     9
    6     9    12    15     9
    7    10     1    11     9
    1    10     7     4     9
    1    10     7    28     9
    1    10     7    29     9
    8    11     1    10     9
    1    11     8     4     9
    1    11     8    30     9
    1    11     8    31     9
   14    12     9    32     9
   14    12     9    33     9
   15    12     9    32     9
   15    12     9    33     9
    9    12    14    17     9
    9    12    14    39     9
   15    12    14    17     9
   15    12    14    39     9
    9    12    15    18     9
    9    12    15    40     9
   14    12    15    18     9
   14    12    15    40     9
   19    13     5    41     9
   20    13     5    41     9
   38    13     5    41     9
    5    13    19    21     9
    5    13    19    22     9
   20    13    19    21     9
   20    13    19    22     9
    5    13    20    44     9
    5    13    20    45     9
    5    13    20    46     9
   19    13    20    44     9
   19    13    20    45     9
   19    13    20    46     9
   38    13    20    44     9
   38    13    20    45     9
   38    13    20    46     9
   12    14    17    16     9
   12    14    17    42     9
   39    14    17    42     9
   12    15    18    16     9
   12    15    18    43     9
   40    15    18    43     9
   17    16     5    41     9
   18    16     5    41     9
    5    16    17    14     9
    5    16    17    42     9
   18    16    17    42     9
    5    16    18    15     9
    5    16    18    43     9
   17    16    18    43     9
   16    17    14    39     9
   14    17    16    18     9
   16    18    15    40     9
   15    18    16    17     9
   21    19    13    38     9
   22    19    13    38     9
   13    19    21    23     9
   13    19    21    47     9
   22    19    21    23     9
   22    19    21    47     9
   13    19    22    24     9
   13    19    22    48     9
   21    19    22    24     9
   21    19    22    48     9
   19    21    23    25     9
   19    22    24    25     9
   19    22    24    49     9
   48    22    24    49     9
    2    23    21    19     9
    2    23    21    47     9
   25    23    21    47     9
    2    23    25     3     9
    2    23    25    24     9
   21    23    25    24     9
   25    24    22    48     9
   22    24    25    23     9
    3    25    23    21     9
    3    25    24    22     9
    3    25    24    49     9
   23    25    24    49     9
